  ==> Input File <==

--------------------------------------------------------------------------
set {
	reference rhf
	basis 6-31G*
}

set_num_threads( 4 )
memory 2 gb

molecule MOL {
0 1

O	 -1.310722	 -0.745693	 -2.188594
C	 -1.867954	 -0.959153	 -1.159739
C	 -3.089578	 -1.832388	 -1.031823
O	 -1.481751	 -0.454642	 0.000584
H	 -2.849311	 -2.822829	 -1.399465
H	 -3.435968	 -1.893677	 -0.010698
H	 -3.872746	 -1.429640	 -1.662950
C	 -0.334255	 0.388708	 0.000906
C	 0.891947	 -0.504646	 0.000751
H	 -0.365390	 1.025305	 -0.873475
H	 -0.365484	 1.024911	 0.875569
C	 2.191998	 0.301789	 0.000897
H	 0.855148	 -1.151283	 -0.871571
H	 0.855132	 -1.151660	 0.872805
C	 3.441114	 -0.581407	 0.000108
H	 2.215074	 0.954890	 -0.869742
H	 2.215465	 0.953923	 0.872248
C	 4.739576	 0.224112	 -0.001102
H	 3.419457	 -1.233487	 -0.870178
H	 3.420834	 -1.233096	 0.870717
H	 4.804918	 0.861552	 -0.878265
H	 5.606527	 -0.429058	 -0.001824
H	 4.806469	 0.861674	 0.875853

	symmetry c1
}
set optking {
	frozen_dihedral = ("
		2 4 8 10
	")
}

ee = optimize('scf')
oeprop('DIPOLE', 'QUADRUPOLE', 'MULLIKEN_CHARGES')
f=open( 'psi4out.xyz', 'w' )
f.write( "23  " )
f.write( str(ee) + "\n" )
f.write( MOL.save_string_xyz() )
f.close()
--------------------------------------------------------------------------

    Molecular point group: c1
  Charge       = 0
  Multiplicity = 1
  Basis Set: 6-31G*
  Basis Set:
  @DF-RHF Final Energy:  -422.97697842798215
    Total Energy =                       -422.9769784279828855
    Molecular point group: c1
  Basis Set: 6-31G*
  Basis Set:
  Basis Set: 6-31G*
  Basis Set:
  @DF-RHF Final Energy:  -422.97857208845528
    Total Energy =                       -422.9785720884549391
  Basis Set: 6-31G*
  Basis Set:
  Basis Set: 6-31G*
  Basis Set:
  @DF-RHF Final Energy:  -422.97723427802754
    Total Energy =                       -422.9772342780272538
  Basis Set: 6-31G*
  Basis Set:
  Basis Set: 6-31G*
  Basis Set:
  @DF-RHF Final Energy:  -422.97885858045788
    Total Energy =                       -422.9788585804583363
  Basis Set: 6-31G*
  Basis Set:
  Basis Set: 6-31G*
  Basis Set:
  @DF-RHF Final Energy:  -422.97886810793648
    Total Energy =                       -422.9788681079364778
  Basis Set: 6-31G*
  Basis Set:
  Charge       = 0
  Multiplicity = 1
  Basis Set: 6-31G*
  Basis Set:

    Orbital Energies (a.u.)
    -----------------------

    Doubly Occupied:

       1A    -20.602941     2A    -20.540890     3A    -11.375409
       4A    -11.281494     5A    -11.232395     6A    -11.221724
       7A    -11.219928     8A    -11.219288     9A    -11.211117
      10A     -1.467158    11A     -1.361161    12A     -1.091066
      13A     -1.040573    14A     -1.002171    15A     -0.931010
      16A     -0.850871    17A     -0.798661    18A     -0.764638
      19A     -0.699541    20A     -0.678070    21A     -0.655761
      22A     -0.649252    23A     -0.603446    24A     -0.589727
      25A     -0.583967    26A     -0.572560    27A     -0.549883
      28A     -0.538831    29A     -0.521937    30A     -0.512823
      31A     -0.485290    32A     -0.476374    33A     -0.474214
      34A     -0.468451    35A     -0.437599    36A     -0.435858

  @DF-RHF Final Energy:  -422.97886840052024

   => Energetics <=

    Nuclear Repulsion Energy =            456.6944452510666679
    One-Electron Energy =               -1481.0544695951293761
    Two-Electron Energy =                 601.3811559435423533
    DFT Exchange-Correlation Energy =       0.0000000000000000
    Empirical Dispersion Energy =           0.0000000000000000
    PCM Polarization Energy =               0.0000000000000000
    EFP Energy =                            0.0000000000000000
    Total Energy =                       -422.9788684005204686
    Molecular point group: c1
  Basis Set: 6-31G*
  Basis Set:

  -Total Gradient:
     Atom            X                  Y                   Z
    ------   -----------------  -----------------  -----------------
       1       -0.000007235666    -0.000013140213     0.000015083027
       2        0.000156086704    -0.000217694006     0.000023990145
       3        0.000023505211    -0.000007718377     0.000007814190
       4       -0.000289779713     0.000288217006    -0.000004547322
       5        0.000002554286     0.000017279084    -0.000004792400
       6       -0.000000822515     0.000000541609    -0.000003329875
       7       -0.000021815520     0.000002586656    -0.000000444234
       8        0.000265520792    -0.000242741014    -0.000148179871
       9       -0.000065995652    -0.000033212334     0.000037532647
      10       -0.000103415503     0.000200394367     0.000161412402
      11        0.000016553321    -0.000001930170    -0.000011871866
      12       -0.000021964538     0.000030875568    -0.000008344642
      13       -0.000002347786    -0.000002079534    -0.000021223383
      14        0.000018638494    -0.000015828964    -0.000025354171
      15        0.000019132867    -0.000005301050     0.000007015983
      16        0.000016977293    -0.000002411030    -0.000017622633
      17       -0.000014175145     0.000001188067    -0.000030621899
      18        0.000008804946    -0.000007639531     0.000020820062
      19       -0.000000363297     0.000017464124     0.000001069809
      20       -0.000001990914    -0.000010445995    -0.000001328420
      21       -0.000003790822    -0.000004221205    -0.000001294671
      22        0.000002262716     0.000002632904     0.000003213790
      23        0.000003660454     0.000003184040     0.000001003338

  **** Optimization is complete! (in 6 steps) ****
    Final optimized geometry and variables:
    Molecular point group: c1

    Geometry (in Angstrom), charge = 0, multiplicity = 1:

    O           -1.769871445294    -0.315980904889    -1.729304218023
    C           -2.279053659198    -0.498300502213    -0.669563738515
    C           -3.532900701060    -1.311149433500    -0.473867361631
    O           -1.814261777126    -0.008345672811     0.468595152261
    H           -3.358711313810    -2.313832100192    -0.845594127531
    H           -3.830179173183    -1.350254268687     0.563601335735
    H           -4.326263762407    -0.874567382582    -1.068763029543
    C           -0.628054519294     0.782160157382     0.432529069679
    C            0.623539176919    -0.081076592120     0.444773042486
    H           -0.655646561413     1.424185844601    -0.435536974718
    H           -0.682968789383     1.393295464824     1.322766452593
    C            1.898086065958     0.763977200840     0.496556995430
    H            0.631285042101    -0.705261125481    -0.442379309784
    H            0.581435665441    -0.742889845206     1.306089534219
    C            3.172966630819    -0.081270471122     0.522502470494
    H            1.927266128730     1.428148549672    -0.365286377923
    H            1.876041121684     1.404542473842     1.376981668949
    C            4.445842977078     0.762551890440     0.574719371801
    H            3.197798863820    -0.719064779060    -0.357941392449
    H            3.145214108926    -0.747167622314     1.382191156280
    H            4.519356528478     1.415059173695    -0.290609918704
    H            5.331824960382     0.135632446582     0.592064278506
    H            4.466004265806     1.388153014276     1.462685139185

  Mulliken Charges: (a.u.)
   Center  Symbol    Alpha    Beta     Spin     Total
       1     O     4.28534  4.28534  0.00000 -0.57069
       2     C     2.61525  2.61525  0.00000  0.76950
       3     C     3.28787  3.28787  0.00000 -0.57575
       4     O     4.31313  4.31313  0.00000 -0.62626
       5     H     0.39778  0.39778  0.00000  0.20445
       6     H     0.39953  0.39953  0.00000  0.20094
       7     H     0.39741  0.39741  0.00000  0.20518
       8     C     3.00050  3.00050  0.00000 -0.00101
       9     C     3.17053  3.17053  0.00000 -0.34107
      10     H     0.40339  0.40339  0.00000  0.19322
      11     H     0.41076  0.41076  0.00000  0.17848
      12     C     3.16099  3.16099  0.00000 -0.32199
      13     H     0.40465  0.40465  0.00000  0.19070
      14     H     0.41685  0.41685  0.00000  0.16630
      15     C     3.15138  3.15138  0.00000 -0.30275
      16     H     0.41895  0.41895  0.00000  0.16211
      17     H     0.42339  0.42339  0.00000  0.15322
      18     C     3.23986  3.23986  0.00000 -0.47973
      19     H     0.41980  0.41980  0.00000  0.16039
      20     H     0.42213  0.42213  0.00000  0.15574
      21     H     0.42057  0.42057  0.00000  0.15885
      22     H     0.41818  0.41818  0.00000  0.16363
      23     H     0.42175  0.42175  0.00000  0.15649

   Total alpha = 36.00000, Total beta = 36.00000, Total charge =  0.00000
