  ==> Input File <==

--------------------------------------------------------------------------
set {
	reference rhf
	basis cc-pvtz
}

set_num_threads( 4 )
memory 2 gb

molecule MOL {
0 1

H	 1.773314	 0.890289	 0.798726
C	 0.912674	 0.980529	 0.152300
O	 -0.000000	 0.000000	 0.518769
H	 0.492917	 1.977967	 0.265334
H	 1.235530	 0.858831	 -0.879596
C	 -1.165153	 0.000000	 -0.236961
H	 -1.229451	 0.882440	 -0.870223
H	 -2.002557	 0.000000	 0.445289
H	 -1.229451	 -0.882440	 -0.870223

	symmetry c1
}
set optking {
	frozen_dihedral = ("
		2 3 6 7
	")
}

ee = optimize('scf')
oeprop('DIPOLE', 'QUADRUPOLE', 'MULLIKEN_CHARGES')
f=open( 'psi4out.xyz', 'w' )
f.write( "9  " )
f.write( str(ee) + "\n" )
f.write( MOL.save_string_xyz() )
f.close()
--------------------------------------------------------------------------

    Molecular point group: c1
  Charge       = 0
  Multiplicity = 1
  Basis Set: CC-PVTZ
  Basis Set:
  @DF-RHF Final Energy:  -154.12330565817288
    Total Energy =                       -154.1233056581728533
    Molecular point group: c1
  Basis Set: CC-PVTZ
  Basis Set:
  Basis Set: CC-PVTZ
  Basis Set:
  @DF-RHF Final Energy:  -154.12359830289085
    Total Energy =                       -154.1235983028909118
  Basis Set: CC-PVTZ
  Basis Set:
  Basis Set: CC-PVTZ
  Basis Set:
  @DF-RHF Final Energy:  -154.12369205852278
    Total Energy =                       -154.1236920585228631
  Basis Set: CC-PVTZ
  Basis Set:
  Charge       = 0
  Multiplicity = 1
  Basis Set: CC-PVTZ
  Basis Set:

    Orbital Energies (a.u.)
    -----------------------

    Doubly Occupied:

       1A    -20.546781     2A    -11.263595     3A    -11.262684
       4A     -1.377921     5A     -0.975823     6A     -0.872626
       7A     -0.658941     8A     -0.654987     9A     -0.644872
      10A     -0.558526    11A     -0.527998    12A     -0.475394
      13A     -0.414998

  @DF-RHF Final Energy:  -154.12369266098622

   => Energetics <=

    Nuclear Repulsion Energy =             84.5902422319199729
    One-Electron Energy =                -376.9575808769830019
    Two-Electron Energy =                 138.2436459840768066
    DFT Exchange-Correlation Energy =       0.0000000000000000
    Empirical Dispersion Energy =           0.0000000000000000
    PCM Polarization Energy =               0.0000000000000000
    EFP Energy =                            0.0000000000000000
    Total Energy =                       -154.1236926609861939
    Molecular point group: c1
  Basis Set: CC-PVTZ
  Basis Set:

  -Total Gradient:
     Atom            X                  Y                   Z
    ------   -----------------  -----------------  -----------------
       1        0.000030475556     0.000025095523    -0.000002131451
       2       -0.000361415990     0.000775897635     0.000774176616
       3        0.000781445197    -0.001257991042    -0.001502581402
       4       -0.000032063756    -0.000040467233    -0.000003293905
       5       -0.000033742952    -0.000004374255     0.000016769875
       6       -0.001085598104     0.001217214662     0.001797085732
       7        0.000720992867    -0.000714377469    -0.001061436645
       8       -0.000033456470     0.000000681107    -0.000007460063
       9        0.000013363653    -0.000001678926    -0.000011128757

  **** Optimization is complete! (in 4 steps) ****
    Final optimized geometry and variables:
    Molecular point group: c1

    Geometry (in Angstrom), charge = 0, multiplicity = 1:

    H            1.868283484842     0.537275945107     0.672710338596
    C            1.014159478654     0.642322448594     0.019197035882
    O            0.086833886882    -0.328471158970     0.377861857714
    H            0.608634657362     1.644689191885     0.134594668351
    H            1.347831403254     0.521673838426    -1.009168169224
    C           -1.093980368748    -0.342567156808    -0.363960006680
    H           -1.180543298898     0.529063626031    -1.004963011907
    H           -1.941431412869    -0.363705935037     0.309762787538
    H           -1.130477968591    -1.225055914230    -0.994844873083

  Mulliken Charges: (a.u.)
   Center  Symbol    Alpha    Beta     Spin     Total
       1     H     0.44976  0.44976  0.00000  0.10047
       2     C     3.02081  3.02081  0.00000 -0.04162
       3     O     4.17267  4.17267  0.00000 -0.34533
       4     H     0.47280  0.47280  0.00000  0.05439
       5     H     0.47331  0.47331  0.00000  0.05338
       6     C     3.01644  3.01644  0.00000 -0.03288
       7     H     0.47482  0.47482  0.00000  0.05036
       8     H     0.45697  0.45697  0.00000  0.08606
       9     H     0.46241  0.46241  0.00000  0.07518

   Total alpha = 13.00000, Total beta = 13.00000, Total charge =  0.00000
