  ==> Input File <==

--------------------------------------------------------------------------
set {
	reference rhf
	basis 6-31G*
}

set_num_threads( 1 )
memory 2 gb

molecule MOL {
0 1

H	 1.920128	 -0.266928	 2.344986
O	 1.227428	 0.281236	 2.005320
C	 1.135793	 0.118896	 0.612333
C	 0.031547	 1.023609	 0.088541
H	 0.900380	 -0.914481	 0.364133
H	 2.084726	 0.357299	 0.137157
C	 -1.134819	 0.293262	 -0.585751
H	 0.474374	 1.714721	 -0.623187
H	 -0.338529	 1.620940	 0.920081
C	 -1.917817	 -0.639439	 0.339494
H	 -0.758119	 -0.268455	 -1.433105
H	 -1.813832	 1.041889	 -0.986690
H	 -2.777680	 -1.057197	 -0.174994
H	 -1.310268	 -1.471279	 0.680599
H	 -2.283753	 -0.111424	 1.216626

	symmetry c1
}
set optking {
	frozen_dihedral = ("
		8 4 7 11,
		1 2 3 4
	")
}

ee = energy('scf')
oeprop('DIPOLE', 'QUADRUPOLE', 'MULLIKEN_CHARGES')
f=open( 'psi4out.xyz', 'w' )
f.write( "15  " )
f.write( str(ee) + "\n" )
f.write( MOL.save_string_xyz() )
f.close()
--------------------------------------------------------------------------

    Molecular point group: c1

    Geometry (in Angstrom), charge = 0, multiplicity = 1:

       Center              X                  Y                   Z               Mass
    ------------   -----------------  -----------------  -----------------  -----------------
           H          2.013603912671    -0.465440033752     1.805045939891     1.007825032070
           O          1.320903912671     0.082723966248     1.465379939891    15.994914619560
           C          1.229268912671    -0.079616033752     0.072392939891    12.000000000000
           C          0.125022912671     0.825096966248    -0.451399060109    12.000000000000
           H          0.993855912671    -1.112993033752    -0.175807060109     1.007825032070
           H          2.178201912671     0.158786966248    -0.402783060109     1.007825032070
           C         -1.041343087329     0.094749966248    -1.125691060109    12.000000000000
           H          0.567849912671     1.516208966248    -1.163127060109     1.007825032070
           H         -0.245053087329     1.422427966248     0.380140939891     1.007825032070
           C         -1.824341087329    -0.837951033752    -0.200446060109    12.000000000000
           H         -0.664643087329    -0.466967033752    -1.973045060109     1.007825032070
           H         -1.720356087329     0.843376966248    -1.526630060109     1.007825032070
           H         -2.684204087329    -1.255709033752    -0.714934060109     1.007825032070
           H         -1.216792087329    -1.669791033752     0.140658939891     1.007825032070
           H         -2.190277087329    -0.309936033752     0.676685939891     1.007825032070

  Charge       = 0
  Multiplicity = 1
  Basis Set: 6-31G*
  Basis Set:

    Orbital Energies (a.u.)
    -----------------------

    Doubly Occupied:

       1A    -20.551728     2A    -11.265913     3A    -11.215600
       4A    -11.209655     5A    -11.205921     6A     -1.358317
       7A     -1.067419     8A     -0.969445     9A     -0.867383
      10A     -0.782059    11A     -0.699087    12A     -0.648827
      13A     -0.615533    14A     -0.571375    15A     -0.554805
      16A     -0.540566    17A     -0.504067    18A     -0.476969
      19A     -0.469011    20A     -0.455872    21A     -0.427128

  @DF-RHF Final Energy:  -232.13750825464032

   => Energetics <=

    Nuclear Repulsion Energy =            190.3346204419154617
    One-Electron Energy =                -692.0309659028586111
    Two-Electron Energy =                 269.5588372063028260
    DFT Exchange-Correlation Energy =       0.0000000000000000
    Empirical Dispersion Energy =           0.0000000000000000
    PCM Polarization Energy =               0.0000000000000000
    EFP Energy =                            0.0000000000000000
    Total Energy =                       -232.1375082546402950

  Mulliken Charges: (a.u.)
   Center  Symbol    Alpha    Beta     Spin     Total
       1     H     0.28223  0.28223  0.00000  0.43554
       2     O     4.37083  4.37083  0.00000 -0.74166
       3     C     2.99630  2.99630  0.00000  0.00739
       4     C     3.16572  3.16572  0.00000 -0.33144
       5     H     0.43035  0.43035  0.00000  0.13930
       6     H     0.42947  0.42947  0.00000  0.14106
       7     C     3.15899  3.15899  0.00000 -0.31798
       8     H     0.42002  0.42002  0.00000  0.15995
       9     H     0.40405  0.40405  0.00000  0.19190
      10     C     3.23920  3.23920  0.00000 -0.47839
      11     H     0.42443  0.42443  0.00000  0.15113
      12     H     0.42023  0.42023  0.00000  0.15955
      13     H     0.42041  0.42041  0.00000  0.15918
      14     H     0.42024  0.42024  0.00000  0.15953
      15     H     0.41752  0.41752  0.00000  0.16495

   Total alpha = 21.00000, Total beta = 21.00000, Total charge = -0.00000
