  ==> Input File <==

--------------------------------------------------------------------------
set {
	reference rhf
	basis 6-31G*
}

set_num_threads( 1 )
memory 2 gb

molecule MOL {
0 1

H	 -2.877858	 1.884727	 -0.643378
C	 -2.138911	 1.280077	 -0.154486
C	 -2.076860	 -0.007332	 -0.404944
H	 -1.463233	 1.751696	 0.533952
O	 -1.180634	 -0.819263	 0.215062
H	 -2.739466	 -0.497483	 -1.096248
C	 0.051604	 -1.018856	 -0.387932
C	 1.043764	 0.054862	 -0.001873
H	 -0.017620	 -1.041351	 -1.469781
H	 0.437898	 -1.966374	 -0.042284
F	 2.212596	 -0.199467	 -0.571921
F	 0.652529	 1.252447	 -0.405055
F	 1.230877	 0.110694	 1.300533

	symmetry c1
}
set optking {
	frozen_dihedral = ("
		11 8 7 9,
		3 5 7 9,
		6 3 2 1
	")
}

ee = energy('scf')
oeprop('DIPOLE', 'QUADRUPOLE', 'MULLIKEN_CHARGES')
f=open( 'psi4out.xyz', 'w' )
f.write( "13  " )
f.write( str(ee) + "\n" )
f.write( MOL.save_string_xyz() )
f.close()
--------------------------------------------------------------------------

    Molecular point group: c1

    Geometry (in Angstrom), charge = 0, multiplicity = 1:

       Center              X                  Y                   Z               Mass
    ------------   -----------------  -----------------  -----------------  -----------------
           H         -2.995101621960     1.782836685214    -0.607331917565     1.007825032070
           C         -2.256154621960     1.178186685214    -0.118439917565    12.000000000000
           C         -2.194103621960    -0.109222314786    -0.368897917565    12.000000000000
           H         -1.580476621960     1.649805685214     0.569998082435     1.007825032070
           O         -1.297877621960    -0.921153314786     0.251108082435    15.994914619560
           H         -2.856709621960    -0.599373314786    -1.060201917565     1.007825032070
           C         -0.065639621960    -1.120746314786    -0.351885917565    12.000000000000
           C          0.926520378040    -0.047028314786     0.034173082435    12.000000000000
           H         -0.134863621960    -1.143241314786    -1.433734917565     1.007825032070
           H          0.320654378040    -2.068264314786    -0.006237917565     1.007825032070
           F          2.095352378040    -0.301357314786    -0.535874917565    18.998403224000
           F          0.535285378040     1.150556685214    -0.369008917565    18.998403224000
           F          1.113633378040     0.008803685214     1.336579082435    18.998403224000

  Charge       = 0
  Multiplicity = 1
  Basis Set: 6-31G*
  Basis Set:

    Orbital Energies (a.u.)
    -----------------------

    Doubly Occupied:

       1A    -26.341368     2A    -26.339159     3A    -26.338909
       4A    -20.595341     5A    -11.499443     6A    -11.313268
       7A    -11.290081     8A    -11.224056     9A     -1.739018
      10A     -1.636832    11A     -1.635942    12A     -1.429337
      13A     -1.077815    14A     -1.017064    15A     -0.925538
      16A     -0.835266    17A     -0.828376    18A     -0.812416
      19A     -0.783959    20A     -0.717024    21A     -0.711175
      22A     -0.687826    23A     -0.667417    24A     -0.665538
      25A     -0.653828    26A     -0.644733    27A     -0.640632
      28A     -0.588334    29A     -0.562124    30A     -0.525639
      31A     -0.461870    32A     -0.371515

  @DF-RHF Final Energy:  -527.52846633285344

   => Energetics <=

    Nuclear Repulsion Energy =            422.2712139009333328
    One-Electron Energy =               -1568.4776982209587004
    Two-Electron Energy =                 618.6780179871720975
    DFT Exchange-Correlation Energy =       0.0000000000000000
    Empirical Dispersion Energy =           0.0000000000000000
    PCM Polarization Energy =               0.0000000000000000
    EFP Energy =                            0.0000000000000000
    Total Energy =                       -527.5284663328532133

  Mulliken Charges: (a.u.)
   Center  Symbol    Alpha    Beta     Spin     Total
       1     H     0.40727  0.40727  0.00000  0.18546
       2     C     3.20464  3.20464  0.00000 -0.40928
       3     C     2.92643  2.92643  0.00000  0.14714
       4     H     0.39739  0.39739  0.00000  0.20523
       5     O     4.30705  4.30705  0.00000 -0.61410
       6     H     0.40764  0.40764  0.00000  0.18473
       7     C     3.05168  3.05168  0.00000 -0.10335
       8     C     2.45801  2.45801  0.00000  1.08398
       9     H     0.40708  0.40708  0.00000  0.18584
      10     H     0.39459  0.39459  0.00000  0.21082
      11     F     4.68313  4.68313  0.00000 -0.36626
      12     F     4.67882  4.67882  0.00000 -0.35765
      13     F     4.67629  4.67629  0.00000 -0.35257

   Total alpha = 32.00000, Total beta = 32.00000, Total charge = -0.00000
