  ==> Input File <==

--------------------------------------------------------------------------
set {
	reference rhf
	basis 6-31G*
}

set_num_threads( 1 )
memory 2 gb

molecule MOL {
0 1

O	 2.862325	 1.357334	 0.000267
C	 2.843464	 0.164689	 -0.000222
C	 1.546494	 -0.624492	 -0.000609
C	 4.124123	 -0.644674	 -0.000428
C	 0.291004	 0.242674	 0.000989
H	 1.557904	 -1.283758	 -0.867573
H	 1.558622	 -1.285963	 0.864672
C	 -0.641384	 -0.073460	 -1.169683
H	 0.580802	 1.288238	 -0.029717
H	 -0.235511	 0.104642	 0.940072
C	 -1.903217	 0.791076	 -1.179062
H	 -0.106000	 0.063648	 -2.108092
H	 -0.926804	 -1.123846	 -1.133743
C	 -2.840907	 0.480900	 -2.347198
H	 -1.619106	 1.841294	 -1.215693
H	 -2.439679	 0.654159	 -0.241801
C	 -4.098945	 1.348665	 -2.349860
H	 -2.306117	 0.618567	 -3.284679
H	 -3.126807	 -0.568288	 -2.310788
H	 -3.847549	 2.403205	 -2.419825
H	 -4.743011	 1.105935	 -3.189480
H	 -4.674670	 1.207091	 -1.439562
H	 4.165367	 -1.288615	 -0.874074
H	 4.976217	 0.020734	 -0.001915
H	 4.166763	 -1.286207	 0.874930

	symmetry c1
}
set optking {
	frozen_dihedral = ("
		9 5 8 12,
		15 11 8 12,
		15 11 14 18,
		1 2 3 6
	")
}

ee = energy('scf')
oeprop('DIPOLE', 'QUADRUPOLE', 'MULLIKEN_CHARGES')
f=open( 'psi4out.xyz', 'w' )
f.write( "25  " )
f.write( str(ee) + "\n" )
f.write( MOL.save_string_xyz() )
f.close()
--------------------------------------------------------------------------

    Molecular point group: c1

    Geometry (in Angstrom), charge = 0, multiplicity = 1:

       Center              X                  Y                   Z               Mass
    ------------   -----------------  -----------------  -----------------  -----------------
           O          2.623832234629     1.010587919065     0.789483395898    15.994914619560
           C          2.604971234629    -0.182057080935     0.788994395898    12.000000000000
           C          1.308001234629    -0.971238080935     0.788607395898    12.000000000000
           C          3.885630234629    -0.991420080935     0.788788395898    12.000000000000
           C          0.052511234629    -0.104072080935     0.790205395898    12.000000000000
           H          1.319411234629    -1.630504080935    -0.078356604102     1.007825032070
           H          1.320129234629    -1.632709080935     1.653888395898     1.007825032070
           C         -0.879876765371    -0.420206080935    -0.380466604102    12.000000000000
           H          0.342309234629     0.941491919065     0.759499395898     1.007825032070
           H         -0.474003765371    -0.242104080935     1.729288395898     1.007825032070
           C         -2.141709765371     0.444329919065    -0.389845604102    12.000000000000
           H         -0.344492765371    -0.283098080935    -1.318875604102     1.007825032070
           H         -1.165296765371    -1.470592080935    -0.344526604102     1.007825032070
           C         -3.079399765371     0.134153919065    -1.557981604102    12.000000000000
           H         -1.857598765371     1.494547919065    -0.426476604102     1.007825032070
           H         -2.678171765371     0.307412919065     0.547415395898     1.007825032070
           C         -4.337437765371     1.001918919065    -1.560643604102    12.000000000000
           H         -2.544609765371     0.271820919065    -2.495462604102     1.007825032070
           H         -3.365299765371    -0.915034080935    -1.521571604102     1.007825032070
           H         -4.086041765371     2.056458919065    -1.630608604102     1.007825032070
           H         -4.981503765371     0.759188919065    -2.400263604102     1.007825032070
           H         -4.913162765371     0.860344919065    -0.650345604102     1.007825032070
           H          3.926874234629    -1.635361080935    -0.084857604102     1.007825032070
           H          4.737724234629    -0.326012080935     0.787301395898     1.007825032070
           H          3.928270234629    -1.632953080935     1.664146395898     1.007825032070

  Charge       = 0
  Multiplicity = 1
  Basis Set: 6-31G*
  Basis Set:

    Orbital Energies (a.u.)
    -----------------------

    Doubly Occupied:

       1A    -20.551423     2A    -11.327274     3A    -11.230375
       4A    -11.229090     5A    -11.215104     6A    -11.213864
       7A    -11.211969     8A    -11.211456     9A    -11.207138
      10A     -1.397257    11A     -1.091964    12A     -1.055306
      13A     -1.014253    14A     -0.968315    15A     -0.889262
      16A     -0.814146    17A     -0.789714    18A     -0.729803
      19A     -0.667691    20A     -0.643478    21A     -0.632399
      22A     -0.623238    23A     -0.593617    24A     -0.582826
      25A     -0.573428    26A     -0.558405    27A     -0.534377
      28A     -0.525135    29A     -0.513695    30A     -0.494842
      31A     -0.483313    32A     -0.470404    33A     -0.463099
      34A     -0.458940    35A     -0.444044    36A     -0.402180

  @DF-RHF Final Energy:  -387.13163772709373

   => Energetics <=

    Nuclear Repulsion Energy =            441.3906600483299485
    One-Electron Energy =               -1399.4188788847484375
    Two-Electron Energy =                 570.8965811093262346
    DFT Exchange-Correlation Energy =       0.0000000000000000
    Empirical Dispersion Energy =           0.0000000000000000
    PCM Polarization Energy =               0.0000000000000000
    EFP Energy =                            0.0000000000000000
    Total Energy =                       -387.1316377270923113

  Mulliken Charges: (a.u.)
   Center  Symbol    Alpha    Beta     Spin     Total
       1     O     4.26000  4.26000  0.00000 -0.51999
       2     C     2.73887  2.73887  0.00000  0.52226
       3     C     3.21479  3.21479  0.00000 -0.42958
       4     C     3.28695  3.28695  0.00000 -0.57391
       5     C     3.15806  3.15806  0.00000 -0.31612
       6     H     0.40703  0.40703  0.00000  0.18594
       7     H     0.40679  0.40679  0.00000  0.18642
       8     C     3.15614  3.15614  0.00000 -0.31229
       9     H     0.39213  0.39213  0.00000  0.21573
      10     H     0.42055  0.42055  0.00000  0.15890
      11     C     3.15156  3.15156  0.00000 -0.30313
      12     H     0.42258  0.42258  0.00000  0.15484
      13     H     0.42559  0.42559  0.00000  0.14882
      14     C     3.15147  3.15147  0.00000 -0.30295
      15     H     0.42083  0.42083  0.00000  0.15834
      16     H     0.42417  0.42417  0.00000  0.15165
      17     C     3.23928  3.23928  0.00000 -0.47855
      18     H     0.42304  0.42304  0.00000  0.15391
      19     H     0.42409  0.42409  0.00000  0.15181
      20     H     0.42105  0.42105  0.00000  0.15789
      21     H     0.41975  0.41975  0.00000  0.16050
      22     H     0.42201  0.42201  0.00000  0.15597
      23     H     0.40844  0.40844  0.00000  0.18313
      24     H     0.39637  0.39637  0.00000  0.20726
      25     H     0.40843  0.40843  0.00000  0.18314

   Total alpha = 36.00000, Total beta = 36.00000, Total charge =  0.00000
