  ==> Input File <==

--------------------------------------------------------------------------
set {
	reference rhf
	basis cc-pvtz
}

set_num_threads( 4 )
memory 2 gb

molecule MOL {
0 1

H	 1.266635	 -1.445807	 0.456901
C	 0.674785	 -0.535336	 0.567380
N	 -0.537714	 -0.645117	 0.000000
O	 1.097324	 0.422045	 1.134477
C	 -1.522613	 0.412524	 0.000000
H	 -0.757978	 -1.503997	 -0.440219
H	 -2.150256	 0.356137	 -0.880771
H	 -1.005621	 1.357208	 0.000000
H	 -2.150256	 0.356137	 0.880771

	symmetry c1
}
set optking {
	frozen_dihedral = ("
		6 3 5 7
	")
}

ee = optimize('scf')
oeprop('DIPOLE', 'QUADRUPOLE', 'MULLIKEN_CHARGES')
f=open( 'psi4out.xyz', 'w' )
f.write( "9  " )
f.write( str(ee) + "\n" )
f.write( MOL.save_string_xyz() )
f.close()
--------------------------------------------------------------------------

    Molecular point group: c1
  Charge       = 0
  Multiplicity = 1
  Basis Set: CC-PVTZ
  Basis Set:
  @DF-RHF Final Energy:  -208.04339123329027
    Total Energy =                       -208.0433912332903788
    Molecular point group: c1
  Basis Set: CC-PVTZ
  Basis Set:
  Basis Set: CC-PVTZ
  Basis Set:
  @DF-RHF Final Energy:  -208.04357646087723
    Total Energy =                       -208.0435764608773468
  Basis Set: CC-PVTZ
  Basis Set:
  Basis Set: CC-PVTZ
  Basis Set:
  @DF-RHF Final Energy:  -208.04359501714987
    Total Energy =                       -208.0435950171497268
  Basis Set: CC-PVTZ
  Basis Set:
  Basis Set: CC-PVTZ
  Basis Set:
  @DF-RHF Final Energy:  -208.04363146480642
    Total Energy =                       -208.0436314648063671
  Basis Set: CC-PVTZ
  Basis Set:
  Basis Set: CC-PVTZ
  Basis Set:
  @DF-RHF Final Energy:  -208.04365852401952
    Total Energy =                       -208.0436585240195200
  Basis Set: CC-PVTZ
  Basis Set:
  Basis Set: CC-PVTZ
  Basis Set:
  @DF-RHF Final Energy:  -208.04367443489809
    Total Energy =                       -208.0436744348980938
  Basis Set: CC-PVTZ
  Basis Set:
  Basis Set: CC-PVTZ
  Basis Set:
  @DF-RHF Final Energy:  -208.04367623275300
    Total Energy =                       -208.0436762327529721
  Basis Set: CC-PVTZ
  Basis Set:
  Charge       = 0
  Multiplicity = 1
  Basis Set: CC-PVTZ
  Basis Set:

    Orbital Energies (a.u.)
    -----------------------

    Doubly Occupied:

       1A    -20.516847     2A    -15.584590     3A    -11.336644
       4A    -11.260014     5A     -1.394138     6A     -1.239557
       7A     -0.969852     8A     -0.808716     9A     -0.748870
      10A     -0.646178    11A     -0.629881    12A     -0.596274
      13A     -0.557998    14A     -0.538791    15A     -0.428637
      16A     -0.396700

  @DF-RHF Final Energy:  -208.04367627059378

   => Energetics <=

    Nuclear Repulsion Energy =            122.8524587209263217
    One-Electron Energy =                -526.4848965596083872
    Two-Electron Energy =                 195.5887615680881595
    DFT Exchange-Correlation Energy =       0.0000000000000000
    Empirical Dispersion Energy =           0.0000000000000000
    PCM Polarization Energy =               0.0000000000000000
    EFP Energy =                            0.0000000000000000
    Total Energy =                       -208.0436762705938918
    Molecular point group: c1
  Basis Set: CC-PVTZ
  Basis Set:

  -Total Gradient:
     Atom            X                  Y                   Z
    ------   -----------------  -----------------  -----------------
       1        0.000001464919     0.000005080713     0.000003540217
       2       -0.000032425313    -0.000029154448    -0.000032508712
       3        0.000054299287     0.000028273072    -0.000066643212
       4        0.000019384687     0.000026004738     0.000022591777
       5       -0.000051589035    -0.000030378181     0.000048589077
       6       -0.000022054261    -0.000025795729     0.000052772360
       7        0.000030149467     0.000030989678    -0.000028254486
       8       -0.000002325047     0.000000125611     0.000000317464
       9        0.000003095298    -0.000005145453    -0.000000404485

  **** Optimization is complete! (in 8 steps) ****
    Final optimized geometry and variables:
    Molecular point group: c1

    Geometry (in Angstrom), charge = 0, multiplicity = 1:

    H            1.361844424259    -1.363895417751     0.037202192937
    C            0.756463075330    -0.462490282034     0.149947599122
    N           -0.423812321714    -0.548987675933    -0.484655720271
    O            1.138484891308     0.481570825532     0.765856878984
    C           -1.417086629837     0.500033470181    -0.427482517063
    H           -0.665124573932    -1.418385331242    -0.891289304542
    H           -2.090860549706     0.394928855237    -1.266019391599
    H           -0.929316317807     1.460180223625    -0.487475727007
    H           -1.990596052143     0.465099954501     0.491414850761

  Mulliken Charges: (a.u.)
   Center  Symbol    Alpha    Beta     Spin     Total
       1     H     0.46388  0.46388  0.00000  0.07223
       2     C     2.88034  2.88034  0.00000  0.23932
       3     N     3.60621  3.60621  0.00000 -0.21241
       4     O     4.21398  4.21398  0.00000 -0.42796
       5     C     3.07739  3.07739  0.00000 -0.15478
       6     H     0.41048  0.41048  0.00000  0.17904
       7     H     0.45394  0.45394  0.00000  0.09212
       8     H     0.43910  0.43910  0.00000  0.12180
       9     H     0.45468  0.45468  0.00000  0.09065

   Total alpha = 16.00000, Total beta = 16.00000, Total charge = -0.00000
