  ==> Input File <==

--------------------------------------------------------------------------
set {
	reference rhf
	basis cc-pvtz
}

set_num_threads( 4 )
memory 2 gb

molecule MOL {
0 1

H	 -2.498963	 -0.741158	 -0.729149
O	 -2.346257	 -0.289210	 0.080372
C	 -1.183935	 0.486039	 -0.009831
C	 0.062853	 -0.375310	 0.027457
H	 -1.178881	 1.094526	 -0.908634
H	 -1.184406	 1.155156	 0.838676
O	 1.172093	 0.457955	 -0.054438
H	 0.052476	 -1.081302	 -0.804627
H	 0.076323	 -0.955658	 0.947560
C	 2.229063	 0.098522	 0.773114
H	 2.601210	 -0.895163	 0.533592
H	 3.024749	 0.813459	 0.623330
H	 1.936480	 0.113282	 1.820348

	symmetry c1
}
set optking {
	frozen_dihedral = ("
		10 7 4 8
	")
}

ee = optimize('scf')
oeprop('DIPOLE', 'QUADRUPOLE', 'MULLIKEN_CHARGES')
f=open( 'psi4out.xyz', 'w' )
f.write( "13  " )
f.write( str(ee) + "\n" )
f.write( MOL.save_string_xyz() )
f.close()
--------------------------------------------------------------------------

    Molecular point group: c1
  Charge       = 0
  Multiplicity = 1
  Basis Set: CC-PVTZ
  Basis Set:
  @DF-RHF Final Energy:  -268.05976672161779
    Total Energy =                       -268.0597667216176774
    Molecular point group: c1
  Basis Set: CC-PVTZ
  Basis Set:
  Basis Set: CC-PVTZ
  Basis Set:
  @DF-RHF Final Energy:  -268.05992661503950
    Total Energy =                       -268.0599266150394442
  Basis Set: CC-PVTZ
  Basis Set:
  Basis Set: CC-PVTZ
  Basis Set:
  @DF-RHF Final Energy:  -268.05997197395936
    Total Energy =                       -268.0599719739594207
  Basis Set: CC-PVTZ
  Basis Set:
  Charge       = 0
  Multiplicity = 1
  Basis Set: CC-PVTZ
  Basis Set:

    Orbital Energies (a.u.)
    -----------------------

    Doubly Occupied:

       1A    -20.553873     2A    -20.552630     3A    -11.269007
       4A    -11.267918     5A    -11.266909     6A     -1.388712
       7A     -1.368634     8A     -1.018807     9A     -0.915983
      10A     -0.841297    11A     -0.710625    12A     -0.677076
      13A     -0.660174    14A     -0.635335    15A     -0.602505
      16A     -0.575881    17A     -0.536500    18A     -0.494259
      19A     -0.484490    20A     -0.449891    21A     -0.414188

  @DF-RHF Final Energy:  -268.05997268585315

   => Energetics <=

    Nuclear Repulsion Energy =            190.5424443142317728
    One-Electron Energy =                -743.8354429694156806
    Two-Electron Energy =                 285.2330259693307539
    DFT Exchange-Correlation Energy =       0.0000000000000000
    Empirical Dispersion Energy =           0.0000000000000000
    PCM Polarization Energy =               0.0000000000000000
    EFP Energy =                            0.0000000000000000
    Total Energy =                       -268.0599726858532108
    Molecular point group: c1
  Basis Set: CC-PVTZ
  Basis Set:

  -Total Gradient:
     Atom            X                  Y                   Z
    ------   -----------------  -----------------  -----------------
       1       -0.000015280511    -0.000004293899     0.000002973924
       2       -0.000042606294    -0.000040960350    -0.000003714839
       3       -0.000004055198    -0.000018961546    -0.000039248651
       4        0.001233263296    -0.001326439037     0.002140426932
       5        0.000009746099     0.000017829623     0.000008850825
       6        0.000034123908     0.000000854177     0.000000756896
       7        0.000636291465    -0.001196302295    -0.002219595964
       8       -0.001193358019     0.001483570478    -0.001211842737
       9       -0.000007454464    -0.000008501455     0.000009501629
      10       -0.000599304372     0.001078238664     0.001342189161
      11       -0.000028310396     0.000013009567    -0.000006720827
      12        0.000009250252     0.000003755438    -0.000001179230
      13       -0.000032305769    -0.000001799364    -0.000022397120

  **** Optimization is complete! (in 4 steps) ****
    Final optimized geometry and variables:
    Molecular point group: c1

    Geometry (in Angstrom), charge = 0, multiplicity = 1:

    H           -2.453474465467    -0.784313158640    -0.939301501507
    O           -2.324169522120    -0.345158119188    -0.118659519073
    C           -1.156528158988     0.426522164594    -0.161416097666
    C            0.088227176134    -0.439992268062    -0.102920890043
    H           -1.121393181063     1.049244687194    -1.049803534602
    H           -1.181430141719     1.083469825121     0.696756498116
    O            1.209718388398     0.382293420136    -0.204102619431
    H            0.071021622676    -1.147512916637    -0.930860727282
    H            0.089979326713    -1.006976675854     0.822564720821
    C            2.288018531910     0.041544715829     0.605675667170
    H            2.674129596503    -0.946635781016     0.366789875869
    H            3.069029712179     0.768007068203     0.434231489755
    H            2.016317860486     0.061073177404     1.657831360147

  Mulliken Charges: (a.u.)
   Center  Symbol    Alpha    Beta     Spin     Total
       1     H     0.39319  0.39319  0.00000  0.21362
       2     O     4.20302  4.20302  0.00000 -0.40605
       3     C     2.97212  2.97212  0.00000  0.05576
       4     C     2.96993  2.96993  0.00000  0.06013
       5     H     0.46674  0.46674  0.00000  0.06651
       6     H     0.45597  0.45597  0.00000  0.08807
       7     O     4.18019  4.18019  0.00000 -0.36038
       8     H     0.47160  0.47160  0.00000  0.05679
       9     H     0.46936  0.46936  0.00000  0.06128
      10     C     3.02954  3.02954  0.00000 -0.05908
      11     H     0.46959  0.46959  0.00000  0.06081
      12     H     0.44851  0.44851  0.00000  0.10298
      13     H     0.47023  0.47023  0.00000  0.05955

   Total alpha = 21.00000, Total beta = 21.00000, Total charge =  0.00000
