  ==> Input File <==

--------------------------------------------------------------------------
set {
	reference rhf
	basis 6-31G*
}

set_num_threads( 4 )
memory 2 gb

molecule MOL {
0 1

H	 2.400873	 2.982506	 -0.778873
O	 1.455676	 2.941182	 -0.817631
C	 1.006449	 1.734590	 -0.409314
C	 1.863229	 0.722166	 0.003274
C	 -0.361598	 1.525133	 -0.411609
H	 2.927554	 0.887233	 0.004300
C	 1.351980	 -0.497873	 0.412907
H	 -1.024499	 2.306304	 -0.730060
C	 -0.865228	 0.300799	 0.000000
H	 2.024894	 -1.273760	 0.730026
C	 -0.013884	 -0.715926	 0.413827
C	 -2.333960	 0.069074	 0.000000
H	 -0.413159	 -1.662816	 0.731608
O	 -2.847347	 -1.003763	 0.000000
H	 -2.943845	 0.977528	 0.000000

	symmetry c1
}
set optking {
	frozen_dihedral = ("
		11 9 12 14
	")
}

ee = optimize('scf')
oeprop('DIPOLE', 'QUADRUPOLE', 'MULLIKEN_CHARGES')
f=open( 'psi4out.xyz', 'w' )
f.write( "15  " )
f.write( str(ee) + "\n" )
f.write( MOL.save_string_xyz() )
f.close()
--------------------------------------------------------------------------

    Molecular point group: c1
  Charge       = 0
  Multiplicity = 1
  Basis Set: 6-31G*
  Basis Set:
  @DF-RHF Final Energy:  -418.28499917299666
    Total Energy =                       -418.2849991729968906
    Molecular point group: c1
  Basis Set: 6-31G*
  Basis Set:
  Basis Set: 6-31G*
  Basis Set:
  @DF-RHF Final Energy:  -418.28409292535446
    Total Energy =                       -418.2840929253549120
  Basis Set: 6-31G*
  Basis Set:
  Basis Set: 6-31G*
  Basis Set:
  @DF-RHF Final Energy:  -418.28518412967156
    Total Energy =                       -418.2851841296721886
  Basis Set: 6-31G*
  Basis Set:
  Basis Set: 6-31G*
  Basis Set:
  @DF-RHF Final Energy:  -418.28534448970078
    Total Energy =                       -418.2853444897007194
  Basis Set: 6-31G*
  Basis Set:
  Basis Set: 6-31G*
  Basis Set:
  @DF-RHF Final Energy:  -418.28534797987834
    Total Energy =                       -418.2853479798781109
  Basis Set: 6-31G*
  Basis Set:
  Charge       = 0
  Multiplicity = 1
  Basis Set: 6-31G*
  Basis Set:

    Orbital Energies (a.u.)
    -----------------------

    Doubly Occupied:

       1A    -20.604606     2A    -20.565528     3A    -11.332980
       4A    -11.314654     5A    -11.252669     6A    -11.251098
       7A    -11.248472     8A    -11.246552     9A    -11.239238
      10A     -1.423951    11A     -1.405839    12A     -1.169334
      13A     -1.050757    14A     -1.024599    15A     -0.901313
      16A     -0.845788    17A     -0.813669    18A     -0.737906
      19A     -0.701235    20A     -0.673569    21A     -0.662176
      22A     -0.628163    23A     -0.611361    24A     -0.603919
      25A     -0.578246    26A     -0.547884    27A     -0.538154
      28A     -0.516089    29A     -0.485971    30A     -0.423679
      31A     -0.355789    32A     -0.324453

  @DF-RHF Final Energy:  -418.28534898579539

   => Energetics <=

    Nuclear Repulsion Energy =            402.2731603951442594
    One-Electron Energy =               -1366.9577392331830197
    Two-Electron Energy =                 546.3992298522430247
    DFT Exchange-Correlation Energy =       0.0000000000000000
    Empirical Dispersion Energy =           0.0000000000000000
    PCM Polarization Energy =               0.0000000000000000
    EFP Energy =                            0.0000000000000000
    Total Energy =                       -418.2853489857957356
    Molecular point group: c1
  Basis Set: 6-31G*
  Basis Set:

  -Total Gradient:
     Atom            X                  Y                   Z
    ------   -----------------  -----------------  -----------------
       1        0.000001525764     0.000002324926    -0.000003080774
       2        0.000005288091    -0.000025818960    -0.000001149334
       3       -0.000058381465     0.000044419315     0.000018414668
       4        0.000007597984    -0.000043495978     0.000011866243
       5        0.000010194842     0.000027470734    -0.000021715592
       6       -0.000002352604    -0.000002642062     0.000004424788
       7        0.000038128230     0.000033310447    -0.000039444944
       8        0.000016345745    -0.000004226621     0.000010723021
       9        0.000156032888    -0.001717239005    -0.005902524862
      10       -0.000002208585    -0.000004318566     0.000003248418
      11       -0.000150435174     0.001151852728     0.002865205540
      12       -0.000020468090     0.000613228227     0.006808588556
      13       -0.000010228899    -0.000011300442     0.000017967759
      14       -0.000022122222    -0.000065495837    -0.003768629269
      15        0.000031083490     0.000001931096    -0.000003894217

  **** Optimization is complete! (in 6 steps) ****
    Final optimized geometry and variables:
    Molecular point group: c1

    Geometry (in Angstrom), charge = 0, multiplicity = 1:

    H            2.485421830307     2.395723208776    -0.682162208432
    O            1.540181216855     2.347447388710    -0.714440130247
    C            1.104645388569     1.135142268966    -0.306100792006
    C            1.961078671457     0.128612923960     0.104867213037
    C           -0.266465425617     0.918526767831    -0.298877599933
    H            3.024957865063     0.296363760662     0.109935286162
    C            1.448749888873    -1.095462011494     0.517003985549
    H           -0.919342725897     1.715578459840    -0.606520475863
    C           -0.766355546884    -0.311088195791     0.091326648099
    H            2.125164244422    -1.865198813511     0.841803095076
    C            0.088838642862    -1.325278717701     0.513436292575
    C           -2.239170211187    -0.519744498707     0.108290499301
    H           -0.319967793668    -2.267804212967     0.823441079085
    O           -2.763132038813    -1.587358554830     0.132019294754
    H           -2.838932331068     0.394046482764     0.065599628795

  Mulliken Charges: (a.u.)
   Center  Symbol    Alpha    Beta     Spin     Total
       1     H     0.27010  0.27010  0.00000  0.45981
       2     O     4.37739  4.37739  0.00000 -0.75477
       3     C     2.79522  2.79522  0.00000  0.40956
       4     C     3.13593  3.13593  0.00000 -0.27186
       5     C     3.12818  3.12818  0.00000 -0.25636
       6     H     0.39925  0.39925  0.00000  0.20151
       7     C     3.09446  3.09446  0.00000 -0.18891
       8     H     0.38485  0.38485  0.00000  0.23030
       9     C     3.03999  3.03999  0.00000 -0.07999
      10     H     0.39257  0.39257  0.00000  0.21486
      11     C     3.10255  3.10255  0.00000 -0.20511
      12     C     2.83542  2.83542  0.00000  0.32917
      13     H     0.37977  0.37977  0.00000  0.24046
      14     O     4.24350  4.24350  0.00000 -0.48699
      15     H     0.42083  0.42083  0.00000  0.15834

   Total alpha = 32.00000, Total beta = 32.00000, Total charge = -0.00000
