  ==> Input File <==

--------------------------------------------------------------------------
set {
	reference rhf
	basis 6-31G*
}

set_num_threads( 1 )
memory 2 gb

molecule MOL {
0 1

H	 2.465338	 -2.224223	 0.000000
O	 2.784187	 -1.332015	 0.000000
C	 1.765313	 -0.449364	 0.000000
C	 2.079711	 0.888926	 0.214656
C	 0.452509	 -0.828613	 -0.202112
H	 3.107502	 1.158389	 0.369230
C	 1.080759	 1.840256	 0.226109
H	 0.181782	 -1.852385	 -0.369809
C	 -0.525603	 0.152610	 -0.184269
H	 1.332410	 2.871189	 0.392558
C	 -0.246235	 1.484343	 0.025469
N	 -1.912770	 -0.253974	 -0.398609
H	 -1.032113	 2.210817	 0.031555
O	 -2.128571	 -1.414666	 -0.578213
O	 -2.748474	 0.596660	 -0.381729

	symmetry c1
}
set optking {
	frozen_dihedral = ("
		11 9 12 14
	")
}

ee = energy('scf')
oeprop('DIPOLE', 'QUADRUPOLE', 'MULLIKEN_CHARGES')
f=open( 'psi4out.xyz', 'w' )
f.write( "15  " )
f.write( str(ee) + "\n" )
f.write( MOL.save_string_xyz() )
f.close()
--------------------------------------------------------------------------

    Molecular point group: c1

    Geometry (in Angstrom), charge = 0, multiplicity = 1:

       Center              X                  Y                   Z               Mass
    ------------   -----------------  -----------------  -----------------  -----------------
           H          2.457281992826    -2.233521885756     0.140626392722     1.007825032070
           O          2.776130992826    -1.341313885756     0.140626392722    15.994914619560
           C          1.757256992826    -0.458662885756     0.140626392722    12.000000000000
           C          2.071654992826     0.879627114244     0.355282392722    12.000000000000
           C          0.444452992826    -0.837911885756    -0.061485607278    12.000000000000
           H          3.099445992826     1.149090114244     0.509856392722     1.007825032070
           C          1.072702992826     1.830957114244     0.366735392722    12.000000000000
           H          0.173725992826    -1.861683885756    -0.229182607278     1.007825032070
           C         -0.533659007174     0.143311114244    -0.043642607278    12.000000000000
           H          1.324353992826     2.861890114244     0.533184392722     1.007825032070
           C         -0.254291007174     1.475044114244     0.166095392722    12.000000000000
           N         -1.920826007174    -0.263272885756    -0.257982607278    14.003074004780
           H         -1.040169007174     2.201518114244     0.172181392722     1.007825032070
           O         -2.136627007174    -1.423964885756    -0.437586607278    15.994914619560
           O         -2.756530007174     0.587361114244    -0.241102607278    15.994914619560

  Charge       = 0
  Multiplicity = 1
  Basis Set: 6-31G*
  Basis Set:

    Orbital Energies (a.u.)
    -----------------------

    Doubly Occupied:

       1A    -20.615362     2A    -20.605168     3A    -20.604572
       4A    -15.859531     5A    -11.330283     6A    -11.311111
       7A    -11.267276     8A    -11.266758     9A    -11.263814
      10A    -11.260855    11A     -1.638314    12A     -1.436197
      13A     -1.421586    14A     -1.200514    15A     -1.094988
      16A     -1.046434    17A     -0.966134    18A     -0.878475
      19A     -0.828654    20A     -0.791203    21A     -0.751732
      22A     -0.737225    23A     -0.724059    24A     -0.707848
      25A     -0.673322    26A     -0.635273    27A     -0.617812
      28A     -0.592214    29A     -0.558544    30A     -0.544793
      31A     -0.515226    32A     -0.492181    33A     -0.490100
      34A     -0.454986    35A     -0.377412    36A     -0.343284

  @DF-RHF Final Energy:  -509.02761189494794

   => Energetics <=

    Nuclear Repulsion Energy =            503.4752967668891301
    One-Electron Energy =               -1693.1997599121737039
    Two-Electron Energy =                 680.6968512503367492
    DFT Exchange-Correlation Energy =       0.0000000000000000
    Empirical Dispersion Energy =           0.0000000000000000
    PCM Polarization Energy =               0.0000000000000000
    EFP Energy =                            0.0000000000000000
    Total Energy =                       -509.0276118949477677

  Mulliken Charges: (a.u.)
   Center  Symbol    Alpha    Beta     Spin     Total
       1     H     0.26732  0.26732  0.00000  0.46536
       2     O     4.37594  4.37594  0.00000 -0.75189
       3     C     2.79210  2.79210  0.00000  0.41580
       4     C     3.10829  3.10829  0.00000 -0.21658
       5     C     3.13652  3.13652  0.00000 -0.27304
       6     H     0.38088  0.38088  0.00000  0.23824
       7     C     3.10072  3.10072  0.00000 -0.20144
       8     H     0.36768  0.36768  0.00000  0.26464
       9     C     2.91380  2.91380  0.00000  0.17241
      10     H     0.38660  0.38660  0.00000  0.22681
      11     C     3.09761  3.09761  0.00000 -0.19523
      12     N     3.24018  3.24018  0.00000  0.51965
      13     H     0.36516  0.36516  0.00000  0.26968
      14     O     4.23551  4.23551  0.00000 -0.47101
      15     O     4.23169  4.23169  0.00000 -0.46338

   Total alpha = 36.00000, Total beta = 36.00000, Total charge =  0.00000
