  ==> Input File <==

--------------------------------------------------------------------------
set {
	reference rhf
	basis cc-pvtz
}

set_num_threads( 4 )
memory 2 gb

molecule MOL {
0 1

H	 -3.034039	 -0.667848	 0.004703
O	 -2.240597	 -1.171748	 0.000934
C	 -1.159675	 -0.364500	 0.000370
C	 0.038251	 -0.731121	 0.579142
C	 -1.291513	 0.872426	 -0.611747
H	 0.142058	 -1.688699	 1.055929
C	 1.101966	 0.153861	 0.539821
H	 -2.236815	 1.127593	 -1.050188
C	 -0.229050	 1.752723	 -0.652115
H	 2.034675	 -0.126599	 0.991669
C	 0.977702	 1.383623	 -0.066025
C	 -0.365194	 3.088328	 -1.338603
H	 1.811786	 2.059192	 -0.085355
H	 0.090321	 3.875691	 -0.750906
H	 -1.403476	 3.344363	 -1.500352
H	 0.128469	 3.073476	 -2.304378

	symmetry c1
}
set optking {
	frozen_dihedral = ("
		5 3 2 1
	")
}

ee = optimize('scf')
oeprop('DIPOLE', 'QUADRUPOLE', 'MULLIKEN_CHARGES')
f=open( 'psi4out.xyz', 'w' )
f.write( "16  " )
f.write( str(ee) + "\n" )
f.write( MOL.save_string_xyz() )
f.close()
--------------------------------------------------------------------------

    Molecular point group: c1
  Charge       = 0
  Multiplicity = 1
  Basis Set: CC-PVTZ
  Basis Set:
  @DF-RHF Final Energy:  -344.71772725098617
    Total Energy =                       -344.7177272509866839
    Molecular point group: c1
  Basis Set: CC-PVTZ
  Basis Set:
  Basis Set: CC-PVTZ
  Basis Set:
  @DF-RHF Final Energy:  -344.71935415883132
    Total Energy =                       -344.7193541588311518
  Basis Set: CC-PVTZ
  Basis Set:
  Basis Set: CC-PVTZ
  Basis Set:
  @DF-RHF Final Energy:  -344.71947798654230
    Total Energy =                       -344.7194779865421310
  Basis Set: CC-PVTZ
  Basis Set:
  Basis Set: CC-PVTZ
  Basis Set:
  @DF-RHF Final Energy:  -344.71949269531399
    Total Energy =                       -344.7194926953140452
  Basis Set: CC-PVTZ
  Basis Set:
  @DF-RHF Final Energy:  -344.71949729286575
    Total Energy =                       -344.7194972928657535
  @DF-RHF Final Energy:  -344.71949871471952
    Total Energy =                       -344.7194987147196343
  @DF-RHF Final Energy:  -344.71950128695306
    Total Energy =                       -344.7195012869529478
  @DF-RHF Final Energy:  -344.71906773667092
    Total Energy =                       -344.7190677366708087
  @DF-RHF Final Energy:  -344.69426000334340
    Total Energy =                       -344.6942600033433450
  @DF-RHF Final Energy:  -344.71858758192673
    Total Energy =                       -344.7185875819268972
  @DF-RHF Final Energy:  -344.71948896450220
    Total Energy =                       -344.7194889645022613
  @DF-RHF Final Energy:  -344.71953911076150
    Total Energy =                       -344.7195391107612181
  @DF-RHF Final Energy:  -344.71955856524301
    Total Energy =                       -344.7195585652431760
  @DF-RHF Final Energy:  -344.71957158992143
    Total Energy =                       -344.7195715899214292
  @DF-RHF Final Energy:  -344.71959219674960
    Total Energy =                       -344.7195921967500567
  Basis Set: CC-PVTZ
  Basis Set:
  @DF-RHF Final Energy:  -344.71959826616575
    Total Energy =                       -344.7195982661657467
  Basis Set: CC-PVTZ
  Basis Set:
  Basis Set: CC-PVTZ
  Basis Set:
  @DF-RHF Final Energy:  -344.71959988208613
    Total Energy =                       -344.7195998820860723
  Basis Set: CC-PVTZ
  Basis Set:
  Basis Set: CC-PVTZ
  Basis Set:
  @DF-RHF Final Energy:  -344.71960099422381
    Total Energy =                       -344.7196009942242654
  Basis Set: CC-PVTZ
  Basis Set:
  Charge       = 0
  Multiplicity = 1
  Basis Set: CC-PVTZ
  Basis Set:

    Orbital Energies (a.u.)
    -----------------------

    Doubly Occupied:

       1A    -20.579898     2A    -11.293498     3A    -11.241924
       4A    -11.230863     5A    -11.221597     6A    -11.219084
       7A    -11.215659     8A    -11.214460     9A     -1.409684
      10A     -1.154607    11A     -1.047586    12A     -1.006837
      13A     -0.940675    14A     -0.843141    15A     -0.803157
      16A     -0.731338    17A     -0.683273    18A     -0.652099
      19A     -0.610419    20A     -0.596514    21A     -0.579552
      22A     -0.570004    23A     -0.565241    24A     -0.533564
      25A     -0.506630    26A     -0.484907    27A     -0.471870
      28A     -0.333444    29A     -0.313337

  @DF-RHF Final Energy:  -344.71960130789699

   => Energetics <=

    Nuclear Repulsion Energy =            346.3047865137060057
    One-Electron Energy =               -1153.9390581222555738
    Two-Electron Energy =                 462.9146703006530288
    DFT Exchange-Correlation Energy =       0.0000000000000000
    Empirical Dispersion Energy =           0.0000000000000000
    PCM Polarization Energy =               0.0000000000000000
    EFP Energy =                            0.0000000000000000
    Total Energy =                       -344.7196013078965962
    Molecular point group: c1
  Basis Set: CC-PVTZ
  Basis Set:

  -Total Gradient:
     Atom            X                  Y                   Z
    ------   -----------------  -----------------  -----------------
       1       -0.000131234282     0.000095346956     0.002417371667
       2        0.000650114913    -0.000535380937    -0.003898167442
       3       -0.001293477201     0.001316441985     0.003174226018
       4        0.000114043965    -0.000050369636    -0.000080996620
       5        0.000675574896    -0.000888597179    -0.001593137743
       6       -0.000031097641    -0.000033071777    -0.000018385518
       7       -0.000058251416    -0.000066721843     0.000073856179
       8        0.000053571042     0.000007856933     0.000016444422
       9        0.000086117548     0.000011032590     0.000051537413
      10       -0.000016167532     0.000000805974    -0.000012013137
      11       -0.000051589202     0.000066123912    -0.000106131830
      12        0.000017295548     0.000034956955     0.000023267245
      13       -0.000021734180     0.000020894766    -0.000013563816
      14       -0.000002041072     0.000008737466    -0.000013805789
      15        0.000003054753     0.000007327070    -0.000010574457
      16        0.000005819861     0.000004616763    -0.000009926592

  **** Optimization is complete! (in 19 steps) ****
    Final optimized geometry and variables:
    Molecular point group: c1

    Geometry (in Angstrom), charge = 0, multiplicity = 1:

    H           -2.539108714316    -1.468819251553     0.048614944784
    O           -1.701103584710    -1.888136813838     0.123725040795
    C           -0.705862559234    -0.971501533985     0.163614181051
    C            0.461552095485    -1.315529960388     0.824731860571
    C           -0.812210160899     0.247281030169    -0.474368337671
    H            0.530481251965    -2.270648102029     1.306412844556
    C            1.504953485743    -0.418420067157     0.844110759469
    H           -1.716876295582     0.489062503812    -1.003932146860
    C            0.236670920105     1.157836630151    -0.444538055518
    H            2.413141941494    -0.677552310707     1.354719777828
    C            1.399136033475     0.813855489135     0.219149032213
    C            0.093457404709     2.492424917358    -1.131957898579
    H            2.223359866115     1.500392568924     0.248784039653
    H            1.024790045995     3.041709914780    -1.117799752695
    H           -0.660347954900     3.100114082988    -0.643590166340
    H           -0.207159507127     2.367380629443    -2.165645131418

  Mulliken Charges: (a.u.)
   Center  Symbol    Alpha    Beta     Spin     Total
       1     H     0.38609  0.38609  0.00000  0.22781
       2     O     4.17960  4.17960  0.00000 -0.35920
       3     C     2.84613  2.84613  0.00000  0.30773
       4     C     3.12347  3.12347  0.00000 -0.24695
       5     C     3.14964  3.14964  0.00000 -0.29928
       6     H     0.41868  0.41868  0.00000  0.16265
       7     C     3.04899  3.04899  0.00000 -0.09798
       8     H     0.43328  0.43328  0.00000  0.13345
       9     C     2.94661  2.94661  0.00000  0.10678
      10     H     0.42312  0.42312  0.00000  0.15375
      11     C     3.12347  3.12347  0.00000 -0.24693
      12     C     3.14899  3.14899  0.00000 -0.29799
      13     H     0.42657  0.42657  0.00000  0.14687
      14     H     0.44976  0.44976  0.00000  0.10048
      15     H     0.44762  0.44762  0.00000  0.10477
      16     H     0.44798  0.44798  0.00000  0.10404

   Total alpha = 29.00000, Total beta = 29.00000, Total charge =  0.00000
