  ==> Input File <==

--------------------------------------------------------------------------
set {
	reference rhf
	basis 6-31G*
}

set_num_threads( 4 )
memory 2 gb

molecule MOL {
0 1

H	 1.444139	 3.742382	 -2.233475
N	 0.679586	 3.098091	 -2.295878
C	 0.648548	 2.220172	 -1.134921
H	 0.816909	 2.566414	 -3.134503
C	 -0.571570	 1.306641	 -1.185198
H	 0.591418	 2.846267	 -0.249709
H	 1.551629	 1.613433	 -1.031426
C	 -0.679275	 0.379305	 0.025956
H	 -1.460535	 1.925769	 -1.264287
H	 -0.530695	 0.708099	 -2.094820
C	 -1.903357	 -0.536963	 -0.023547
H	 -0.717172	 0.976809	 0.935573
H	 0.220235	 -0.230042	 0.099599
C	 -3.225172	 0.228290	 0.028445
H	 -1.867824	 -1.134999	 -0.931459
H	 -1.860449	 -1.239604	 0.805977
H	 -3.313397	 0.915643	 -0.808262
H	 -4.073500	 -0.448134	 -0.008893
H	 -3.306061	 0.809945	 0.942516

	symmetry c1
}
set optking {
	frozen_dihedral = ("
		12 8 11 15
	")
}

ee = optimize('scf')
oeprop('DIPOLE', 'QUADRUPOLE', 'MULLIKEN_CHARGES')
f=open( 'psi4out.xyz', 'w' )
f.write( "19  " )
f.write( str(ee) + "\n" )
f.write( MOL.save_string_xyz() )
f.close()
--------------------------------------------------------------------------

    Molecular point group: c1
  Charge       = 0
  Multiplicity = 1
  Basis Set: 6-31G*
  Basis Set:
  @DF-RHF Final Energy:  -251.34963001260044
    Total Energy =                       -251.3496300126004712
    Molecular point group: c1
  Basis Set: 6-31G*
  Basis Set:
  Basis Set: 6-31G*
  Basis Set:
  @DF-RHF Final Energy:  -251.34987203989576
    Total Energy =                       -251.3498720398957857
  Basis Set: 6-31G*
  Basis Set:
  Basis Set: 6-31G*
  Basis Set:
  @DF-RHF Final Energy:  -251.35019447398318
    Total Energy =                       -251.3501944739831515
  Basis Set: 6-31G*
  Basis Set:
  Basis Set: 6-31G*
  Basis Set:
  @DF-RHF Final Energy:  -251.35020752031815
    Total Energy =                       -251.3502075203181789
  Basis Set: 6-31G*
  Basis Set:
  Basis Set: 6-31G*
  Basis Set:
  @DF-RHF Final Energy:  -251.35020957831421
    Total Energy =                       -251.3502095783143773
  Basis Set: 6-31G*
  Basis Set:
  Charge       = 0
  Multiplicity = 1
  Basis Set: 6-31G*
  Basis Set:

    Orbital Energies (a.u.)
    -----------------------

    Doubly Occupied:

       1A    -15.532511     2A    -11.239753     3A    -11.214248
       4A    -11.212935     5A    -11.209041     6A    -11.205954
       7A     -1.176607     8A     -1.072245     9A     -0.994967
      10A     -0.903291    11A     -0.822122    12A     -0.777575
      13A     -0.662949    14A     -0.640588    15A     -0.603796
      16A     -0.595786    17A     -0.587285    18A     -0.536571
      19A     -0.518617    20A     -0.509344    21A     -0.485206
      22A     -0.460553    23A     -0.455640    24A     -0.449771
      25A     -0.381141

  @DF-RHF Final Energy:  -251.35020962981602

   => Energetics <=

    Nuclear Repulsion Energy =            248.7787106670023434
    One-Electron Energy =                -831.7608489059560952
    Two-Electron Energy =                 331.6319286091376739
    DFT Exchange-Correlation Energy =       0.0000000000000000
    Empirical Dispersion Energy =           0.0000000000000000
    PCM Polarization Energy =               0.0000000000000000
    EFP Energy =                            0.0000000000000000
    Total Energy =                       -251.3502096298161064
    Molecular point group: c1
  Basis Set: 6-31G*
  Basis Set:

  -Total Gradient:
     Atom            X                  Y                   Z
    ------   -----------------  -----------------  -----------------
       1        0.000002440122     0.000003766365    -0.000004359037
       2        0.000003883141     0.000002600895    -0.000004763669
       3       -0.000007209195     0.000001887705     0.000008588985
       4        0.000000476220     0.000001640316    -0.000004620089
       5       -0.000000538038    -0.000005902684    -0.000003970749
       6        0.000001745364    -0.000000866383     0.000003941032
       7       -0.000001640772    -0.000001166765     0.000001466269
       8        0.000025973403    -0.000042915284     0.000042690234
       9        0.000003161109    -0.000001692986     0.000003612885
      10        0.000001703879     0.000000268646    -0.000002981721
      11        0.000037068963    -0.000052151093     0.000025134395
      12       -0.000032788837     0.000050165008    -0.000033991369
      13       -0.000007706810    -0.000005576511    -0.000002478047
      14        0.000005606199     0.000002705610     0.000005059845
      15       -0.000036778884     0.000046267539    -0.000035357966
      16       -0.000001806926     0.000006545721     0.000000210396
      17        0.000003547178    -0.000002475599    -0.000001106597
      18        0.000003727584    -0.000004685160     0.000000997272
      19       -0.000000863699     0.000001584661     0.000001927930

  **** Optimization is complete! (in 6 steps) ****
    Final optimized geometry and variables:
    Molecular point group: c1

    Geometry (in Angstrom), charge = 0, multiplicity = 1:

    H            2.349720017239     2.564232921586    -1.443521795368
    N            1.557544464174     1.954026448986    -1.504043130181
    C            1.504136469837     1.062182438259    -0.354514771096
    H            1.661119383955     1.428609236439    -2.351451992467
    C            0.245127176441     0.202155774154    -0.400306162322
    H            1.485264468858     1.677793872913     0.539764448008
    H            2.381799404425     0.416414853886    -0.271499410579
    C            0.118084670495    -0.728360660064     0.808200803687
    H           -0.611132673613     0.864013347111    -0.472182899434
    H            0.254450870520    -0.393777061184    -1.312954180239
    C           -1.086433456645    -1.675388363520     0.758974906809
    H            0.065901613091    -0.132055092951     1.717993936097
    H            1.023422574627    -1.326905163239     0.889198570321
    C           -2.445236378628    -0.976816754447     0.833439405652
    H           -1.036702617169    -2.272541979413    -0.149347790095
    H           -1.008251319556    -2.375840026273     1.586871926428
    H           -2.618949836327    -0.334371570605    -0.023158572748
    H           -3.250893105506    -1.704034761412     0.864076513813
    H           -2.520025928924    -0.363907413140     1.727723933290

  Mulliken Charges: (a.u.)
   Center  Symbol    Alpha    Beta     Spin     Total
       1     H     0.33250  0.33250  0.00000  0.33500
       2     N     3.92195  3.92195  0.00000 -0.84390
       3     C     3.05977  3.05977  0.00000 -0.11954
       4     H     0.33537  0.33537  0.00000  0.32926
       5     C     3.15385  3.15385  0.00000 -0.30770
       6     H     0.42086  0.42086  0.00000  0.15829
       7     H     0.43479  0.43479  0.00000  0.13041
       8     C     3.15653  3.15653  0.00000 -0.31306
       9     H     0.41075  0.41075  0.00000  0.17849
      10     H     0.42823  0.42823  0.00000  0.14354
      11     C     3.15172  3.15172  0.00000 -0.30343
      12     H     0.42372  0.42372  0.00000  0.15256
      13     H     0.42322  0.42322  0.00000  0.15356
      14     C     3.24126  3.24126  0.00000 -0.48251
      15     H     0.42364  0.42364  0.00000  0.15271
      16     H     0.42143  0.42143  0.00000  0.15715
      17     H     0.41843  0.41843  0.00000  0.16315
      18     H     0.41980  0.41980  0.00000  0.16040
      19     H     0.42218  0.42218  0.00000  0.15564

   Total alpha = 25.00000, Total beta = 25.00000, Total charge =  0.00000
