                              Psi4 1.0.54 Driver

  ==> Input File <==

--------------------------------------------------------------------------
set {
	reference rhf
	basis cc-pvtz
}

set_num_threads( 4 )
memory 2 gb

molecule MOL {
0 1

H	 -0.119626	 4.007994	 -2.192538
C	 0.854485	 4.311021	 -1.784901
C	 0.992018	 4.160605	 -0.294146
O	 1.693632	 4.727432	 -2.505833
C	 0.609284	 2.761795	 0.198318
H	 2.004924	 4.419070	 -0.013877
H	 0.323929	 4.892536	 0.154451
C	 1.569902	 1.666667	 -0.260039
H	 0.572149	 2.778155	 1.282150
H	 -0.398691	 2.526421	 -0.134518
C	 1.181757	 0.280428	 0.247371
H	 2.572865	 1.908984	 0.081218
H	 1.618286	 1.650225	 -1.345772
C	 2.151032	 -0.811012	 -0.202643
H	 1.126848	 0.305382	 1.331211
H	 0.181490	 0.036922	 -0.104010
C	 3.580021	 -0.656538	 0.320835
H	 2.170545	 -0.847575	 -1.289412
H	 1.766632	 -1.772905	 0.124928
C	 4.327657	 0.562694	 -0.213579
H	 4.138806	 -1.549270	 0.057813
H	 3.561991	 -0.620783	 1.406976
H	 4.355973	 0.557257	 -1.298551
H	 3.867136	 1.491650	 0.100501
H	 5.351524	 0.571613	 0.142204

	symmetry c1
}
set optking {
	frozen_dihedral = ("
		8 11 14 18
	")
}

ee,wfn = optimize('scf', return_wfn=True)
oeprop( wfn, 'DIPOLE', 'QUADRUPOLE', 'MULLIKEN_CHARGES')
f=open( 'psi4out.xyz', 'w' )
f.write( "25  " )
f.write( str(ee) + "\n" )
f.write( MOL.save_string_xyz() )
f.close()
--------------------------------------------------------------------------

    Molecular point group: c1
  Charge       = 0
  Multiplicity = 1
  Basis Set: CC-PVTZ
  Basis Set:
  @DF-RHF Final Energy:  -387.23697273265844
    Total Energy =                       -387.2369727326583870
    Molecular point group: c1
  Basis Set: CC-PVTZ
  Basis Set:
  Basis Set: CC-PVTZ
  Basis Set:
  @DF-RHF Final Energy:  -387.25107947574986
    Total Energy =                       -387.2510794757498616
  Basis Set: CC-PVTZ
  Basis Set:
  Basis Set: CC-PVTZ
  Basis Set:
  @DF-RHF Final Energy:  -387.25398429668923
    Total Energy =                       -387.2539842966890546
  Basis Set: CC-PVTZ
  Basis Set:
  Basis Set: CC-PVTZ
  Basis Set:
  @DF-RHF Final Energy:  -387.25492371315124
    Total Energy =                       -387.2549237131510154
  Basis Set: CC-PVTZ
  Basis Set:
  @DF-RHF Final Energy:  -387.25144866689214
    Total Energy =                       -387.2514486668919744
  @DF-RHF Final Energy:  -387.25545803023016
    Total Energy =                       -387.2554580302301019
  @DF-RHF Final Energy:  -387.25567389627150
    Total Energy =                       -387.2556738962714462
  @DF-RHF Final Energy:  -387.25571266265160
    Total Energy =                       -387.2557126626516038
  @DF-RHF Final Energy:  -387.25571849261979
    Total Energy =                       -387.2557184926197351
  Basis Set: CC-PVTZ
  Basis Set:
  @DF-RHF Final Energy:  -387.25572179626096
    Total Energy =                       -387.2557217962610139
  Basis Set: CC-PVTZ
  Basis Set:
  Basis Set: CC-PVTZ
  Basis Set:
  @DF-RHF Final Energy:  -387.25572850005921
    Total Energy =                       -387.2557285000592628
  Basis Set: CC-PVTZ
  Basis Set:
  Basis Set: CC-PVTZ
  Basis Set:
  @DF-RHF Final Energy:  -387.25572964199597
    Total Energy =                       -387.2557296419955719
  Basis Set: CC-PVTZ
  Basis Set:
  Charge       = 0
  Multiplicity = 1
  Basis Set: CC-PVTZ
  Basis Set:

    Orbital Energies (a.u.)
    -----------------------

    Doubly Occupied:

       1A    -20.551567     2A    -11.321138     3A    -11.233927
       4A    -11.232933     5A    -11.221403     6A    -11.218736
       7A    -11.215670     8A    -11.215071     9A    -11.206207
      10A     -1.406561    11A     -1.104935    12A     -1.068268
      13A     -1.012152    14A     -0.947542    15A     -0.872539
      16A     -0.824074    17A     -0.789195    18A     -0.779415
      19A     -0.668826    20A     -0.661338    21A     -0.629364
      22A     -0.625561    23A     -0.609983    24A     -0.593933
      25A     -0.570940    26A     -0.557942    27A     -0.533723
      28A     -0.523036    29A     -0.519734    30A     -0.493693
      31A     -0.489603    32A     -0.483957    33A     -0.464042
      34A     -0.450425    35A     -0.442561    36A     -0.412000

  @DF-RHF Final Energy:  -387.25572993520626

   => Energetics <=

    Nuclear Repulsion Energy =            449.5098045547877632
    One-Electron Energy =               -1415.6270757710062753
    Two-Electron Energy =                 578.8615412810122507
    DFT Exchange-Correlation Energy =       0.0000000000000000
    Empirical Dispersion Energy =           0.0000000000000000
    PCM Polarization Energy =               0.0000000000000000
    EFP Energy =                            0.0000000000000000
    Total Energy =                       -387.2557299352063183
    Molecular point group: c1
  Basis Set: CC-PVTZ
  Basis Set:

  -Total Gradient:
     Atom            X                  Y                   Z
    ------   -----------------  -----------------  -----------------
       1        0.000002722734     0.000000705312     0.000019135726
       2       -0.000005313263    -0.000012316183     0.000000495536
       3        0.000002297764     0.000010836145    -0.000029185092
       4        0.000007418028     0.000007904042     0.000006480958
       5       -0.000008315695    -0.000006637605     0.000005024406
       6       -0.000010770703     0.000000330965    -0.000007268438
       7        0.000012252630    -0.000010326833     0.000000582356
       8       -0.000083256395    -0.000011566978    -0.000113055465
       9       -0.000002987398    -0.000004690128    -0.000002350913
      10        0.000007758321    -0.000001065663     0.000006065122
      11        0.000106934338     0.000060160011     0.000158621746
      12       -0.000001418371    -0.000006513775     0.000006302089
      13        0.000006358981    -0.000008070984     0.000005372074
      14       -0.000187450403    -0.000151454318    -0.000061398585
      15       -0.000000615656     0.000007112647     0.000000603546
      16        0.000002848837     0.000008991216     0.000003838635
      17        0.000042437126    -0.000006446433    -0.000029545055
      18        0.000125502244     0.000123874020     0.000019144172
      19       -0.000004264780    -0.000000658897    -0.000001216001
      20        0.000019410184    -0.000005513180     0.000011763839
      21       -0.000011345506    -0.000002878484     0.000003991077
      22        0.000003132036     0.000006324906    -0.000015037561
      23       -0.000003201171     0.000002952369     0.000016584277
      24       -0.000013255261     0.000004043484    -0.000004787647
      25       -0.000006878614    -0.000005095653    -0.000000160802

  **** Optimization is complete! (in 13 steps) ****
    Final optimized geometry and variables:
    Molecular point group: c1

    Geometry (in Angstrom), charge = 0, multiplicity = 1:

    H           -2.095024656600     2.066527290358    -1.703846709314
    C           -1.256540313271     2.465707274878    -1.116989417258
    C           -1.323985541616     2.181594599098     0.358951259083
    O           -0.396353743708     3.074463277040    -1.652609063788
    C           -1.535972327844     0.696371535102     0.666860036390
    H           -0.423482227421     2.561067634302     0.824147313113
    H           -2.165938810045     2.750664209714     0.746878322156
    C           -0.349308664091    -0.184860239924     0.280552166315
    H           -1.732356843757     0.591004016673     1.728418037412
    H           -2.431273363420     0.347350883311     0.158433113771
    C           -0.575265097572    -1.653170340715     0.633297177328
    H            0.537062458594     0.187716555323     0.782464558053
    H           -0.156140947773    -0.095092747956    -0.785453204590
    C            0.505996713387    -2.633356388518     0.168613912080
    H           -0.692252155469    -1.743890154404     1.710703425083
    H           -1.521222671664    -1.969692694987     0.201356537474
    C            1.900408332805    -2.451911379315     0.792833247647
    H            0.588423805926    -2.593375285113    -0.914615896219
    H            0.150481479673    -3.631238115453     0.403329085895
    C            2.863753499207    -1.585025337229    -0.016510690716
    H            2.354945657289    -3.429707431518     0.912890854930
    H            1.798856930275    -2.047545555071     1.796389915693
    H            3.034054097000    -2.016101336524    -0.997346648070
    H            2.492056856704    -0.579231754422    -0.162878680518
    H            3.824537018265    -1.511470116306     0.480633131152

  Mulliken Charges: (a.u.)
   Center  Symbol    Alpha    Beta     Spin     Total
       1     H     0.46401  0.46401  0.00000  0.07197
       2     C     2.90460  2.90460  0.00000  0.19080
       3     C     3.08939  3.08939  0.00000 -0.17878
       4     O     4.16632  4.16632  0.00000 -0.33263
       5     C     3.11587  3.11587  0.00000 -0.23175
       6     H     0.44291  0.44291  0.00000  0.11417
       7     H     0.44031  0.44031  0.00000  0.11938
       8     C     3.09825  3.09825  0.00000 -0.19650
       9     H     0.44290  0.44290  0.00000  0.11420
      10     H     0.44905  0.44905  0.00000  0.10191
      11     C     3.09714  3.09714  0.00000 -0.19427
      12     H     0.44734  0.44734  0.00000  0.10532
      13     H     0.44548  0.44548  0.00000  0.10904
      14     C     3.09995  3.09995  0.00000 -0.19990
      15     H     0.45166  0.45166  0.00000  0.09667
      16     H     0.44853  0.44853  0.00000  0.10293
      17     C     3.09819  3.09819  0.00000 -0.19639
      18     H     0.45386  0.45386  0.00000  0.09227
      19     H     0.44372  0.44372  0.00000  0.11257
      20     C     3.14895  3.14895  0.00000 -0.29791
      21     H     0.44546  0.44546  0.00000  0.10908
      22     H     0.45292  0.45292  0.00000  0.09416
      23     H     0.45404  0.45404  0.00000  0.09192
      24     H     0.45106  0.45106  0.00000  0.09788
      25     H     0.44809  0.44809  0.00000  0.10383

   Total alpha = 36.00000, Total beta = 36.00000, Total charge = -0.00000

*** Psi4 exiting successfully. Buy a developer a beer!
