  ==> Input File <==

--------------------------------------------------------------------------
set {
	reference rhf
	basis 6-31G*
}

set_num_threads( 4 )
memory 2 gb

molecule MOL {
0 1

H	 -3.420663	 1.227371	 -1.044276
O	 -3.452007	 0.283848	 -0.965577
C	 -3.181085	 -0.079926	 0.364119
C	 -1.765924	 0.277073	 0.805136
H	 -3.327791	 -1.152017	 0.410903
H	 -3.905698	 0.375695	 1.036898
C	 -0.799536	 -0.907672	 0.773685
H	 -1.387215	 1.077205	 0.168480
H	 -1.814746	 0.688623	 1.811846
C	 0.622686	 -0.533717	 1.196320
H	 -0.785651	 -1.329980	 -0.226401
H	 -1.176893	 -1.690153	 1.429978
C	 1.582830	 -1.725946	 1.168016
H	 0.989852	 0.254573	 0.543475
H	 0.603232	 -0.113582	 2.201164
C	 2.999440	 -1.420891	 1.668329
H	 1.637817	 -2.119368	 0.154167
H	 1.165442	 -2.523246	 1.779503
C	 3.786841	 -0.444792	 0.792180
H	 3.551281	 -2.355720	 1.730420
H	 2.946446	 -1.032790	 2.683598
H	 3.845533	 -0.801048	 -0.232894
H	 4.802060	 -0.329835	 1.159540
H	 3.334534	 0.541243	 0.774372

	symmetry c1
}
set optking {
	frozen_dihedral = ("
		7 4 3 2
	")
}

ee = optimize('scf')
oeprop('DIPOLE', 'QUADRUPOLE', 'MULLIKEN_CHARGES')
f=open( 'psi4out.xyz', 'w' )
f.write( "24  " )
f.write( str(ee) + "\n" )
f.write( MOL.save_string_xyz() )
f.close()
--------------------------------------------------------------------------

    Molecular point group: c1
  Charge       = 0
  Multiplicity = 1
  Basis Set: 6-31G*
  Basis Set:
  @DF-RHF Final Energy:  -349.24240085718452
    Total Energy =                       -349.2424008571848049
    Molecular point group: c1
  Basis Set: 6-31G*
  Basis Set:
  Basis Set: 6-31G*
  Basis Set:
  @DF-RHF Final Energy:  -349.24260438709143
    Total Energy =                       -349.2426043870912622
  Basis Set: 6-31G*
  Basis Set:
  Basis Set: 6-31G*
  Basis Set:
  @DF-RHF Final Energy:  -349.24266005785643
    Total Energy =                       -349.2426600578565967
  Basis Set: 6-31G*
  Basis Set:
  Basis Set: 6-31G*
  Basis Set:
  @DF-RHF Final Energy:  -349.24265676382623
    Total Energy =                       -349.2426567638265169
  Basis Set: 6-31G*
  Basis Set:
  Basis Set: 6-31G*
  Basis Set:
  @DF-RHF Final Energy:  -349.24266565145865
    Total Energy =                       -349.2426656514588217
  Basis Set: 6-31G*
  Basis Set:
  Basis Set: 6-31G*
  Basis Set:
  @DF-RHF Final Energy:  -349.24266461688757
    Total Energy =                       -349.2426646168877369
  Basis Set: 6-31G*
  Basis Set:
  Basis Set: 6-31G*
  Basis Set:
  @DF-RHF Final Energy:  -349.24266569033182
    Total Energy =                       -349.2426656903316484
  Basis Set: 6-31G*
  Basis Set:
  Charge       = 0
  Multiplicity = 1
  Basis Set: 6-31G*
  Basis Set:

    Orbital Energies (a.u.)
    -----------------------

    Doubly Occupied:

       1A    -20.551242     2A    -11.267167     3A    -11.216849
       4A    -11.215312     5A    -11.214894     6A    -11.213629
       7A    -11.212847     8A    -11.207755     9A     -1.357968
      10A     -1.089981    11A     -1.048631    12A     -0.984519
      13A     -0.913814    14A     -0.850841    15A     -0.804624
      16A     -0.777315    17A     -0.683300    18A     -0.648298
      19A     -0.623760    20A     -0.619336    21A     -0.596021
      22A     -0.583574    23A     -0.564091    24A     -0.534266
      25A     -0.518587    26A     -0.515833    27A     -0.491990
      28A     -0.479123    29A     -0.465778    30A     -0.460458
      31A     -0.456911    32A     -0.452613    33A     -0.415853

  @DF-RHF Final Energy:  -349.24266583353153

   => Energetics <=

    Nuclear Repulsion Energy =            381.6064820218808791
    One-Electron Energy =               -1229.6239363517427137
    Two-Electron Energy =                 498.7747884963297906
    DFT Exchange-Correlation Energy =       0.0000000000000000
    Empirical Dispersion Energy =           0.0000000000000000
    PCM Polarization Energy =               0.0000000000000000
    EFP Energy =                            0.0000000000000000
    Total Energy =                       -349.2426658335320440
    Molecular point group: c1
  Basis Set: 6-31G*
  Basis Set:

  -Total Gradient:
     Atom            X                  Y                   Z
    ------   -----------------  -----------------  -----------------
       1       -0.000000826785    -0.000000329218    -0.000005674819
       2       -0.001085580263     0.002946796202     0.001040705300
       3        0.001169254993    -0.004288950356    -0.000298396845
       4        0.000677053710     0.002059834577    -0.003607620582
       5       -0.000003416830    -0.000001634131     0.000010803897
       6        0.000004893552    -0.000000528103     0.000003267236
       7       -0.000758979538    -0.000708385093     0.002857830066
       8       -0.000001593708     0.000000017277     0.000001780332
       9        0.000003714639    -0.000000313439     0.000000727088
      10       -0.000001997038    -0.000003457420     0.000002338310
      11        0.000001705629    -0.000000077413    -0.000004147770
      12        0.000006172352    -0.000002161997     0.000001531579
      13       -0.000001186763    -0.000003170870    -0.000001228946
      14       -0.000004692189    -0.000002103520    -0.000002083415
      15       -0.000001247921     0.000000680990     0.000000363855
      16       -0.000002171384     0.000003779499     0.000001999176
      17       -0.000000198595     0.000001012996    -0.000000992090
      18       -0.000000423501    -0.000000795365    -0.000000327433
      19        0.000000813359    -0.000000244362    -0.000000980445
      20       -0.000002989614    -0.000000239527    -0.000000558404
      21        0.000000739873     0.000000445161     0.000001052201
      22        0.000000433588     0.000000258462    -0.000000415345
      23       -0.000000029196     0.000000029513     0.000000060991
      24        0.000000551629    -0.000000463861    -0.000000033931

  **** Optimization is complete! (in 8 steps) ****
    Final optimized geometry and variables:
    Molecular point group: c1

    Geometry (in Angstrom), charge = 0, multiplicity = 1:

    H           -3.347901782796     1.781941282319    -1.731844644930
    O           -3.367012291062     0.837483125618    -1.670151588140
    C           -3.110881242252     0.457152059658    -0.341175821601
    C           -1.691286851955     0.815164234480     0.127543213961
    H           -3.266605662411    -0.613146021319    -0.306170320772
    H           -3.849703575434     0.908552212359     0.317842071526
    C           -0.719980372305    -0.367005742109     0.093386329576
    H           -1.313507147359     1.624067668701    -0.493229703039
    H           -1.732252265653     1.202061587470     1.143749531162
    C            0.703581207567     0.006587959226     0.509271433224
    H           -0.707315775474    -0.787887591835    -0.910088929657
    H           -1.094363534111    -1.150229600573     0.750095060631
    C            1.663080665589    -1.186274805874     0.484795621138
    H            1.068098977817     0.791097547124    -0.149027408279
    H            0.686081759289     0.431873460325     1.512068417840
    C            3.081400027252    -0.878345503900     0.978436446895
    H            1.714769734807    -1.585502221658    -0.526882054296
    H            1.247787958482    -1.979937656177     1.102624417279
    C            3.865997005490     0.091736157193     0.093190116987
    H            3.632991157662    -1.812963381236     1.044770838253
    H            3.031753775764    -0.483660253003     1.991341741096
    H            3.921136338711    -0.271193215875    -0.929670769736
    H            4.882435459981     0.208713413155     0.456472330681
    H            3.413895034805     1.077722087264     0.070358932476

  Mulliken Charges: (a.u.)
   Center  Symbol    Alpha    Beta     Spin     Total
       1     H     0.28346  0.28346  0.00000  0.43307
       2     O     4.36979  4.36979  0.00000 -0.73958
       3     C     2.99834  2.99834  0.00000  0.00331
       4     C     3.16664  3.16664  0.00000 -0.33329
       5     H     0.41357  0.41357  0.00000  0.17287
       6     H     0.42933  0.42933  0.00000  0.14133
       7     C     3.15675  3.15675  0.00000 -0.31350
       8     H     0.42136  0.42136  0.00000  0.15729
       9     H     0.42286  0.42286  0.00000  0.15427
      10     C     3.15425  3.15425  0.00000 -0.30850
      11     H     0.41573  0.41573  0.00000  0.16854
      12     H     0.42353  0.42353  0.00000  0.15294
      13     C     3.15257  3.15257  0.00000 -0.30514
      14     H     0.42108  0.42108  0.00000  0.15785
      15     H     0.42509  0.42509  0.00000  0.14982
      16     C     3.15233  3.15233  0.00000 -0.30467
      17     H     0.42320  0.42320  0.00000  0.15360
      18     H     0.42255  0.42255  0.00000  0.15491
      19     C     3.24112  3.24112  0.00000 -0.48224
      20     H     0.42096  0.42096  0.00000  0.15808
      21     H     0.42376  0.42376  0.00000  0.15248
      22     H     0.42189  0.42189  0.00000  0.15622
      23     H     0.41944  0.41944  0.00000  0.16113
      24     H     0.42040  0.42040  0.00000  0.15920

   Total alpha = 33.00000, Total beta = 33.00000, Total charge = -0.00000
