  ==> Input File <==

--------------------------------------------------------------------------
set {
	reference rhf
	basis 6-31G*
}

set_num_threads( 4 )
memory 2 gb

molecule MOL {
0 1

H	 -3.420663	 1.227371	 -1.044276
O	 -3.452007	 0.283848	 -0.965577
C	 -3.181085	 -0.079926	 0.364119
C	 -1.765924	 0.277073	 0.805136
H	 -3.327791	 -1.152017	 0.410903
H	 -3.905698	 0.375695	 1.036898
C	 -0.677594	 -0.417312	 -0.014550
H	 -1.637766	 1.358238	 0.744969
H	 -1.659588	 0.017670	 1.857098
C	 0.630541	 0.374550	 -0.068544
H	 -1.044450	 -0.588232	 -1.021979
H	 -0.486537	 -1.400884	 0.411449
C	 1.716973	 -0.329604	 -0.885808
H	 0.431149	 1.358779	 -0.485622
H	 0.995540	 0.540418	 0.944307
C	 3.074746	 0.382086	 -0.895970
H	 1.370962	 -0.456020	 -1.910498
H	 1.856397	 -1.332603	 -0.487851
C	 3.075041	 1.741274	 -1.598119
H	 3.798199	 -0.263767	 -1.387682
H	 3.424425	 0.504170	 0.127272
H	 2.717613	 1.652085	 -2.620581
H	 4.077779	 2.156018	 -1.634753
H	 2.444085	 2.462113	 -1.088758

	symmetry c1
}
set optking {
	frozen_dihedral = ("
		11 7 4 3
	")
}

ee = optimize('scf')
oeprop('DIPOLE', 'QUADRUPOLE', 'MULLIKEN_CHARGES')
f=open( 'psi4out.xyz', 'w' )
f.write( "24  " )
f.write( str(ee) + "\n" )
f.write( MOL.save_string_xyz() )
f.close()
--------------------------------------------------------------------------

    Molecular point group: c1
  Charge       = 0
  Multiplicity = 1
  Basis Set: 6-31G*
  Basis Set:
  @DF-RHF Final Energy:  -349.24552697193042
    Total Energy =                       -349.2455269719304738
    Molecular point group: c1
  Basis Set: 6-31G*
  Basis Set:
  Basis Set: 6-31G*
  Basis Set:
  @DF-RHF Final Energy:  -349.24564593933781
    Total Energy =                       -349.2456459393378623
  Basis Set: 6-31G*
  Basis Set:
  Basis Set: 6-31G*
  Basis Set:
  @DF-RHF Final Energy:  -349.24571205682025
    Total Energy =                       -349.2457120568202527
  Basis Set: 6-31G*
  Basis Set:
  Basis Set: 6-31G*
  Basis Set:
  @DF-RHF Final Energy:  -349.24571381502375
    Total Energy =                       -349.2457138150237483
  Basis Set: 6-31G*
  Basis Set:
  Charge       = 0
  Multiplicity = 1
  Basis Set: 6-31G*
  Basis Set:

    Orbital Energies (a.u.)
    -----------------------

    Doubly Occupied:

       1A    -20.554219     2A    -11.267898     3A    -11.217354
       4A    -11.213956     5A    -11.212478     6A    -11.211346
       7A    -11.210344     8A    -11.207168     9A     -1.360977
      10A     -1.087838    11A     -1.047433    12A     -0.985520
      13A     -0.914661    14A     -0.850568    15A     -0.801647
      16A     -0.776168    17A     -0.679520    18A     -0.652112
      19A     -0.623789    20A     -0.621760    21A     -0.596256
      22A     -0.583540    23A     -0.559964    24A     -0.536187
      25A     -0.518006    26A     -0.512676    27A     -0.496605
      28A     -0.470910    29A     -0.466653    30A     -0.456946
      31A     -0.454780    32A     -0.451794    33A     -0.420147

  @DF-RHF Final Energy:  -349.24571288689515

   => Energetics <=

    Nuclear Repulsion Energy =            385.8628701323306132
    One-Electron Energy =               -1238.1747262084334125
    Two-Electron Energy =                 503.0661431892077644
    DFT Exchange-Correlation Energy =       0.0000000000000000
    Empirical Dispersion Energy =           0.0000000000000000
    PCM Polarization Energy =               0.0000000000000000
    EFP Energy =                            0.0000000000000000
    Total Energy =                       -349.2457128868950349
    Molecular point group: c1
  Basis Set: 6-31G*
  Basis Set:

  -Total Gradient:
     Atom            X                  Y                   Z
    ------   -----------------  -----------------  -----------------
       1       -0.000002859997     0.000005865557    -0.000016168902
       2        0.000009671485     0.000005509449    -0.000004744039
       3       -0.000029178503     0.002038861511    -0.001669033847
       4       -0.000198050492    -0.003675313622     0.002547179481
       5       -0.000009320826     0.000009654269     0.000038451043
       6       -0.000029684864     0.000014238851    -0.000025596512
       7        0.001484412381     0.004979061196    -0.001907418910
       8        0.000026704004     0.000007253403     0.000040825996
       9       -0.000011633399    -0.000051573620     0.000005504788
      10       -0.000063285838     0.000025436239    -0.000108545993
      11       -0.001230899917    -0.003301590042     0.000949325721
      12        0.000038633017     0.000025830496     0.000065651327
      13        0.000014860082    -0.000054497571     0.000091993339
      14        0.000027554989     0.000089143268     0.000004527252
      15       -0.000002032323    -0.000057948649    -0.000040167082
      16        0.000042348313    -0.000040910655    -0.000074433023
      17        0.000005147261    -0.000027353820     0.000036591743
      18       -0.000008687402    -0.000004125292     0.000028827470
      19       -0.000037916985    -0.000008517450     0.000041583371
      20        0.000012130717     0.000030990664    -0.000036530181
      21        0.000027628100    -0.000031179803    -0.000014966604
      22        0.000018834858    -0.000011629260     0.000013409926
      23       -0.000005584803     0.000015461783     0.000018763705
      24       -0.000078789841     0.000017333096     0.000014969931

  **** Optimization is complete! (in 5 steps) ****
    Final optimized geometry and variables:
    Molecular point group: c1

    Geometry (in Angstrom), charge = 0, multiplicity = 1:

    H           -3.325491146987     0.951238600305    -0.570370944707
    O           -3.347965691458     0.005620600399    -0.518857269808
    C           -3.055861152767    -0.394423944153     0.795351387924
    C           -1.639742177814    -0.024688598343     1.225154570675
    H           -3.187750250255    -1.469514729565     0.811085222788
    H           -3.778078640997     0.030132633499     1.490391191494
    C           -0.549195268229    -0.696970921919     0.380102539980
    H           -1.541272982608     1.059365561671     1.156586886794
    H           -1.510697340983    -0.270314095643     2.276691505601
    C            0.763643623959     0.085551033876     0.338981068267
    H           -0.924736674453    -0.859761592647    -0.625236521217
    H           -0.358420932048    -1.690103604081     0.784148876190
    C            1.859169638830    -0.631942240018    -0.453517123651
    H            0.574468242606     1.066179299982    -0.090631631338
    H            1.112728039395     0.259824069222     1.356274240178
    C            3.215840310589     0.081956574509    -0.463646660245
    H            1.523097079198    -0.777870985473    -1.478850045537
    H            1.996330606651    -1.627130718214    -0.035532423049
    C            3.217673316946     1.433526943868    -1.180294456713
    H            3.943249207502    -0.567717749092    -0.944283537722
    H            3.559437530029     0.215658369816     0.560228525915
    H            2.868573128978     1.332288196890    -2.204448213447
    H            4.219471902853     1.850860698754    -1.213416308266
    H            2.580522923278     2.157861504512    -0.683743120322

  Mulliken Charges: (a.u.)
   Center  Symbol    Alpha    Beta     Spin     Total
       1     H     0.28324  0.28324  0.00000  0.43351
       2     O     4.36773  4.36773  0.00000 -0.73547
       3     C     2.99821  2.99821  0.00000  0.00357
       4     C     3.16814  3.16814  0.00000 -0.33628
       5     H     0.41634  0.41634  0.00000  0.16731
       6     H     0.42820  0.42820  0.00000  0.14359
       7     C     3.15726  3.15726  0.00000 -0.31453
       8     H     0.42871  0.42871  0.00000  0.14259
       9     H     0.42050  0.42050  0.00000  0.15899
      10     C     3.15390  3.15390  0.00000 -0.30780
      11     H     0.40691  0.40691  0.00000  0.18618
      12     H     0.42396  0.42396  0.00000  0.15207
      13     C     3.15279  3.15279  0.00000 -0.30557
      14     H     0.42274  0.42274  0.00000  0.15452
      15     H     0.42538  0.42538  0.00000  0.14924
      16     C     3.15224  3.15224  0.00000 -0.30447
      17     H     0.42296  0.42296  0.00000  0.15409
      18     H     0.42240  0.42240  0.00000  0.15520
      19     C     3.24103  3.24103  0.00000 -0.48206
      20     H     0.42109  0.42109  0.00000  0.15781
      21     H     0.42390  0.42390  0.00000  0.15219
      22     H     0.42196  0.42196  0.00000  0.15608
      23     H     0.41961  0.41961  0.00000  0.16078
      24     H     0.42078  0.42078  0.00000  0.15845

   Total alpha = 33.00000, Total beta = 33.00000, Total charge = -0.00000
