  ==> Input File <==

--------------------------------------------------------------------------
set {
	reference rhf
	basis 6-31G*
}

set_num_threads( 1 )
memory 2 gb

molecule MOL {
0 1

O	 -1.265641	 0.496836	 -1.008720
C	 -1.083277	 0.139568	 0.115197
C	 0.323299	 -0.082943	 0.642902
C	 -2.233651	 -0.132975	 1.058695
C	 1.355627	 -0.005344	 -0.493127
H	 0.396251	 -1.044647	 1.143147
H	 0.528637	 0.693580	 1.371677
C	 2.786168	 -0.195604	 0.007473
H	 1.132807	 -0.760304	 -1.243899
H	 1.259610	 0.958506	 -0.981915
H	 3.495561	 -0.130713	 -0.811210
H	 2.912696	 -1.165395	 0.480041
H	 3.049284	 0.565503	 0.735850
H	 -2.134044	 -1.113830	 1.514404
H	 -3.172140	 -0.068950	 0.525896
H	 -2.225702	 0.596733	 1.864094

	symmetry c1
}
set optking {
	frozen_dihedral = ("
		9 5 3 2
	")
}

ee = energy('scf')
oeprop('DIPOLE', 'QUADRUPOLE', 'MULLIKEN_CHARGES')
f=open( 'psi4out.xyz', 'w' )
f.write( "16  " )
f.write( str(ee) + "\n" )
f.write( MOL.save_string_xyz() )
f.close()
--------------------------------------------------------------------------

    Molecular point group: c1

    Geometry (in Angstrom), charge = 0, multiplicity = 1:

       Center              X                  Y                   Z               Mass
    ------------   -----------------  -----------------  -----------------  -----------------
           O         -1.251910339524     0.460375653916    -1.060691539453    15.994914619560
           C         -1.069546339524     0.103107653916     0.063225460547    12.000000000000
           C          0.337029660476    -0.119403346084     0.590930460547    12.000000000000
           C         -2.219920339524    -0.169435346084     1.006723460547    12.000000000000
           C          1.369357660476    -0.041804346084    -0.545098539453    12.000000000000
           H          0.409981660476    -1.081107346084     1.091175460547     1.007825032070
           H          0.542367660476     0.657119653916     1.319705460547     1.007825032070
           C          2.799898660476    -0.232064346084    -0.044498539453    12.000000000000
           H          1.146537660476    -0.796764346084    -1.295870539453     1.007825032070
           H          1.273340660476     0.922045653916    -1.033886539453     1.007825032070
           H          3.509291660476    -0.167173346084    -0.863181539453     1.007825032070
           H          2.926426660476    -1.201855346084     0.428069460547     1.007825032070
           H          3.063014660476     0.529042653916     0.683878460547     1.007825032070
           H         -2.120313339524    -1.150290346084     1.462432460547     1.007825032070
           H         -3.158409339524    -0.105410346084     0.473924460547     1.007825032070
           H         -2.211971339524     0.560272653916     1.812122460547     1.007825032070

  Charge       = 0
  Multiplicity = 1
  Basis Set: 6-31G*
  Basis Set:

    Orbital Energies (a.u.)
    -----------------------

    Doubly Occupied:

       1A    -20.550582     2A    -11.326594     3A    -11.231604
       4A    -11.229371     5A    -11.218059     6A    -11.211558
       7A     -1.396576     8A     -1.074340     9A     -1.015280
      10A     -0.946780    11A     -0.820393    12A     -0.731984
      13A     -0.656081    14A     -0.651145    15A     -0.624396
      16A     -0.597717    17A     -0.567305    18A     -0.558516
      19A     -0.548497    20A     -0.495207    21A     -0.489814
      22A     -0.478896    23A     -0.477196    24A     -0.401962

  @DF-RHF Final Energy:  -270.03113820428996

   => Energetics <=

    Nuclear Repulsion Energy =            237.3747795981344950
    One-Electron Energy =                -836.2121931427170693
    Two-Electron Energy =                 328.8062753402923590
    DFT Exchange-Correlation Energy =       0.0000000000000000
    Empirical Dispersion Energy =           0.0000000000000000
    PCM Polarization Energy =               0.0000000000000000
    EFP Energy =                            0.0000000000000000
    Total Energy =                       -270.0311382042901869

  Mulliken Charges: (a.u.)
   Center  Symbol    Alpha    Beta     Spin     Total
       1     O     4.26064  4.26064  0.00000 -0.52128
       2     C     2.73735  2.73735  0.00000  0.52530
       3     C     3.20955  3.20955  0.00000 -0.41910
       4     C     3.28577  3.28577  0.00000 -0.57154
       5     C     3.14852  3.14852  0.00000 -0.29703
       6     H     0.41070  0.41070  0.00000  0.17859
       7     H     0.40761  0.40761  0.00000  0.18479
       8     C     3.24122  3.24122  0.00000 -0.48244
       9     H     0.41428  0.41428  0.00000  0.17145
      10     H     0.40848  0.40848  0.00000  0.18303
      11     H     0.41616  0.41616  0.00000  0.16768
      12     H     0.42347  0.42347  0.00000  0.15305
      13     H     0.42303  0.42303  0.00000  0.15394
      14     H     0.40950  0.40950  0.00000  0.18099
      15     H     0.39635  0.39635  0.00000  0.20730
      16     H     0.40736  0.40736  0.00000  0.18527

   Total alpha = 24.00000, Total beta = 24.00000, Total charge = -0.00000
