  ==> Input File <==

--------------------------------------------------------------------------
set {
	reference rhf
	basis 6-31G*
}

set_num_threads( 1 )
memory 2 gb

molecule MOL {
0 1

O	 2.444902	 0.205056	 0.928004
C	 1.705091	 0.115954	 0.001797
C	 0.381791	 -0.609817	 0.001258
O	 1.954073	 0.662362	 -1.181665
C	 -0.823008	 0.326187	 0.001381
H	 0.371250	 -1.265087	 -0.865474
H	 0.370908	 -1.265746	 0.867490
C	 -2.149452	 -0.435131	 -0.000098
H	 -0.770201	 0.977095	 -0.865636
H	 -0.771220	 0.975655	 0.869608
C	 -3.368779	 0.488503	 -0.000883
H	 -2.193746	 -1.087250	 -0.871175
H	 -2.195311	 -1.087803	 0.870418
C	 -4.693822	 -0.272754	 -0.001129
H	 -3.325798	 1.139422	 -0.871284
H	 -3.326423	 1.139959	 0.869145
H	 -4.781274	 -0.907928	 -0.878124
H	 -5.538651	 0.408946	 -0.001420
H	 -4.781694	 -0.907783	 0.875984
C	 3.168593	 1.377704	 -1.316507
H	 3.200723	 2.206030	 -0.623418
H	 3.186773	 1.739442	 -2.332721
H	 4.013710	 0.729490	 -1.134567

	symmetry c1
}
set optking {
	frozen_dihedral = ("
		15 11 8 12,
		9 5 8 12,
		9 5 3 6,
		1 2 4 20
	")
}

ee = energy('scf')
oeprop('DIPOLE', 'QUADRUPOLE', 'MULLIKEN_CHARGES')
f=open( 'psi4out.xyz', 'w' )
f.write( "23  " )
f.write( str(ee) + "\n" )
f.write( MOL.save_string_xyz() )
f.close()
--------------------------------------------------------------------------

    Molecular point group: c1

    Geometry (in Angstrom), charge = 0, multiplicity = 1:

       Center              X                  Y                   Z               Mass
    ------------   -----------------  -----------------  -----------------  -----------------
           O          2.565303726699    -0.014609439730     1.112099002317    15.994914619560
           C          1.825492726699    -0.103711439730     0.185892002317    12.000000000000
           C          0.502192726699    -0.829482439730     0.185353002317    12.000000000000
           O          2.074474726699     0.442696560270    -0.997569997683    15.994914619560
           C         -0.702606273301     0.106521560270     0.185476002317    12.000000000000
           H          0.491651726699    -1.484752439730    -0.681378997683     1.007825032070
           H          0.491309726699    -1.485411439730     1.051585002317     1.007825032070
           C         -2.029050273301    -0.654796439730     0.183997002317    12.000000000000
           H         -0.649799273301     0.757429560270    -0.681540997683     1.007825032070
           H         -0.650818273301     0.755989560270     1.053703002317     1.007825032070
           C         -3.248377273301     0.268837560270     0.183212002317    12.000000000000
           H         -2.073344273301    -1.306915439730    -0.687079997683     1.007825032070
           H         -2.074909273301    -1.307468439730     1.054513002317     1.007825032070
           C         -4.573420273301    -0.492419439730     0.182966002317    12.000000000000
           H         -3.205396273301     0.919756560270    -0.687188997683     1.007825032070
           H         -3.206021273301     0.920293560270     1.053240002317     1.007825032070
           H         -4.660872273301    -1.127593439730    -0.694028997683     1.007825032070
           H         -5.418249273301     0.189280560270     0.182675002317     1.007825032070
           H         -4.661292273301    -1.127448439730     1.060079002317     1.007825032070
           C          3.288994726699     1.158038560270    -1.132411997683    12.000000000000
           H          3.321124726699     1.986364560270    -0.439322997683     1.007825032070
           H          3.307174726699     1.519776560270    -2.148625997683     1.007825032070
           H          4.134111726699     0.509824560270    -0.950471997683     1.007825032070

  Charge       = 0
  Multiplicity = 1
  Basis Set: 6-31G*
  Basis Set:

    Orbital Energies (a.u.)
    -----------------------

    Doubly Occupied:

       1A    -20.603900     2A    -20.543848     3A    -11.370819
       4A    -11.280558     5A    -11.233591     6A    -11.228932
       7A    -11.222307     8A    -11.220192     9A    -11.212316
      10A     -1.468682    11A     -1.361369    12A     -1.097947
      13A     -1.046007    14A     -0.984871    15A     -0.934468
      16A     -0.848322    17A     -0.799373    18A     -0.773167
      19A     -0.693392    20A     -0.679849    21A     -0.672818
      22A     -0.653081    23A     -0.606858    24A     -0.593906
      25A     -0.580941    26A     -0.571675    27A     -0.541778
      28A     -0.533211    29A     -0.523813    30A     -0.507861
      31A     -0.490562    32A     -0.477737    33A     -0.470602
      34A     -0.468738    35A     -0.453806    36A     -0.427249

  @DF-RHF Final Energy:  -422.97463377165326

   => Energetics <=

    Nuclear Repulsion Energy =            454.5101115107688088
    One-Electron Energy =               -1476.6124592895814658
    Two-Electron Energy =                 599.1277140071617850
    DFT Exchange-Correlation Energy =       0.0000000000000000
    Empirical Dispersion Energy =           0.0000000000000000
    PCM Polarization Energy =               0.0000000000000000
    EFP Energy =                            0.0000000000000000
    Total Energy =                       -422.9746337716508151

  Mulliken Charges: (a.u.)
   Center  Symbol    Alpha    Beta     Spin     Total
       1     O     4.28455  4.28455  0.00000 -0.56910
       2     C     2.61775  2.61775  0.00000  0.76449
       3     C     3.19473  3.19473  0.00000 -0.38947
       4     O     4.30207  4.30207  0.00000 -0.60414
       5     C     3.16413  3.16413  0.00000 -0.32826
       6     H     0.40504  0.40504  0.00000  0.18993
       7     H     0.40042  0.40042  0.00000  0.19916
       8     C     3.15258  3.15258  0.00000 -0.30517
       9     H     0.40945  0.40945  0.00000  0.18111
      10     H     0.41223  0.41223  0.00000  0.17554
      11     C     3.15248  3.15248  0.00000 -0.30497
      12     H     0.42153  0.42153  0.00000  0.15694
      13     H     0.42076  0.42076  0.00000  0.15847
      14     C     3.23990  3.23990  0.00000 -0.47979
      15     H     0.42173  0.42173  0.00000  0.15653
      16     H     0.42128  0.42128  0.00000  0.15744
      17     H     0.42126  0.42126  0.00000  0.15749
      18     H     0.41808  0.41808  0.00000  0.16384
      19     H     0.42088  0.42088  0.00000  0.15824
      20     C     3.09242  3.09242  0.00000 -0.18484
      21     H     0.40905  0.40905  0.00000  0.18190
      22     H     0.40888  0.40888  0.00000  0.18225
      23     H     0.40879  0.40879  0.00000  0.18241

   Total alpha = 36.00000, Total beta = 36.00000, Total charge =  0.00000
