  ==> Input File <==

--------------------------------------------------------------------------
set {
	reference rhf
	basis cc-pvtz
}

set_num_threads( 4 )
memory 2 gb

molecule MOL {
0 1

O	 0.074770	 1.259872	 0.000487
C	 0.029490	 0.077183	 0.000078
C	 -1.232113	 -0.748027	 0.000015
O	 1.106773	 -0.690081	 -0.000204
C	 -2.501422	 0.088592	 -0.000052
H	 -1.188777	 -1.400384	 -0.865133
H	 -1.188857	 -1.400312	 0.865225
H	 -2.548170	 0.725504	 -0.873205
H	 -3.371613	 -0.556398	 -0.000040
H	 -2.548215	 0.725571	 0.873047
C	 2.193393	 -0.283242	 0.806877
H	 2.556094	 0.685806	 0.497639
H	 2.960387	 -1.028348	 0.671367
H	 1.899871	 -0.234794	 1.845021

	symmetry c1
}
set optking {
	frozen_dihedral = ("
		11 4 2 3
	")
}

ee = optimize('scf')
oeprop('DIPOLE', 'QUADRUPOLE', 'MULLIKEN_CHARGES')
f=open( 'psi4out.xyz', 'w' )
f.write( "14  " )
f.write( str(ee) + "\n" )
f.write( MOL.save_string_xyz() )
f.close()
--------------------------------------------------------------------------

    Molecular point group: c1
  Charge       = 0
  Multiplicity = 1
  Basis Set: CC-PVTZ
  Basis Set:
  @DF-RHF Final Energy:  -305.97953467175091
    Total Energy =                       -305.9795346717505140
    Molecular point group: c1
  Basis Set: CC-PVTZ
  Basis Set:
  Basis Set: CC-PVTZ
  Basis Set:
  @DF-RHF Final Energy:  -305.97727461705051
    Total Energy =                       -305.9772746170503979
  Basis Set: CC-PVTZ
  Basis Set:
  Basis Set: CC-PVTZ
  Basis Set:
  @DF-RHF Final Energy:  -305.98011735105774
    Total Energy =                       -305.9801173510577428
  Basis Set: CC-PVTZ
  Basis Set:
  Basis Set: CC-PVTZ
  Basis Set:
  @DF-RHF Final Energy:  -305.98026574033156
    Total Energy =                       -305.9802657403317312
  Basis Set: CC-PVTZ
  Basis Set:
  Basis Set: CC-PVTZ
  Basis Set:
  @DF-RHF Final Energy:  -305.98030167580782
    Total Energy =                       -305.9803016758078229
  Basis Set: CC-PVTZ
  Basis Set:
  Basis Set: CC-PVTZ
  Basis Set:
  @DF-RHF Final Energy:  -305.98030357784785
    Total Energy =                       -305.9803035778476215
  Basis Set: CC-PVTZ
  Basis Set:
  Charge       = 0
  Multiplicity = 1
  Basis Set: CC-PVTZ
  Basis Set:

    Orbital Energies (a.u.)
    -----------------------

    Doubly Occupied:

       1A    -20.589837     2A    -20.538580     3A    -11.366676
       4A    -11.282084     5A    -11.238754     6A    -11.215782
       7A     -1.468636     8A     -1.367627     9A     -1.064970
      10A     -0.979395    11A     -0.883317    12A     -0.769275
      13A     -0.702434    14A     -0.681741    15A     -0.675920
      16A     -0.621765    17A     -0.607305    18A     -0.553721
      19A     -0.540806    20A     -0.522003    21A     -0.512306
      22A     -0.498160    23A     -0.459985    24A     -0.440713

  @DF-RHF Final Energy:  -305.98030379947818

   => Energetics <=

    Nuclear Repulsion Energy =            247.2463912441135392
    One-Electron Energy =                -907.2898047712800462
    Two-Electron Energy =                 354.0631097276882429
    DFT Exchange-Correlation Energy =       0.0000000000000000
    Empirical Dispersion Energy =           0.0000000000000000
    PCM Polarization Energy =               0.0000000000000000
    EFP Energy =                            0.0000000000000000
    Total Energy =                       -305.9803037994782926
    Molecular point group: c1
  Basis Set: CC-PVTZ
  Basis Set:

  -Total Gradient:
     Atom            X                  Y                   Z
    ------   -----------------  -----------------  -----------------
       1       -0.000026718555    -0.000040044224    -0.000048934363
       2       -0.001645050707    -0.001240898408    -0.006970823942
       3        0.000242794601    -0.000708447391     0.006840171132
       4        0.003997547324     0.006670611941    -0.005389400936
       5       -0.000003542028    -0.000011779519     0.000004697994
       6        0.000004680820     0.000020221789     0.000009676730
       7       -0.000006770566     0.000007820172     0.000009633012
       8       -0.000007820553     0.000001076117    -0.000006841981
       9        0.000001678134     0.000004117829    -0.000002405249
      10        0.000005212766     0.000001160352     0.000007054635
      11       -0.002568624076    -0.004734621305     0.005550884189
      12        0.000001909040     0.000013287619    -0.000000982697
      13        0.000009266740     0.000007672796     0.000000796981
      14       -0.000004562937     0.000009822235    -0.000003525506

  **** Optimization is complete! (in 7 steps) ****
    Final optimized geometry and variables:
    Molecular point group: c1

    Geometry (in Angstrom), charge = 0, multiplicity = 1:

    O            0.081471910817     1.298249655431     0.093501850482
    C            0.049462937426     0.134911435092    -0.108878486645
    C           -1.201986505312    -0.702622653538    -0.142792274457
    O            1.146475925670    -0.610468709455    -0.233151836391
    C           -2.482447739309     0.110511800928    -0.242140356452
    H           -1.115070220259    -1.415954303103    -0.953651777348
    H           -1.179718744896    -1.288845074413     0.771253089987
    H           -2.507834802926     0.685224067326    -1.159198222689
    H           -3.343564044855    -0.546353690241    -0.229741699567
    H           -2.567225251513     0.804231013188     0.582760365177
    C            2.257516025714    -0.263403988123     0.569051385680
    H            2.643312561119     0.708944487483     0.303134264733
    H            3.005141276513    -1.019229363692     0.391604685530
    H            1.977660018014    -0.263498559659     1.614312929356

  Mulliken Charges: (a.u.)
   Center  Symbol    Alpha    Beta     Spin     Total
       1     O     4.18778  4.18778  0.00000 -0.37556
       2     C     2.80113  2.80113  0.00000  0.39773
       3     C     3.09286  3.09286  0.00000 -0.18573
       4     O     4.15592  4.15592  0.00000 -0.31183
       5     C     3.14097  3.14097  0.00000 -0.28194
       6     H     0.43874  0.43874  0.00000  0.12253
       7     H     0.44585  0.44585  0.00000  0.10831
       8     H     0.45002  0.45002  0.00000  0.09996
       9     H     0.45028  0.45028  0.00000  0.09945
      10     H     0.44579  0.44579  0.00000  0.10842
      11     C     3.03522  3.03522  0.00000 -0.07045
      12     H     0.44737  0.44737  0.00000  0.10526
      13     H     0.44548  0.44548  0.00000  0.10903
      14     H     0.46259  0.46259  0.00000  0.07482

   Total alpha = 24.00000, Total beta = 24.00000, Total charge = -0.00000
