  ==> Input File <==

--------------------------------------------------------------------------
set {
	reference rhf
	basis 6-31G*
}

set_num_threads( 4 )
memory 2 gb

molecule MOL {
0 1

H	 2.926471	 -0.208910	 1.803474
C	 2.232781	 -0.502225	 1.020532
C	 0.983486	 0.372189	 1.062738
H	 1.964721	 -1.542381	 1.168796
H	 2.756773	 -0.425143	 0.073945
N	 -0.000257	 -0.000071	 0.054619
H	 0.529828	 0.261989	 2.039686
H	 1.259983	 1.426852	 0.973725
C	 -1.363055	 0.315058	 0.462241
C	 0.324269	 0.529448	 -1.263315
C	 -2.412078	 -0.285320	 -0.468531
H	 -1.482241	 1.391144	 0.451970
H	 -1.549931	 -0.001174	 1.492681
C	 -0.211999	 -0.338446	 -2.397518
H	 1.401912	 0.575010	 -1.356931
H	 -0.033826	 1.557109	 -1.374980
H	 -2.262839	 0.075384	 -1.480151
H	 -2.369300	 -1.368867	 -0.491760
H	 -3.410332	 -0.003975	 -0.144961
H	 0.190380	 -1.342359	 -2.320804
H	 -1.294123	 -0.411587	 -2.383031
H	 0.075134	 0.076480	 -3.359660

	symmetry c1
}
set optking {
	frozen_dihedral = ("
		3 6 9 11
	")
}

ee = optimize('scf')
oeprop('DIPOLE', 'QUADRUPOLE', 'MULLIKEN_CHARGES')
f=open( 'psi4out.xyz', 'w' )
f.write( "22  " )
f.write( str(ee) + "\n" )
f.write( MOL.save_string_xyz() )
f.close()
--------------------------------------------------------------------------

    Molecular point group: c1
  Charge       = 0
  Multiplicity = 1
  Basis Set: 6-31G*
  Basis Set:
  @DF-RHF Final Energy:  -290.35016716044095
    Total Energy =                       -290.3501671604409466
    Molecular point group: c1
  Basis Set: 6-31G*
  Basis Set:
  Basis Set: 6-31G*
  Basis Set:
  @DF-RHF Final Energy:  -290.36459961006739
    Total Energy =                       -290.3645996100682396
  Basis Set: 6-31G*
  Basis Set:
  Basis Set: 6-31G*
  Basis Set:
  @DF-RHF Final Energy:  -290.36811265926895
    Total Energy =                       -290.3681126592690589
  Basis Set: 6-31G*
  Basis Set:
  Basis Set: 6-31G*
  Basis Set:
  @DF-RHF Final Energy:  -290.36881427104169
    Total Energy =                       -290.3688142710418560
  Basis Set: 6-31G*
  Basis Set:
  @DF-RHF Final Energy:  -290.36922587744954
    Total Energy =                       -290.3692258774498214
  @DF-RHF Final Energy:  -290.36990497372284
    Total Energy =                       -290.3699049737227824
  @DF-RHF Final Energy:  -290.37017383131160
    Total Energy =                       -290.3701738313116039
  @DF-RHF Final Energy:  -290.37020655685620
    Total Energy =                       -290.3702065568558623
  Basis Set: 6-31G*
  Basis Set:
  @DF-RHF Final Energy:  -290.37023458770631
    Total Energy =                       -290.3702345877065909
  Basis Set: 6-31G*
  Basis Set:
  Basis Set: 6-31G*
  Basis Set:
  @DF-RHF Final Energy:  -290.37024259177980
    Total Energy =                       -290.3702425917797427
  Basis Set: 6-31G*
  Basis Set:
  Basis Set: 6-31G*
  Basis Set:
  @DF-RHF Final Energy:  -290.37024416734153
    Total Energy =                       -290.3702441673416956
  Basis Set: 6-31G*
  Basis Set:
  Charge       = 0
  Multiplicity = 1
  Basis Set: 6-31G*
  Basis Set:

    Orbital Energies (a.u.)
    -----------------------

    Doubly Occupied:

       1A    -15.536819     2A    -11.241102     3A    -11.240540
       4A    -11.239343     5A    -11.207224     6A    -11.205828
       7A    -11.201936     8A     -1.222259     9A     -1.027318
      10A     -1.017916    11A     -0.958057    12A     -0.854572
      13A     -0.832424    14A     -0.774097    15A     -0.660518
      16A     -0.641655    17A     -0.608164    18A     -0.600020
      19A     -0.567345    20A     -0.558067    21A     -0.538975
      22A     -0.530513    23A     -0.512640    24A     -0.498298
      25A     -0.489364    26A     -0.476212    27A     -0.466539
      28A     -0.462697    29A     -0.339682

  @DF-RHF Final Energy:  -290.37024437771345

   => Energetics <=

    Nuclear Repulsion Energy =            339.0666859185780595
    One-Electron Energy =               -1063.8536137313940344
    Two-Electron Energy =                 434.4166834351025841
    DFT Exchange-Correlation Energy =       0.0000000000000000
    Empirical Dispersion Energy =           0.0000000000000000
    PCM Polarization Energy =               0.0000000000000000
    EFP Energy =                            0.0000000000000000
    Total Energy =                       -290.3702443777133908
    Molecular point group: c1
  Basis Set: 6-31G*
  Basis Set:

  -Total Gradient:
     Atom            X                  Y                   Z
    ------   -----------------  -----------------  -----------------
       1        0.000004379004     0.000000285778     0.000003492979
       2        0.000004428492     0.000006307145    -0.000006385013
       3        0.000234119284     0.001433235519    -0.000615779842
       4       -0.000004171578     0.000003560188     0.000001126439
       5        0.000000284742    -0.000004297265    -0.000004008898
       6       -0.000235674873    -0.001416550504     0.000503206559
       7       -0.000018331821    -0.000003961290    -0.000010852844
       8       -0.000001309136    -0.000007074452    -0.000005431906
       9       -0.000073882934    -0.001309038861     0.000937470394
      10       -0.000014583479     0.000037811710    -0.000003051737
      11        0.000096728118     0.001275848141    -0.000820383187
      12        0.000015285123    -0.000008329651    -0.000006093015
      13        0.000001074664     0.000006097796     0.000015211379
      14        0.000002565907    -0.000025271402     0.000019687390
      15       -0.000005647307    -0.000009547382     0.000003617738
      16       -0.000008408717     0.000007478275     0.000006717475
      17       -0.000004031044     0.000008235903    -0.000018216393
      18        0.000003558330     0.000006138936     0.000003196514
      19        0.000000801656    -0.000000665520    -0.000000562883
      20        0.000001783642    -0.000006275982    -0.000002844705
      21       -0.000006320211    -0.000002616961    -0.000005293840
      22        0.000007352139     0.000008629881     0.000005177397

  **** Optimization is complete! (in 12 steps) ****
    Final optimized geometry and variables:
    Molecular point group: c1

    Geometry (in Angstrom), charge = 0, multiplicity = 1:

    H            2.995373810980    -0.364964005089     1.812624025144
    C            2.269459568822    -0.556955540331     1.027786628141
    C            1.006582120807     0.264751162629     1.266223070594
    H            2.032628129642    -1.615195868201     1.028911544679
    H            2.743096907727    -0.320042953988     0.081093204150
    N           -0.034744653909    -0.000599117537     0.284734321778
    H            0.615905531442     0.002609912481     2.243104533434
    H            1.259001016399     1.328896735125     1.309024112406
    C           -1.345501910632     0.407246365978     0.767463767969
    C            0.290553948974     0.523800223091    -1.043574437035
    C           -2.499144990177    -0.063589928998    -0.112214989003
    H           -1.407456557866     1.494804436155     0.886134037546
    H           -1.478041477740    -0.019916932573     1.755168096675
    C            0.305548460747    -0.555907395375    -2.121863300449
    H            1.264135829240     1.002089978445    -1.015781720267
    H           -0.408377406186     1.309617258827    -1.321393475623
    H           -2.479249584652     0.384978975345    -1.098839863501
    H           -2.473020951960    -1.141613049685    -0.228820931676
    H           -3.444546153808     0.207198409350     0.348339712654
    H            1.034381786114    -1.322476044494    -1.882157881728
    H           -0.661160564522    -1.037839896484    -2.210951211302
    H            0.562679644244    -0.130158861647    -3.088643171598

  Mulliken Charges: (a.u.)
   Center  Symbol    Alpha    Beta     Spin     Total
       1     H     0.42217  0.42217  0.00000  0.15566
       2     C     3.23907  3.23907  0.00000 -0.47814
       3     C     3.05480  3.05480  0.00000 -0.10961
       4     H     0.41465  0.41465  0.00000  0.17070
       5     H     0.42082  0.42082  0.00000  0.15836
       6     N     3.78507  3.78507  0.00000 -0.57013
       7     H     0.42031  0.42031  0.00000  0.15938
       8     H     0.43416  0.43416  0.00000  0.13169
       9     C     3.05125  3.05125  0.00000 -0.10249
      10     C     3.06703  3.06703  0.00000 -0.13406
      11     C     3.24408  3.24408  0.00000 -0.48816
      12     H     0.43597  0.43597  0.00000  0.12807
      13     H     0.41941  0.41941  0.00000  0.16119
      14     C     3.22921  3.22921  0.00000 -0.45843
      15     H     0.42047  0.42047  0.00000  0.15906
      16     H     0.42349  0.42349  0.00000  0.15301
      17     H     0.41963  0.41963  0.00000  0.16074
      18     H     0.41435  0.41435  0.00000  0.17131
      19     H     0.42031  0.42031  0.00000  0.15938
      20     H     0.41807  0.41807  0.00000  0.16386
      21     H     0.41828  0.41828  0.00000  0.16344
      22     H     0.42740  0.42740  0.00000  0.14519

   Total alpha = 29.00000, Total beta = 29.00000, Total charge =  0.00000
