  ==> Input File <==

--------------------------------------------------------------------------
set {
	reference rhf
	basis 6-31G*
}

set_num_threads( 1 )
memory 2 gb

molecule MOL {
0 1

O	 0.749854	 1.307668	 -0.000040
C	 0.576249	 0.131685	 -0.000108
C	 -0.766779	 -0.556801	 -0.000461
O	 1.568443	 -0.749345	 -0.000005
C	 -1.945214	 0.412366	 0.000161
H	 -0.796911	 -1.211249	 -0.867467
H	 -0.796854	 -1.212390	 0.865687
C	 -3.287791	 -0.317055	 0.000105
H	 -1.876087	 1.060580	 -0.866812
H	 -1.875822	 1.059691	 0.867761
H	 -3.394745	 -0.949193	 -0.877058
H	 -4.111778	 0.388953	 0.000015
H	 -3.394954	 -0.949187	 0.877259
C	 1.903349	 -1.339953	 1.242664
H	 2.211346	 -0.584825	 1.951509
H	 2.719118	 -2.015558	 1.037859
H	 1.059956	 -1.882249	 1.645298

	symmetry c1
}
set optking {
	frozen_dihedral = ("
		1 2 3 6,
		9 5 3 6
	")
}

ee = energy('scf')
oeprop('DIPOLE', 'QUADRUPOLE', 'MULLIKEN_CHARGES')
f=open( 'psi4out.xyz', 'w' )
f.write( "17  " )
f.write( str(ee) + "\n" )
f.write( MOL.save_string_xyz() )
f.close()
--------------------------------------------------------------------------

    Molecular point group: c1

    Geometry (in Angstrom), charge = 0, multiplicity = 1:

       Center              X                  Y                   Z               Mass
    ------------   -----------------  -----------------  -----------------  -----------------
           O          0.901696375580     1.478646588784    -0.191852414919    15.994914619560
           C          0.728091375580     0.302663588784    -0.191920414919    12.000000000000
           C         -0.614936624420    -0.385822411216    -0.192273414919    12.000000000000
           O          1.720285375580    -0.578366411216    -0.191817414919    15.994914619560
           C         -1.793371624420     0.583344588784    -0.191651414919    12.000000000000
           H         -0.645068624420    -1.040270411216    -1.059279414919     1.007825032070
           H         -0.645011624420    -1.041411411216     0.673874585081     1.007825032070
           C         -3.135948624420    -0.146076411216    -0.191707414919    12.000000000000
           H         -1.724244624420     1.231558588784    -1.058624414919     1.007825032070
           H         -1.723979624420     1.230669588784     0.675948585081     1.007825032070
           H         -3.242902624420    -0.778214411216    -1.068870414919     1.007825032070
           H         -3.959935624420     0.559931588784    -0.191797414919     1.007825032070
           H         -3.243111624420    -0.778208411216     0.685446585081     1.007825032070
           C          2.055191375580    -1.168974411216     1.050851585081    12.000000000000
           H          2.363188375580    -0.413846411216     1.759696585081     1.007825032070
           H          2.870960375580    -1.844579411216     0.846046585081     1.007825032070
           H          1.211798375580    -1.711270411216     1.453485585081     1.007825032070

  Charge       = 0
  Multiplicity = 1
  Basis Set: 6-31G*
  Basis Set:

    Orbital Energies (a.u.)
    -----------------------

    Doubly Occupied:

       1A    -20.588649     2A    -20.555427     3A    -11.374254
       4A    -11.296826     5A    -11.238098     6A    -11.223402
       7A    -11.216296     8A     -1.464550     9A     -1.368599
      10A     -1.080441    11A     -0.994675    12A     -0.958303
      13A     -0.835224    14A     -0.768556    15A     -0.699098
      16A     -0.682553    17A     -0.677372    18A     -0.636443
      19A     -0.618093    20A     -0.578123    21A     -0.566371
      22A     -0.547084    23A     -0.518085    24A     -0.492259
      25A     -0.489178    26A     -0.481033    27A     -0.456246
      28A     -0.434181

  @DF-RHF Final Energy:  -344.88378009451725

   => Energetics <=

    Nuclear Repulsion Energy =            314.2313036047846140
    One-Electron Energy =               -1092.5514504893076264
    Two-Electron Energy =                 433.4363667900057067
    DFT Exchange-Correlation Energy =       0.0000000000000000
    Empirical Dispersion Energy =           0.0000000000000000
    PCM Polarization Energy =               0.0000000000000000
    EFP Energy =                            0.0000000000000000
    Total Energy =                       -344.8837800945172489

  Mulliken Charges: (a.u.)
   Center  Symbol    Alpha    Beta     Spin     Total
       1     O     4.25754  4.25754  0.00000 -0.51508
       2     C     2.61518  2.61518  0.00000  0.76964
       3     C     3.21342  3.21342  0.00000 -0.42684
       4     O     4.30867  4.30867  0.00000 -0.61734
       5     C     3.15202  3.15202  0.00000 -0.30405
       6     H     0.39884  0.39884  0.00000  0.20232
       7     H     0.40870  0.40870  0.00000  0.18261
       8     C     3.24249  3.24249  0.00000 -0.48497
       9     H     0.40926  0.40926  0.00000  0.18149
      10     H     0.41207  0.41207  0.00000  0.17586
      11     H     0.42108  0.42108  0.00000  0.15783
      12     H     0.41485  0.41485  0.00000  0.17029
      13     H     0.42280  0.42280  0.00000  0.15440
      14     C     3.09411  3.09411  0.00000 -0.18821
      15     H     0.40856  0.40856  0.00000  0.18288
      16     H     0.39990  0.39990  0.00000  0.20020
      17     H     0.42052  0.42052  0.00000  0.15897

   Total alpha = 28.00000, Total beta = 28.00000, Total charge = -0.00000
