  ==> Input File <==

--------------------------------------------------------------------------
set {
	reference rhf
	basis cc-pvtz
}

set_num_threads( 4 )
memory 2 gb

molecule MOL {
0 1

H	 0.826484	 0.640780	 2.358022
C	 1.423275	 0.431905	 1.460322
C	 0.692262	 0.592428	 0.156232
O	 2.554166	 0.103715	 1.565251
C	 -0.554654	 -0.292621	 0.086567
H	 1.378171	 0.371349	 -0.650917
H	 0.398521	 1.636873	 0.074202
C	 -1.846385	 0.513195	 -0.016346
H	 -0.473986	 -0.956115	 -0.769708
H	 -0.597929	 -0.929215	 0.966651
C	 -3.089953	 -0.365049	 -0.098564
H	 -1.798267	 1.154820	 -0.891143
H	 -1.925398	 1.173265	 0.842889
H	 -3.055079	 -1.012299	 -0.968245
H	 -3.988403	 0.236438	 -0.170014
H	 -3.183055	 -0.995885	 0.779079

	symmetry c1
}
set optking {
	frozen_dihedral = ("
		6 3 5 9
	")
}

ee = optimize('scf')
oeprop('DIPOLE', 'QUADRUPOLE', 'MULLIKEN_CHARGES')
f=open( 'psi4out.xyz', 'w' )
f.write( "16  " )
f.write( str(ee) + "\n" )
f.write( MOL.save_string_xyz() )
f.close()
--------------------------------------------------------------------------

    Molecular point group: c1
  Charge       = 0
  Multiplicity = 1
  Basis Set: CC-PVTZ
  Basis Set:
  @DF-RHF Final Energy:  -270.11404573210882
    Total Energy =                       -270.1140457321088775
    Molecular point group: c1
  Basis Set: CC-PVTZ
  Basis Set:
  Basis Set: CC-PVTZ
  Basis Set:
  @DF-RHF Final Energy:  -270.11404791205962
    Total Energy =                       -270.1140479120593909
  Basis Set: CC-PVTZ
  Basis Set:
  Basis Set: CC-PVTZ
  Basis Set:
  @DF-RHF Final Energy:  -270.11104605453778
    Total Energy =                       -270.1110460545380647
  Basis Set: CC-PVTZ
  Basis Set:
  Basis Set: CC-PVTZ
  Basis Set:
  @DF-RHF Final Energy:  -270.11440022351735
    Total Energy =                       -270.1144002235174071
  Basis Set: CC-PVTZ
  Basis Set:
  Basis Set: CC-PVTZ
  Basis Set:
  @DF-RHF Final Energy:  -270.11443499001564
    Total Energy =                       -270.1144349900156953
  Basis Set: CC-PVTZ
  Basis Set:
  Basis Set: CC-PVTZ
  Basis Set:
  @DF-RHF Final Energy:  -270.11444138211886
    Total Energy =                       -270.1144413821190255
  Basis Set: CC-PVTZ
  Basis Set:
  Basis Set: CC-PVTZ
  Basis Set:
  @DF-RHF Final Energy:  -270.11444716884887
    Total Energy =                       -270.1144471688489830
  Basis Set: CC-PVTZ
  Basis Set:
  Charge       = 0
  Multiplicity = 1
  Basis Set: CC-PVTZ
  Basis Set:

    Orbital Energies (a.u.)
    -----------------------

    Doubly Occupied:

       1A    -20.551524     2A    -11.321735     3A    -11.234594
       4A    -11.233924     5A    -11.228854     6A    -11.217471
       7A     -1.406892     8A     -1.096641     9A     -1.019575
      10A     -0.907529    11A     -0.817905    12A     -0.794007
      13A     -0.672833    14A     -0.657679    15A     -0.620808
      16A     -0.609417    17A     -0.583413    18A     -0.557318
      19A     -0.536314    20A     -0.508927    21A     -0.485121
      22A     -0.484132    23A     -0.476148    24A     -0.412292

  @DF-RHF Final Energy:  -270.11444771854735

   => Energetics <=

    Nuclear Repulsion Energy =            229.7393599703471807
    One-Electron Energy =                -820.8375075927268654
    Two-Electron Energy =                 320.9836999038322460
    DFT Exchange-Correlation Energy =       0.0000000000000000
    Empirical Dispersion Energy =           0.0000000000000000
    PCM Polarization Energy =               0.0000000000000000
    EFP Energy =                            0.0000000000000000
    Total Energy =                       -270.1144477185474102
    Molecular point group: c1
  Basis Set: CC-PVTZ
  Basis Set:

  -Total Gradient:
     Atom            X                  Y                   Z
    ------   -----------------  -----------------  -----------------
       1       -0.000027560290    -0.000004629122     0.000001040665
       2        0.000029497424     0.000020579936    -0.000007199715
       3        0.000224730220    -0.000288105484     0.000273689625
       4       -0.000023323860    -0.000003431724    -0.000016472421
       5       -0.000226159360     0.000260499531    -0.000246172031
       6       -0.000133667853     0.000199686981    -0.000182159803
       7        0.000007703701    -0.000002894645     0.000009642727
       8        0.000015931412     0.000009694117    -0.000004459558
       9        0.000131874887    -0.000194333148     0.000170309234
      10        0.000002481840     0.000008539438    -0.000004458062
      11       -0.000001989811    -0.000006366737     0.000006165731
      12        0.000002714132     0.000002558677    -0.000000368114
      13       -0.000003656713    -0.000000005066     0.000000146027
      14        0.000000047131     0.000001978314    -0.000002130147
      15        0.000003929390     0.000000923924     0.000001056798
      16       -0.000002552245    -0.000004694990     0.000001369045

  **** Optimization is complete! (in 8 steps) ****
    Final optimized geometry and variables:
    Molecular point group: c1

    Geometry (in Angstrom), charge = 0, multiplicity = 1:

    H            0.936540177190     0.345431234629     1.824809259793
    C            1.569429559702     0.253223810050     0.931745344608
    C            0.844824081002     0.398081908731    -0.378499869099
    O            2.729167554055     0.056805792315     1.045874634141
    C           -0.429449147112    -0.470363311912    -0.451400867684
    H            1.540258034789     0.170853644068    -1.173927030814
    H            0.581078361155     1.448799034029    -0.471775980593
    C           -1.722196491973     0.335539015625    -0.552851905451
    H           -0.353423379045    -1.136735830219    -1.302495587809
    H           -0.486453778706    -1.116353914322     0.420974206876
    C           -2.966996261281    -0.540785749644    -0.626636996632
    H           -1.674659261939     0.973633070477    -1.430792431623
    H           -1.798198364755     1.001171958672     0.302987680281
    H           -2.934551813720    -1.193658567292    -1.492322893505
    H           -3.865030155202     0.061107001774    -0.699780638259
    H           -3.058741708731    -1.166409319158     0.254859993008

  Mulliken Charges: (a.u.)
   Center  Symbol    Alpha    Beta     Spin     Total
       1     H     0.46661  0.46661  0.00000  0.06677
       2     C     2.90302  2.90302  0.00000  0.19397
       3     C     3.08701  3.08701  0.00000 -0.17402
       4     O     4.16427  4.16427  0.00000 -0.32853
       5     C     3.10640  3.10640  0.00000 -0.21279
       6     H     0.43742  0.43742  0.00000  0.12516
       7     H     0.44882  0.44882  0.00000  0.10236
       8     C     3.08454  3.08454  0.00000 -0.16909
       9     H     0.44200  0.44200  0.00000  0.11599
      10     H     0.45149  0.45149  0.00000  0.09702
      11     C     3.14963  3.14963  0.00000 -0.29927
      12     H     0.45106  0.45106  0.00000  0.09789
      13     H     0.45372  0.45372  0.00000  0.09256
      14     H     0.45350  0.45350  0.00000  0.09301
      15     H     0.44665  0.44665  0.00000  0.10671
      16     H     0.45387  0.45387  0.00000  0.09227

   Total alpha = 24.00000, Total beta = 24.00000, Total charge = -0.00000
