                              Psi4 1.0.54 Driver

  ==> Input File <==

--------------------------------------------------------------------------
set {
	reference rhf
	basis cc-pvtz
}

set_num_threads( 4 )
memory 2 gb

molecule MOL {
0 1

H	 -2.596638	 1.074188	 -0.840293
N	 -1.615606	 1.106732	 -0.662561
C	 -0.869421	 0.490722	 -1.744171
H	 -1.447053	 0.617413	 0.190759
C	 0.614087	 0.537284	 -1.458370
H	 -1.151103	 -0.544962	 -1.930074
H	 -1.056442	 1.047257	 -2.655951
O	 0.881195	 -0.248324	 -0.336237
H	 1.167984	 0.162342	 -2.317899
H	 0.919450	 1.565485	 -1.278132
C	 2.208068	 -0.234417	 0.074171
H	 2.725499	 -1.027054	 -0.446768
H	 2.688377	 0.712084	 -0.164856
H	 2.295137	 -0.403407	 1.144883

	symmetry c1
}
set optking {
	frozen_dihedral = ("
		5 8 11 13
	")
}

ee,wfn = optimize('scf', return_wfn=True)
oeprop( wfn, 'DIPOLE', 'QUADRUPOLE', 'MULLIKEN_CHARGES')
f=open( 'psi4out.xyz', 'w' )
f.write( "14  " )
f.write( str(ee) + "\n" )
f.write( MOL.save_string_xyz() )
f.close()
--------------------------------------------------------------------------

    Molecular point group: c1
  Charge       = 0
  Multiplicity = 1
  Basis Set: CC-PVTZ
  Basis Set:
  @DF-RHF Final Energy:  -248.22363315796454
    Total Energy =                       -248.2236331579645139
    Molecular point group: c1
  Basis Set: CC-PVTZ
  Basis Set:
  Basis Set: CC-PVTZ
  Basis Set:
  @DF-RHF Final Energy:  -248.22422638461123
    Total Energy =                       -248.2242263846111996
  Basis Set: CC-PVTZ
  Basis Set:
  Basis Set: CC-PVTZ
  Basis Set:
  @DF-RHF Final Energy:  -248.22436284507560
    Total Energy =                       -248.2243628450757456
  Basis Set: CC-PVTZ
  Basis Set:
  Charge       = 0
  Multiplicity = 1
  Basis Set: CC-PVTZ
  Basis Set:

    Orbital Energies (a.u.)
    -----------------------

    Doubly Occupied:

       1A    -20.549073     2A    -15.523285     3A    -11.264310
       4A    -11.263464     5A    -11.239635     6A     -1.382298
       7A     -1.175784     8A     -1.000573     9A     -0.907810
      10A     -0.815740    11A     -0.684184    12A     -0.675046
      13A     -0.646728    14A     -0.611978    15A     -0.607622
      16A     -0.541589    17A     -0.532322    18A     -0.498163
      19A     -0.474194    20A     -0.417215    21A     -0.383678

  @DF-RHF Final Energy:  -248.22436384040373

   => Energetics <=

    Nuclear Repulsion Energy =            194.5663224541550562
    One-Electron Energy =                -723.1919846507053080
    Two-Electron Energy =                 280.4012983561466967
    DFT Exchange-Correlation Energy =       0.0000000000000000
    Empirical Dispersion Energy =           0.0000000000000000
    PCM Polarization Energy =               0.0000000000000000
    EFP Energy =                            0.0000000000000000
    Total Energy =                       -248.2243638404035551
    Molecular point group: c1
  Basis Set: CC-PVTZ
  Basis Set:

  -Total Gradient:
     Atom            X                  Y                   Z
    ------   -----------------  -----------------  -----------------
       1        0.000010764533    -0.000003224590    -0.000023652205
       2        0.000015270361     0.000010804597    -0.000006408606
       3       -0.000013008565    -0.000088053494     0.000043021778
       4        0.000018146382     0.000006656644    -0.000018871755
       5       -0.000434662158     0.001951749811     0.001265979824
       6       -0.000021126978    -0.000006258565    -0.000007131849
       7        0.000002410762     0.000009246718     0.000011820808
       8        0.000945982235    -0.002967215914    -0.002450065354
       9       -0.000017376088    -0.000028775468     0.000054784539
      10        0.000027388976     0.000014221254    -0.000004037760
      11       -0.001269801933     0.002162642946     0.003602061793
      12        0.000001600661    -0.000015319231    -0.000007736130
      13        0.000798609036    -0.001064809639    -0.002448468717
      14       -0.000064197221     0.000018334929    -0.000011296367

  **** Optimization is complete! (in 4 steps) ****
    Final optimized geometry and variables:
    Molecular point group: c1

    Geometry (in Angstrom), charge = 0, multiplicity = 1:

    H           -2.854656713046     0.693295036811    -0.077644936294
    N           -1.875334963354     0.753164529210     0.102275206778
    C           -1.111704693116     0.114551085058    -0.953611314352
    H           -1.700029756090     0.298478244913     0.973143722888
    C            0.369124827462     0.200822682327    -0.662818575908
    H           -1.372150600142    -0.932284758193    -1.104608238887
    H           -1.304436679663     0.635130976622    -1.885299420582
    O            0.642165695253    -0.536087869481     0.491067465726
    H            0.932293150812    -0.194280659779    -1.507345249119
    H            0.653369379300     1.239926402440    -0.518453207394
    C            1.964088100137    -0.500683690079     0.924977983050
    H            2.540988751202    -1.306183381383     0.476711167207
    H            2.447270632841     0.435856314699     0.662609301048
    H            1.977987810546    -0.620112933699     1.999241676605

  Mulliken Charges: (a.u.)
   Center  Symbol    Alpha    Beta     Spin     Total
       1     H     0.43029  0.43029  0.00000  0.13942
       2     N     3.69423  3.69423  0.00000 -0.38845
       3     C     3.02299  3.02299  0.00000 -0.04599
       4     H     0.42233  0.42233  0.00000  0.15534
       5     C     2.96894  2.96894  0.00000  0.06212
       6     H     0.46458  0.46458  0.00000  0.07084
       7     H     0.45872  0.45872  0.00000  0.08256
       8     O     4.18238  4.18238  0.00000 -0.36475
       9     H     0.47093  0.47093  0.00000  0.05814
      10     H     0.46723  0.46723  0.00000  0.06554
      11     C     3.02952  3.02952  0.00000 -0.05904
      12     H     0.46494  0.46494  0.00000  0.07012
      13     H     0.47254  0.47254  0.00000  0.05491
      14     H     0.45038  0.45038  0.00000  0.09923

   Total alpha = 21.00000, Total beta = 21.00000, Total charge = -0.00000

*** Psi4 exiting successfully. Buy a developer a beer!
