  ==> Input File <==

--------------------------------------------------------------------------
set {
	reference rhf
	basis cc-pvtz
}

set_num_threads( 4 )
memory 2 gb

molecule MOL {
0 1

H	 2.300172	 0.700321	 -0.566647
O	 2.063695	 -0.083403	 -0.105237
C	 0.742924	 0.005675	 0.350750
H	 0.731380	 0.039219	 1.440080
C	 -0.064076	 -1.193495	 -0.124425
C	 -0.047832	 1.190568	 -0.194462
H	 0.194729	 -1.376165	 -1.161308
H	 0.163013	 -2.094508	 0.429933
C	 -1.533112	 -0.752002	 0.006102
H	 0.148003	 1.266545	 -1.259275
H	 0.226235	 2.136493	 0.259722
C	 -1.506634	 0.799189	 0.067162
H	 -2.124360	 -1.110499	 -0.826089
H	 -1.983103	 -1.158030	 0.903403
H	 -2.183808	 1.252169	 -0.644677
H	 -1.813926	 1.138698	 1.049457

	symmetry c1
}
set optking {
	frozen_dihedral = ("
		1 2 3 6
	")
}

ee = optimize('scf')
oeprop('DIPOLE', 'QUADRUPOLE', 'MULLIKEN_CHARGES')
f=open( 'psi4out.xyz', 'w' )
f.write( "16  " )
f.write( str(ee) + "\n" )
f.write( MOL.save_string_xyz() )
f.close()
--------------------------------------------------------------------------

    Molecular point group: c1
  Charge       = 0
  Multiplicity = 1
  Basis Set: CC-PVTZ
  Basis Set:
  @DF-RHF Final Energy:  -270.11432291633730
    Total Energy =                       -270.1143229163371871
    Molecular point group: c1
  Basis Set: CC-PVTZ
  Basis Set:
  Basis Set: CC-PVTZ
  Basis Set:
  @DF-RHF Final Energy:  -270.11466292910814
    Total Energy =                       -270.1146629291081354
  Basis Set: CC-PVTZ
  Basis Set:
  Basis Set: CC-PVTZ
  Basis Set:
  @DF-RHF Final Energy:  -270.11475362083775
    Total Energy =                       -270.1147536208377460
  Basis Set: CC-PVTZ
  Basis Set:
  Basis Set: CC-PVTZ
  Basis Set:
  @DF-RHF Final Energy:  -270.11475997994734
    Total Energy =                       -270.1147599799475074
  Basis Set: CC-PVTZ
  Basis Set:
  @DF-RHF Final Energy:  -270.11477042351180
    Total Energy =                       -270.1147704235117999
  @DF-RHF Final Energy:  -270.11478185136843
    Total Energy =                       -270.1147818513685479
  @DF-RHF Final Energy:  -270.11479116823148
    Total Energy =                       -270.1147911682317044
  Basis Set: CC-PVTZ
  Basis Set:
  @DF-RHF Final Energy:  -270.11479832220891
    Total Energy =                       -270.1147983222088556
  Basis Set: CC-PVTZ
  Basis Set:
  Basis Set: CC-PVTZ
  Basis Set:
  @DF-RHF Final Energy:  -270.11480399231419
    Total Energy =                       -270.1148039923140232
  Basis Set: CC-PVTZ
  Basis Set:
  Basis Set: CC-PVTZ
  Basis Set:
  @DF-RHF Final Energy:  -270.11480523172258
    Total Energy =                       -270.1148052317226984
  Basis Set: CC-PVTZ
  Basis Set:
  Charge       = 0
  Multiplicity = 1
  Basis Set: CC-PVTZ
  Basis Set:

    Orbital Energies (a.u.)
    -----------------------

    Doubly Occupied:

       1A    -20.543473     2A    -11.267156     3A    -11.218493
       4A    -11.217713     5A    -11.214887     6A    -11.206956
       7A     -1.363917     8A     -1.117113     9A     -0.969893
      10A     -0.949996    11A     -0.799819    12A     -0.781637
      13A     -0.685648    14A     -0.666908    15A     -0.611867
      16A     -0.602224    17A     -0.576056    18A     -0.532105
      19A     -0.503039    20A     -0.484964    21A     -0.473339
      22A     -0.458891    23A     -0.447760    24A     -0.423241

  @DF-RHF Final Energy:  -270.11480550086617

   => Energetics <=

    Nuclear Repulsion Energy =            255.5891059659554685
    One-Electron Energy =                -873.1736312319690114
    Two-Electron Energy =                 347.4697197651475449
    DFT Exchange-Correlation Energy =       0.0000000000000000
    Empirical Dispersion Energy =           0.0000000000000000
    PCM Polarization Energy =               0.0000000000000000
    EFP Energy =                            0.0000000000000000
    Total Energy =                       -270.1148055008659981
    Molecular point group: c1
  Basis Set: CC-PVTZ
  Basis Set:

  -Total Gradient:
     Atom            X                  Y                   Z
    ------   -----------------  -----------------  -----------------
       1       -0.000221623449    -0.000283074437    -0.000688505692
       2        0.000333572917     0.000470690486     0.001038111669
       3       -0.000244690625    -0.000437208877    -0.000748965312
       4       -0.000002082010    -0.000003164723     0.000000360124
       5        0.000001100512     0.000001557910    -0.000000375875
       6        0.000127804812     0.000259268516     0.000403267548
       7        0.000001049048    -0.000009065387     0.000000543591
       8        0.000001002388     0.000004166886     0.000006412176
       9        0.000002754896    -0.000003377475     0.000007783360
      10       -0.000000117523    -0.000011723252    -0.000001536001
      11        0.000000899074     0.000006814816    -0.000011074285
      12        0.000001270286     0.000005428658    -0.000009620351
      13        0.000011212440     0.000005269246    -0.000011703132
      14       -0.000015671279    -0.000007514564    -0.000007712778
      15       -0.000011359298     0.000009979155     0.000014210054
      16        0.000014877811    -0.000008046958     0.000008804904

  **** Optimization is complete! (in 11 steps) ****
    Final optimized geometry and variables:
    Molecular point group: c1

    Geometry (in Angstrom), charge = 0, multiplicity = 1:

    H            2.340136082948     0.728751607870    -0.476547108218
    O            2.083557972395    -0.074159139786    -0.064102090278
    C            0.742895625431    -0.013392103280     0.341912359059
    H            0.720468064193    -0.008671883673     1.429988337589
    C           -0.076964553841    -1.191713664865    -0.164615551835
    C           -0.038554576411     1.190816175787    -0.171829190973
    H            0.124946935392    -1.314742647940    -1.223639448359
    H            0.176112366457    -2.122519153071     0.326089466919
    C           -1.529541797015    -0.755081501643     0.070753899847
    H            0.176523018833     1.314661732338    -1.230423428126
    H            0.227566341618     2.114633495780     0.328337160525
    C           -1.510801524520     0.797942067748     0.031794494757
    H           -2.200438405954    -1.173677808463    -0.667508863921
    H           -1.876930414434    -1.098962570742     1.037418636973
    H           -2.138551306470     1.193866190178    -0.755318887155
    H           -1.886627084395     1.203430712354     0.962822687864

  Mulliken Charges: (a.u.)
   Center  Symbol    Alpha    Beta     Spin     Total
       1     H     0.39094  0.39094  0.00000  0.21812
       2     O     4.20805  4.20805  0.00000 -0.41609
       3     C     2.92381  2.92381  0.00000  0.15238
       4     H     0.45909  0.45909  0.00000  0.08181
       5     C     3.09165  3.09165  0.00000 -0.18331
       6     C     3.11793  3.11793  0.00000 -0.23586
       7     H     0.45719  0.45719  0.00000  0.08561
       8     H     0.44352  0.44352  0.00000  0.11296
       9     C     3.11444  3.11444  0.00000 -0.22887
      10     H     0.45654  0.45654  0.00000  0.08693
      11     H     0.44195  0.44195  0.00000  0.11611
      12     C     3.11037  3.11037  0.00000 -0.22074
      13     H     0.44383  0.44383  0.00000  0.11233
      14     H     0.44890  0.44890  0.00000  0.10220
      15     H     0.44432  0.44432  0.00000  0.11135
      16     H     0.44746  0.44746  0.00000  0.10507

   Total alpha = 24.00000, Total beta = 24.00000, Total charge = -0.00000
