  ==> Input File <==

--------------------------------------------------------------------------
set {
	reference rhf
	basis 6-31G*
}

set_num_threads( 4 )
memory 2 gb

molecule MOL {
0 1

H	 -2.528070	 -0.435807	 -0.504577
N	 -1.852125	 0.165761	 -0.074816
C	 -0.563778	 -0.502042	 0.037919
H	 -2.207575	 0.398974	 0.832941
C	 0.575259	 0.508231	 -0.048326
H	 -0.482092	 -1.204004	 -0.786564
H	 -0.460411	 -1.085169	 0.956626
C	 1.954651	 -0.143624	 0.035137
H	 0.475158	 1.060484	 -0.977307
H	 0.469181	 1.234488	 0.755973
H	 2.103292	 -0.853109	 -0.774172
H	 2.742821	 0.599562	 -0.030094
H	 2.083613	 -0.679371	 0.971560

	symmetry c1
}
set optking {
	frozen_dihedral = ("
		1 2 3 6
	")
}

ee = optimize('scf')
oeprop('DIPOLE', 'QUADRUPOLE', 'MULLIKEN_CHARGES')
f=open( 'psi4out.xyz', 'w' )
f.write( "13  " )
f.write( str(ee) + "\n" )
f.write( MOL.save_string_xyz() )
f.close()
--------------------------------------------------------------------------

    Molecular point group: c1
  Charge       = 0
  Multiplicity = 1
  Basis Set: 6-31G*
  Basis Set:
  @DF-RHF Final Energy:  -173.28080840161610
    Total Energy =                       -173.2808084016160421
    Molecular point group: c1
  Basis Set: 6-31G*
  Basis Set:
  Basis Set: 6-31G*
  Basis Set:
  @DF-RHF Final Energy:  -173.28100946262879
    Total Energy =                       -173.2810094626288162
  Basis Set: 6-31G*
  Basis Set:
  Basis Set: 6-31G*
  Basis Set:
  @DF-RHF Final Energy:  -173.28106680016865
    Total Energy =                       -173.2810668001686452
  Basis Set: 6-31G*
  Basis Set:
  Basis Set: 6-31G*
  Basis Set:
  @DF-RHF Final Energy:  -173.28106818070464
    Total Energy =                       -173.2810681807046649
  Basis Set: 6-31G*
  Basis Set:
  Basis Set: 6-31G*
  Basis Set:
  @DF-RHF Final Energy:  -173.28106921864233
    Total Energy =                       -173.2810692186422443
  Basis Set: 6-31G*
  Basis Set:
  Charge       = 0
  Multiplicity = 1
  Basis Set: 6-31G*
  Basis Set:

    Orbital Energies (a.u.)
    -----------------------

    Doubly Occupied:

       1A    -15.531215     2A    -11.240393     3A    -11.207659
       4A    -11.206809     5A     -1.174349     6A     -1.032988
       7A     -0.897996     8A     -0.796257     9A     -0.671089
      10A     -0.618109    11A     -0.602409    12A     -0.570313
      13A     -0.522321    14A     -0.489680    15A     -0.482137
      16A     -0.464959    17A     -0.377211

  @DF-RHF Final Energy:  -173.28106927466817

   => Energetics <=

    Nuclear Repulsion Energy =            131.5661949395586987
    One-Electron Energy =                -493.9227398761335621
    Two-Electron Energy =                 189.0754756619066370
    DFT Exchange-Correlation Energy =       0.0000000000000000
    Empirical Dispersion Energy =           0.0000000000000000
    PCM Polarization Energy =               0.0000000000000000
    EFP Energy =                            0.0000000000000000
    Total Energy =                       -173.2810692746682548
    Molecular point group: c1
  Basis Set: 6-31G*
  Basis Set:

  -Total Gradient:
     Atom            X                  Y                   Z
    ------   -----------------  -----------------  -----------------
       1        0.000654494285     0.000966156050    -0.002494247465
       2       -0.001049610385    -0.001623568976     0.003457143034
       3        0.001383388636     0.002435909355    -0.002385553814
       4       -0.000001212030    -0.000002480956     0.000000161275
       5       -0.000005810524    -0.000011887672    -0.000017689299
       6       -0.000990808179    -0.001767722908     0.001425579423
       7       -0.000003183668    -0.000007478682     0.000009525866
       8        0.000006580636     0.000007650996     0.000005137224
       9        0.000003168735     0.000003411145     0.000000648189
      10        0.000000981874     0.000001996160     0.000001873219
      11        0.000000844653     0.000001730349    -0.000003265515
      12        0.000001937768    -0.000002857372     0.000002545843
      13       -0.000000771803    -0.000000857489    -0.000001857979

  **** Optimization is complete! (in 6 steps) ****
    Final optimized geometry and variables:
    Molecular point group: c1

    Geometry (in Angstrom), charge = 0, multiplicity = 1:

    H           -2.545705418964    -0.436792339317    -0.469807605690
    N           -1.856656184666     0.159879690180    -0.059390871750
    C           -0.558758670116    -0.496329016539     0.027471033263
    H           -2.189279462877     0.446667943432     0.839243122150
    C            0.579283960867     0.516041669748    -0.047231833413
    H           -0.480237762386    -1.202929042977    -0.793404360595
    H           -0.452958275288    -1.089893387094     0.938227095895
    C            1.959387285678    -0.132992000190     0.046585672357
    H            0.484738712720     1.071256539074    -0.975088152300
    H            0.459626564389     1.239645925961     0.756406408311
    H            2.117278431891    -0.841246734463    -0.762468807152
    H            2.747215200566     0.611318844945    -0.010334817283
    H            2.081873511341    -0.670654387810     0.983025533672

  Mulliken Charges: (a.u.)
   Center  Symbol    Alpha    Beta     Spin     Total
       1     H     0.33064  0.33064  0.00000  0.33871
       2     N     3.92655  3.92655  0.00000 -0.85310
       3     C     3.06259  3.06259  0.00000 -0.12517
       4     H     0.33258  0.33258  0.00000  0.33483
       5     C     3.14306  3.14306  0.00000 -0.28612
       6     H     0.42295  0.42295  0.00000  0.15410
       7     H     0.43266  0.43266  0.00000  0.13467
       8     C     3.24536  3.24536  0.00000 -0.49071
       9     H     0.41526  0.41526  0.00000  0.16947
      10     H     0.42506  0.42506  0.00000  0.14989
      11     H     0.42240  0.42240  0.00000  0.15520
      12     H     0.41788  0.41788  0.00000  0.16423
      13     H     0.42301  0.42301  0.00000  0.15398

   Total alpha = 17.00000, Total beta = 17.00000, Total charge = -0.00000
