  ==> Input File <==

--------------------------------------------------------------------------
set {
	reference rhf
	basis 6-31G*
}

set_num_threads( 1 )
memory 2 gb

molecule MOL {
0 1

O	 3.251039	 1.036032	 -0.439697
C	 2.701189	 0.057885	 -0.047330
C	 1.209899	 -0.106744	 0.119224
O	 3.347903	 -1.046386	 0.304773
C	 0.420228	 1.135974	 -0.285975
H	 0.919663	 -0.978995	 -0.457085
H	 1.027504	 -0.364154	 1.159498
C	 -1.085513	 1.022865	 -0.024352
H	 0.596250	 1.345911	 -1.336718
H	 0.812436	 1.987740	 0.259085
C	 -1.811265	 -0.024413	 -0.873825
H	 -1.534216	 1.995261	 -0.213653
H	 -1.255423	 0.812854	 1.030652
C	 -3.325595	 -0.022296	 -0.655196
H	 -1.599720	 0.159487	 -1.926084
H	 -1.426218	 -1.017549	 -0.653842
C	 -4.060719	 -1.068399	 -1.495073
H	 -3.721054	 0.965357	 -0.886255
H	 -3.537506	 -0.195470	 0.398751
C	 -5.572864	 -1.057133	 -1.273736
H	 -3.849244	 -0.897428	 -2.548491
H	 -3.669823	 -2.056739	 -1.262337
H	 -6.065532	 -1.809092	 -1.882376
H	 -5.999557	 -0.091816	 -1.531208
H	 -5.818617	 -1.259455	 -0.235013
C	 4.728119	 -1.109107	 -0.004993
H	 4.882018	 -1.033965	 -1.071845
H	 5.068212	 -2.067527	 0.355250
H	 5.265056	 -0.311663	 0.488280

	symmetry c1
}
set optking {
	frozen_dihedral = ("
		21 17 14 11,
		17 14 11 15,
		15 11 8 5,
		6 3 5 9,
		11 8 5 9,
		2 4 26 27,
		6 3 2 1
	")
}

ee = energy('scf')
oeprop('DIPOLE', 'QUADRUPOLE', 'MULLIKEN_CHARGES')
f=open( 'psi4out.xyz', 'w' )
f.write( "29  " )
f.write( str(ee) + "\n" )
f.write( MOL.save_string_xyz() )
f.close()
--------------------------------------------------------------------------

    Molecular point group: c1

    Geometry (in Angstrom), charge = 0, multiplicity = 1:

       Center              X                  Y                   Z               Mass
    ------------   -----------------  -----------------  -----------------  -----------------
           O          3.226187860566     1.156672507263    -0.015697915488    15.994914619560
           C          2.676337860566     0.178525507263     0.376669084512    12.000000000000
           C          1.185047860566     0.013896507263     0.543223084512    12.000000000000
           O          3.323051860566    -0.925745492737     0.728772084512    15.994914619560
           C          0.395376860566     1.256614507263     0.138024084512    12.000000000000
           H          0.894811860566    -0.858354492737    -0.033085915488     1.007825032070
           H          1.002652860566    -0.243513492737     1.583497084512     1.007825032070
           C         -1.110364139434     1.143505507263     0.399647084512    12.000000000000
           H          0.571398860566     1.466551507263    -0.912718915488     1.007825032070
           H          0.787584860566     2.108380507263     0.683084084512     1.007825032070
           C         -1.836116139434     0.096227507263    -0.449825915488    12.000000000000
           H         -1.559067139434     2.115901507263     0.210346084512     1.007825032070
           H         -1.280274139434     0.933494507263     1.454651084512     1.007825032070
           C         -3.350446139434     0.098344507263    -0.231196915488    12.000000000000
           H         -1.624571139434     0.280127507263    -1.502084915488     1.007825032070
           H         -1.451069139434    -0.896908492737    -0.229842915488     1.007825032070
           C         -4.085570139434    -0.947758492737    -1.071073915488    12.000000000000
           H         -3.745905139434     1.085997507263    -0.462255915488     1.007825032070
           H         -3.562357139434    -0.074829492737     0.822750084512     1.007825032070
           C         -5.597715139434    -0.936492492737    -0.849736915488    12.000000000000
           H         -3.874095139434    -0.776787492737    -2.124491915488     1.007825032070
           H         -3.694674139434    -1.936098492737    -0.838337915488     1.007825032070
           H         -6.090383139434    -1.688451492737    -1.458376915488     1.007825032070
           H         -6.024408139434     0.028824507263    -1.107208915488     1.007825032070
           H         -5.843468139434    -1.138814492737     0.188986084512     1.007825032070
           C          4.703267860566    -0.988466492737     0.419006084512    12.000000000000
           H          4.857166860566    -0.913324492737    -0.647845915488     1.007825032070
           H          5.043360860566    -1.946886492737     0.779249084512     1.007825032070
           H          5.240204860566    -0.191022492737     0.912279084512     1.007825032070

  Charge       = 0
  Multiplicity = 1
  Basis Set: 6-31G*
  Basis Set:

    Orbital Energies (a.u.)
    -----------------------

    Doubly Occupied:

       1A    -20.602782     2A    -20.545419     3A    -11.372062
       4A    -11.280905     5A    -11.234755     6A    -11.219112
       7A    -11.217640     8A    -11.216083     9A    -11.215944
      10A    -11.214531    11A    -11.209129    12A     -1.468891
      13A     -1.362562    14A     -1.098109    15A     -1.066834
      16A     -1.019461    17A     -0.977275    18A     -0.928736
      19A     -0.861714    20A     -0.799336    21A     -0.790560
      22A     -0.763826    23A     -0.700752    24A     -0.682192
      25A     -0.671994    26A     -0.651089    27A     -0.628750
      28A     -0.604746    29A     -0.595309    30A     -0.581071
      31A     -0.567470    32A     -0.548510    33A     -0.533005
      34A     -0.530408    35A     -0.514311    36A     -0.512561
      37A     -0.497039    38A     -0.477930    39A     -0.470141
      40A     -0.462444    41A     -0.459648    42A     -0.454825
      43A     -0.440933    44A     -0.435402

  @DF-RHF Final Energy:  -501.04344918117488

   => Energetics <=

    Nuclear Repulsion Energy =            610.3134213992628929
    One-Electron Energy =               -1891.7414001957522487
    Two-Electron Energy =                 780.3845296153112940
    DFT Exchange-Correlation Energy =       0.0000000000000000
    Empirical Dispersion Energy =           0.0000000000000000
    PCM Polarization Energy =               0.0000000000000000
    EFP Energy =                            0.0000000000000000
    Total Energy =                       -501.0434491811779480

  Mulliken Charges: (a.u.)
   Center  Symbol    Alpha    Beta     Spin     Total
       1     O     4.28537  4.28537  0.00000 -0.57073
       2     C     2.60474  2.60474  0.00000  0.79051
       3     C     3.20989  3.20989  0.00000 -0.41978
       4     O     4.30762  4.30762  0.00000 -0.61525
       5     C     3.15386  3.15386  0.00000 -0.30772
       6     H     0.39930  0.39930  0.00000  0.20140
       7     H     0.40084  0.40084  0.00000  0.19831
       8     C     3.15661  3.15661  0.00000 -0.31322
       9     H     0.41327  0.41327  0.00000  0.17345
      10     H     0.40856  0.40856  0.00000  0.18288
      11     C     3.15507  3.15507  0.00000 -0.31014
      12     H     0.41823  0.41823  0.00000  0.16354
      13     H     0.42376  0.42376  0.00000  0.15248
      14     C     3.15030  3.15030  0.00000 -0.30059
      15     H     0.42270  0.42270  0.00000  0.15460
      16     H     0.42366  0.42366  0.00000  0.15268
      17     C     3.15146  3.15146  0.00000 -0.30291
      18     H     0.42330  0.42330  0.00000  0.15340
      19     H     0.42392  0.42392  0.00000  0.15215
      20     C     3.23935  3.23935  0.00000 -0.47870
      21     H     0.42284  0.42284  0.00000  0.15432
      22     H     0.42346  0.42346  0.00000  0.15309
      23     H     0.41924  0.41924  0.00000  0.16152
      24     H     0.42153  0.42153  0.00000  0.15694
      25     H     0.42180  0.42180  0.00000  0.15640
      26     C     3.09272  3.09272  0.00000 -0.18544
      27     H     0.41137  0.41137  0.00000  0.17726
      28     H     0.40840  0.40840  0.00000  0.18321
      29     H     0.40683  0.40683  0.00000  0.18634

   Total alpha = 44.00000, Total beta = 44.00000, Total charge = -0.00000
