  ==> Input File <==

--------------------------------------------------------------------------
set {
	reference rhf
	basis 6-31G*
}

set_num_threads( 4 )
memory 2 gb

molecule MOL {
0 1

H	 -3.436592	 -0.758084	 -0.614452
O	 -3.117320	 -0.163817	 0.050775
C	 -1.777246	 -0.062288	 0.006514
C	 -1.010683	 -0.763874	 -0.919315
C	 -1.169922	 0.779555	 0.929836
H	 -1.489299	 -1.414273	 -1.631508
C	 0.360925	 -0.620671	 -0.918050
H	 -1.782683	 1.309896	 1.633777
C	 0.202918	 0.912295	 0.918546
H	 0.964658	 -1.155895	 -1.626670
C	 0.984182	 0.218375	 0.000000
H	 0.674054	 1.564544	 1.633853
C	 2.452467	 0.370529	 0.000000
O	 3.228994	 -0.533774	 0.000000
H	 2.809473	 1.405765	 0.000000

	symmetry c1
}
set optking {
	frozen_dihedral = ("
		7 11 13 14
	")
}

ee = optimize('scf')
oeprop('DIPOLE', 'QUADRUPOLE', 'MULLIKEN_CHARGES')
f=open( 'psi4out.xyz', 'w' )
f.write( "15  " )
f.write( str(ee) + "\n" )
f.write( MOL.save_string_xyz() )
f.close()
--------------------------------------------------------------------------

    Molecular point group: c1
  Charge       = 0
  Multiplicity = 1
  Basis Set: 6-31G*
  Basis Set:
  @DF-RHF Final Energy:  -418.28043546176940
    Total Energy =                       -418.2804354617692297
    Molecular point group: c1
  Basis Set: 6-31G*
  Basis Set:
  Basis Set: 6-31G*
  Basis Set:
  @DF-RHF Final Energy:  -418.27947700614322
    Total Energy =                       -418.2794770061432246
  Basis Set: 6-31G*
  Basis Set:
  Basis Set: 6-31G*
  Basis Set:
  @DF-RHF Final Energy:  -418.28113102234056
    Total Energy =                       -418.2811310223412420
  Basis Set: 6-31G*
  Basis Set:
  Basis Set: 6-31G*
  Basis Set:
  @DF-RHF Final Energy:  -418.28138740056556
    Total Energy =                       -418.2813874005654498
  Basis Set: 6-31G*
  Basis Set:
  @DF-RHF Final Energy:  -418.28139048722818
    Total Energy =                       -418.2813904872278954
  Basis Set: 6-31G*
  Basis Set:
  @DF-RHF Final Energy:  -418.27879407430601
    Total Energy =                       -418.2787940743064610
  Basis Set: 6-31G*
  Basis Set:
  Basis Set: 6-31G*
  Basis Set:
  @DF-RHF Final Energy:  -418.28131527096320
    Total Energy =                       -418.2813152709634323
  Basis Set: 6-31G*
  Basis Set:
  Basis Set: 6-31G*
  Basis Set:
  @DF-RHF Final Energy:  -418.28139285526959
    Total Energy =                       -418.2813928552699281
  Basis Set: 6-31G*
  Basis Set:
  Charge       = 0
  Multiplicity = 1
  Basis Set: 6-31G*
  Basis Set:

    Orbital Energies (a.u.)
    -----------------------

    Doubly Occupied:

       1A    -20.607291     2A    -20.563410     3A    -11.331110
       4A    -11.318826     5A    -11.257525     6A    -11.256758
       7A    -11.243602     8A    -11.241766     9A    -11.238663
      10A     -1.427720    11A     -1.403070    12A     -1.169807
      13A     -1.039657    14A     -1.037984    15A     -0.887605
      16A     -0.865038    17A     -0.796565    18A     -0.754746
      19A     -0.711820    20A     -0.669412    21A     -0.647283
      22A     -0.628872    23A     -0.606934    24A     -0.604995
      25A     -0.587511    26A     -0.561274    27A     -0.535647
      28A     -0.505074    29A     -0.487875    30A     -0.420594
      31A     -0.356137    32A     -0.325091

  @DF-RHF Final Energy:  -418.28139302241777

   => Energetics <=

    Nuclear Repulsion Energy =            400.6005359786855706
    One-Electron Energy =               -1363.5845294050968732
    Two-Electron Energy =                 544.7026004039933014
    DFT Exchange-Correlation Energy =       0.0000000000000000
    Empirical Dispersion Energy =           0.0000000000000000
    PCM Polarization Energy =               0.0000000000000000
    EFP Energy =                            0.0000000000000000
    Total Energy =                       -418.2813930224180012
    Molecular point group: c1
  Basis Set: 6-31G*
  Basis Set:

  -Total Gradient:
     Atom            X                  Y                   Z
    ------   -----------------  -----------------  -----------------
       1        0.000004597440     0.000007386966    -0.000002493816
       2       -0.000000999584     0.000005732221    -0.000016825344
       3       -0.000002818450     0.000012068716     0.000110266991
       4        0.000083619620    -0.000019248356    -0.000030903079
       5       -0.000076182089    -0.000010220264    -0.000061067319
       6       -0.000005721075     0.000004083838    -0.000000841673
       7       -0.001008559404     0.005708393478    -0.004457192605
       8        0.000007295309     0.000005107695     0.000003458991
       9        0.000075960800    -0.000053188468    -0.000010037252
      10        0.000005185890    -0.000002999886     0.000002316256
      11        0.001504347039    -0.008565359380     0.010558290181
      12       -0.000005981127     0.000011196775    -0.000001935088
      13       -0.000904278463     0.003282362149    -0.014951869541
      14        0.000315585700    -0.000386475639     0.008857550771
      15        0.000007948398     0.000001160154     0.000001282528

  **** Optimization is complete! (in 9 steps) ****
    Final optimized geometry and variables:
    Molecular point group: c1

    Geometry (in Angstrom), charge = 0, multiplicity = 1:

    H           -3.448547226460    -0.748406929574    -0.610025124324
    O           -3.127729967998    -0.148982195578     0.049537540771
    C           -1.783884350142    -0.063065616880     0.010566989910
    C           -1.019495783525    -0.763917049269    -0.911455118203
    C           -1.171504498007     0.778207389559     0.932039374436
    H           -1.497074183573    -1.399223378951    -1.637795716284
    C            0.357953217194    -0.639827917964    -0.895154303942
    H           -1.782207282817     1.320708642834     1.628770625395
    C            0.200639162278     0.912454094027     0.919308338711
    H            0.952860462085    -1.188270631574    -1.602478701150
    C            0.984492549959     0.176483004894     0.035136526479
    H            0.668575763357     1.586730103886     1.616105494482
    C            2.456719624714     0.380619006681    -0.009579447384
    O            3.255071710030    -0.499318224616    -0.077753801795
    H            2.788669364043     1.418787799986     0.090421692819

  Mulliken Charges: (a.u.)
   Center  Symbol    Alpha    Beta     Spin     Total
       1     H     0.26926  0.26926  0.00000  0.46149
       2     O     4.37452  4.37452  0.00000 -0.74903
       3     C     2.78878  2.78878  0.00000  0.42245
       4     C     3.14507  3.14507  0.00000 -0.29013
       5     C     3.12447  3.12447  0.00000 -0.24894
       6     H     0.39873  0.39873  0.00000  0.20253
       7     C     3.08667  3.08667  0.00000 -0.17334
       8     H     0.38661  0.38661  0.00000  0.22677
       9     C     3.09507  3.09507  0.00000 -0.19014
      10     H     0.38187  0.38187  0.00000  0.23625
      11     C     3.05082  3.05082  0.00000 -0.10164
      12     H     0.39089  0.39089  0.00000  0.21821
      13     C     2.84536  2.84536  0.00000  0.30928
      14     O     4.23719  4.23719  0.00000 -0.47438
      15     H     0.42470  0.42470  0.00000  0.15061

   Total alpha = 32.00000, Total beta = 32.00000, Total charge = -0.00000
