  ==> Input File <==

--------------------------------------------------------------------------
set {
	reference rhf
	basis cc-pvtz
}

set_num_threads( 4 )
memory 2 gb

molecule MOL {
0 1

H	 3.297339	 -0.408876	 -0.006941
C	 2.238583	 -0.232815	 -0.005294
C	 1.364846	 -1.289127	 0.204760
C	 1.754674	 1.043326	 -0.212206
H	 1.748535	 -2.278041	 0.364837
C	 0.005908	 -1.067581	 0.207644
H	 2.432854	 1.858335	 -0.374398
C	 0.389628	 1.264256	 -0.209029
H	 -0.685194	 -1.870861	 0.368193
C	 -0.486398	 0.214248	 0.000000
H	 0.006138	 2.254906	 -0.369413
C	 -1.946525	 0.470130	 0.000000
O	 -2.779618	 -0.371226	 0.000000
H	 -2.227127	 1.528393	 0.000000

	symmetry c1
}
set optking {
	frozen_dihedral = ("
		8 10 12 14
	")
}

ee = optimize('scf')
oeprop('DIPOLE', 'QUADRUPOLE', 'MULLIKEN_CHARGES')
f=open( 'psi4out.xyz', 'w' )
f.write( "14  " )
f.write( str(ee) + "\n" )
f.write( MOL.save_string_xyz() )
f.close()
--------------------------------------------------------------------------

    Molecular point group: c1
  Charge       = 0
  Multiplicity = 1
  Basis Set: CC-PVTZ
  Basis Set:
  @DF-RHF Final Energy:  -343.54975110787518
    Total Energy =                       -343.5497511078748403
    Molecular point group: c1
  Basis Set: CC-PVTZ
  Basis Set:
  Basis Set: CC-PVTZ
  Basis Set:
  @DF-RHF Final Energy:  -343.54907384805398
    Total Energy =                       -343.5490738480540358
  Basis Set: CC-PVTZ
  Basis Set:
  Basis Set: CC-PVTZ
  Basis Set:
  @DF-RHF Final Energy:  -343.54980260670573
    Total Energy =                       -343.5498026067054411
  Basis Set: CC-PVTZ
  Basis Set:
  Basis Set: CC-PVTZ
  Basis Set:
  @DF-RHF Final Energy:  -343.54981119194485
    Total Energy =                       -343.5498111919449684
  Basis Set: CC-PVTZ
  Basis Set:
  Charge       = 0
  Multiplicity = 1
  Basis Set: CC-PVTZ
  Basis Set:

    Orbital Energies (a.u.)
    -----------------------

    Doubly Occupied:

       1A    -20.552840     2A    -11.327026     3A    -11.252667
       4A    -11.250143     5A    -11.246657     6A    -11.245377
       7A    -11.243904     8A    -11.242311     9A     -1.408705
      10A     -1.177101    11A     -1.051784    12A     -1.036191
      13A     -0.892707    14A     -0.848436    15A     -0.794570
      16A     -0.725555    17A     -0.682329    18A     -0.656565
      19A     -0.623759    20A     -0.621323    21A     -0.606095
      22A     -0.561687    23A     -0.530243    24A     -0.510169
      25A     -0.508366    26A     -0.425579    27A     -0.355811
      28A     -0.352556

  @DF-RHF Final Energy:  -343.54981137998720

   => Energetics <=

    Nuclear Repulsion Energy =            323.9705335267290138
    One-Electron Energy =               -1107.5797805077140765
    Two-Electron Energy =                 440.0594356009978014
    DFT Exchange-Correlation Energy =       0.0000000000000000
    Empirical Dispersion Energy =           0.0000000000000000
    PCM Polarization Energy =               0.0000000000000000
    EFP Energy =                            0.0000000000000000
    Total Energy =                       -343.5498113799872613
    Molecular point group: c1
  Basis Set: CC-PVTZ
  Basis Set:

  -Total Gradient:
     Atom            X                  Y                   Z
    ------   -----------------  -----------------  -----------------
       1       -0.000000403684     0.000001709057    -0.000011499476
       2       -0.000005350075    -0.000031465329     0.000039091605
       3        0.000035828534     0.000018017957     0.000024860863
       4       -0.000032101552     0.000018325540    -0.000037267288
       5       -0.000003286508    -0.000000652454    -0.000003418652
       6       -0.000029480063     0.000013878783    -0.000063355825
       7        0.000002707163    -0.000001068486     0.000006489245
       8        0.000008872954    -0.000261706022    -0.001477837457
       9        0.000002012607     0.000004229715     0.000022302497
      10        0.000016438124     0.000371572532     0.002746459247
      11       -0.000001741913    -0.000002894248    -0.000000781270
      12        0.000025818182    -0.000137753359    -0.003088726899
      13       -0.000002555863    -0.000012242490    -0.000002275062
      14       -0.000016757907     0.000020048801     0.001845958472

  **** Optimization is complete! (in 5 steps) ****
    Final optimized geometry and variables:
    Molecular point group: c1

    Geometry (in Angstrom), charge = 0, multiplicity = 1:

    H            3.296929634921    -0.410244390349    -0.013374471160
    C            2.238317633268    -0.233091736297    -0.008225895360
    C            1.364254743910    -1.288954567894     0.204230349313
    C            1.754664326601     1.043161346900    -0.213840648175
    H            1.747823532058    -2.278240200589     0.362629022794
    C            0.005489162357    -1.066968771309     0.207820063201
    H            2.432609005787     1.857433984388    -0.380981318339
    C            0.389681575589     1.266078302607    -0.201745723731
    H           -0.685832161433    -1.871300740827     0.362537894392
    C           -0.486185339437     0.216877867332     0.010402349588
    H            0.006747491511     2.257738628524    -0.357780250974
    C           -1.947204736543     0.469742087600    -0.008715741592
    O           -2.777905929057    -0.373464845284     0.010811633549
    H           -2.229865704187     1.527542723298    -0.024655109867

  Mulliken Charges: (a.u.)
   Center  Symbol    Alpha    Beta     Spin     Total
       1     H     0.41951  0.41951  0.00000  0.16099
       2     C     3.06980  3.06980  0.00000 -0.13959
       3     C     3.07232  3.07232  0.00000 -0.14463
       4     C     3.07384  3.07384  0.00000 -0.14768
       5     H     0.41953  0.41953  0.00000  0.16093
       6     C     3.07990  3.07990  0.00000 -0.15979
       7     H     0.42058  0.42058  0.00000  0.15883
       8     C     3.08711  3.08711  0.00000 -0.17422
       9     H     0.40883  0.40883  0.00000  0.18234
      10     C     2.98476  2.98476  0.00000  0.03049
      11     H     0.42293  0.42293  0.00000  0.15413
      12     C     2.91023  2.91023  0.00000  0.17955
      13     O     4.17235  4.17235  0.00000 -0.34470
      14     H     0.45832  0.45832  0.00000  0.08336

   Total alpha = 28.00000, Total beta = 28.00000, Total charge = -0.00000
