  ==> Input File <==

--------------------------------------------------------------------------
set {
	reference rhf
	basis 6-31G*
}

set_num_threads( 1 )
memory 2 gb

molecule MOL {
0 1

H	 2.089711	 -0.928549	 -0.628723
C	 1.773699	 0.111571	 -0.773941
C	 0.692068	 0.589600	 0.160137
O	 2.277649	 0.775677	 -1.620774
C	 -0.558097	 -0.297372	 0.091132
H	 0.460470	 1.619126	 -0.086681
H	 1.094136	 0.567976	 1.172414
C	 -1.850991	 0.512573	 -0.019058
H	 -0.476753	 -0.965681	 -0.762987
H	 -0.604799	 -0.930658	 0.975228
C	 -3.096943	 -0.368295	 -0.099594
H	 -1.800724	 1.150330	 -0.898172
H	 -1.931651	 1.177355	 0.838044
H	 -3.060452	 -1.020287	 -0.967456
H	 -3.996858	 0.233488	 -0.175704
H	 -3.191959	 -0.995686	 0.782074

	symmetry c1
}
set optking {
	frozen_dihedral = ("
		9 5 8 12,
		4 2 3 6
	")
}

ee = energy('scf')
oeprop('DIPOLE', 'QUADRUPOLE', 'MULLIKEN_CHARGES')
f=open( 'psi4out.xyz', 'w' )
f.write( "16  " )
f.write( str(ee) + "\n" )
f.write( MOL.save_string_xyz() )
f.close()
--------------------------------------------------------------------------

    Molecular point group: c1

    Geometry (in Angstrom), charge = 0, multiplicity = 1:

       Center              X                  Y                   Z               Mass
    ------------   -----------------  -----------------  -----------------  -----------------
           H          2.224022301485    -1.148019271740    -0.241028973955     1.007825032070
           C          1.908010301485    -0.107899271740    -0.386246973955    12.000000000000
           C          0.826379301485     0.370129728260     0.547831026045    12.000000000000
           O          2.411960301485     0.556206728260    -1.233079973955    15.994914619560
           C         -0.423785698515    -0.516842271740     0.478826026045    12.000000000000
           H          0.594781301485     1.399655728260     0.301013026045     1.007825032070
           H          1.228447301485     0.348505728260     1.560108026045     1.007825032070
           C         -1.716679698515     0.293102728260     0.368636026045    12.000000000000
           H         -0.342441698515    -1.185151271740    -0.375292973955     1.007825032070
           H         -0.470487698515    -1.150128271740     1.362922026045     1.007825032070
           C         -2.962631698515    -0.587765271740     0.288100026045    12.000000000000
           H         -1.666412698515     0.930859728260    -0.510477973955     1.007825032070
           H         -1.797339698515     0.957884728260     1.225738026045     1.007825032070
           H         -2.926140698515    -1.239757271740    -0.579761973955     1.007825032070
           H         -3.862546698515     0.014017728260     0.211990026045     1.007825032070
           H         -3.057647698515    -1.215156271740     1.169768026045     1.007825032070

  Charge       = 0
  Multiplicity = 1
  Basis Set: 6-31G*
  Basis Set:

    Orbital Energies (a.u.)
    -----------------------

    Doubly Occupied:

       1A    -20.562090     2A    -11.326662     3A    -11.235584
       4A    -11.233764     5A    -11.228356     6A    -11.217245
       7A     -1.402098     8A     -1.096073     9A     -1.017973
      10A     -0.905122    11A     -0.812210    12A     -0.794105
      13A     -0.676102    14A     -0.648703    15A     -0.625149
      16A     -0.602247    17A     -0.590103    18A     -0.538822
      19A     -0.525361    20A     -0.521165    21A     -0.485269
      22A     -0.482148    23A     -0.470095    24A     -0.409566

  @DF-RHF Final Energy:  -270.01506155165646

   => Energetics <=

    Nuclear Repulsion Energy =            230.0496133848491809
    One-Electron Energy =                -821.3173022802363903
    Two-Electron Energy =                 321.2526273437310920
    DFT Exchange-Correlation Energy =       0.0000000000000000
    Empirical Dispersion Energy =           0.0000000000000000
    PCM Polarization Energy =               0.0000000000000000
    EFP Energy =                            0.0000000000000000
    Total Energy =                       -270.0150615516561174

  Mulliken Charges: (a.u.)
   Center  Symbol    Alpha    Beta     Spin     Total
       1     H     0.43158  0.43158  0.00000  0.13685
       2     C     2.83341  2.83341  0.00000  0.33319
       3     C     3.20881  3.20881  0.00000 -0.41762
       4     O     4.23741  4.23741  0.00000 -0.47481
       5     C     3.16508  3.16508  0.00000 -0.33016
       6     H     0.39764  0.39764  0.00000  0.20471
       7     H     0.40714  0.40714  0.00000  0.18573
       8     C     3.15370  3.15370  0.00000 -0.30740
       9     H     0.41588  0.41588  0.00000  0.16824
      10     H     0.41569  0.41569  0.00000  0.16862
      11     C     3.24107  3.24107  0.00000 -0.48215
      12     H     0.41635  0.41635  0.00000  0.16729
      13     H     0.41949  0.41949  0.00000  0.16103
      14     H     0.41961  0.41961  0.00000  0.16078
      15     H     0.41630  0.41630  0.00000  0.16740
      16     H     0.42084  0.42084  0.00000  0.15831

   Total alpha = 24.00000, Total beta = 24.00000, Total charge = -0.00000
