                              Psi4 1.0.54 Driver

  ==> Input File <==

--------------------------------------------------------------------------
set {
	reference rhf
	basis cc-pvtz
}

set_num_threads( 4 )
memory 2 gb

molecule MOL {
0 1

H	 -0.764017	 1.524219	 -0.556506
O	 0.057669	 1.301365	 -0.158528
C	 0.004145	 -0.005141	 0.363049
C	 1.199168	 -0.827145	 -0.096690
C	 -1.316386	 -0.602081	 -0.083515
H	 0.012026	 0.043363	 1.450619
H	 1.216685	 -0.896776	 -1.178167
H	 2.129940	 -0.372354	 0.228035
H	 1.160783	 -1.829622	 0.314294
H	 -1.357882	 -0.655920	 -1.165207
H	 -2.140147	 0.011735	 0.257253
H	 -1.440790	 -1.601175	 0.317669

	symmetry c1
}
set optking {
	frozen_dihedral = ("
		1 2 3 4
	")
}

ee,wfn = optimize('scf', return_wfn=True)
oeprop( wfn, 'DIPOLE', 'QUADRUPOLE', 'MULLIKEN_CHARGES')
f=open( 'psi4out.xyz', 'w' )
f.write( "12  " )
f.write( str(ee) + "\n" )
f.write( MOL.save_string_xyz() )
f.close()
--------------------------------------------------------------------------

    Molecular point group: c1
  Charge       = 0
  Multiplicity = 1
  Basis Set: CC-PVTZ
  Basis Set:
  @DF-RHF Final Energy:  -193.19229018252608
    Total Energy =                       -193.1922901825261647
    Molecular point group: c1
  Basis Set: CC-PVTZ
  Basis Set:
  Basis Set: CC-PVTZ
  Basis Set:
  @DF-RHF Final Energy:  -193.15283214746549
    Total Energy =                       -193.1528321474656309
  Basis Set: CC-PVTZ
  Basis Set:
  Basis Set: CC-PVTZ
  Basis Set:
  @DF-RHF Final Energy:  -193.19123548664581
    Total Energy =                       -193.1912354866457804
  Basis Set: CC-PVTZ
  Basis Set:
  Basis Set: CC-PVTZ
  Basis Set:
  @DF-RHF Final Energy:  -193.19392688420680
    Total Energy =                       -193.1939268842067463
  Basis Set: CC-PVTZ
  Basis Set:
  Basis Set: CC-PVTZ
  Basis Set:
  @DF-RHF Final Energy:  -193.19400690550086
    Total Energy =                       -193.1940069055008280
  Basis Set: CC-PVTZ
  Basis Set:
  Charge       = 0
  Multiplicity = 1
  Basis Set: CC-PVTZ
  Basis Set:

    Orbital Energies (a.u.)
    -----------------------

    Doubly Occupied:

       1A    -20.542174     2A    -11.274073     3A    -11.217887
       4A    -11.204835     5A     -1.362892     6A     -1.044273
       7A     -0.943687     8A     -0.812616     9A     -0.676027
      10A     -0.647828    11A     -0.608633    12A     -0.552399
      13A     -0.544990    14A     -0.520512    15A     -0.515610
      16A     -0.468645    17A     -0.431118

  @DF-RHF Final Energy:  -193.19401436749320

   => Energetics <=

    Nuclear Repulsion Energy =            135.7037475865591887
    One-Electron Energy =                -531.0591246460550110
    Two-Electron Energy =                 202.1613626920025126
    DFT Exchange-Correlation Energy =       0.0000000000000000
    Empirical Dispersion Energy =           0.0000000000000000
    PCM Polarization Energy =               0.0000000000000000
    EFP Energy =                            0.0000000000000000
    Total Energy =                       -193.1940143674933097
    Molecular point group: c1
  Basis Set: CC-PVTZ
  Basis Set:

  -Total Gradient:
     Atom            X                  Y                   Z
    ------   -----------------  -----------------  -----------------
       1        0.000227417509    -0.000006418137    -0.000924835964
       2       -0.000358654625    -0.000117720472     0.000984534013
       3        0.000497268998     0.000087657868     0.000437695140
       4       -0.000331493865     0.000019732878    -0.000492703342
       5       -0.000073550435     0.000008064224    -0.000035160730
       6       -0.000021497787     0.000024928350    -0.000017861654
       7        0.000005635677    -0.000004880759     0.000004567909
       8        0.000043793034    -0.000003121949    -0.000015301672
       9       -0.000004664294    -0.000016078364     0.000013169929
      10        0.000019959529     0.000012933643     0.000027493562
      11       -0.000031113361     0.000003508283     0.000007064076
      12        0.000026899618    -0.000008605563     0.000011338736

  **** Optimization is complete! (in 6 steps) ****
    Final optimized geometry and variables:
    Molecular point group: c1

    Geometry (in Angstrom), charge = 0, multiplicity = 1:

    H           -1.032422779452     1.476672779117     0.112729101191
    O           -0.144571432259     1.274844497301     0.339193074142
    C            0.067959654019    -0.119582083092     0.336507912745
    C            1.306975596825    -0.413818691627    -0.490900126859
    C           -1.155561271295    -0.866317619698    -0.170728752929
    H            0.254625255328    -0.423922527927     1.362701037309
    H            1.142812472885    -0.147152974437    -1.528960372890
    H            2.146008882401     0.163180856813    -0.123303323224
    H            1.565449841609    -1.465881480187    -0.439329649639
    H           -1.377612984540    -0.586338226109    -1.195904701771
    H           -2.023812736697    -0.646316302768     0.442147478053
    H           -0.992642800843    -1.936742300790    -0.142160145962

  Mulliken Charges: (a.u.)
   Center  Symbol    Alpha    Beta     Spin     Total
       1     H     0.39160  0.39160  0.00000  0.21679
       2     O     4.21076  4.21076  0.00000 -0.42151
       3     C     2.91954  2.91954  0.00000  0.16092
       4     C     3.13700  3.13700  0.00000 -0.27401
       5     C     3.15955  3.15955  0.00000 -0.31911
       6     H     0.46269  0.46269  0.00000  0.07462
       7     H     0.45813  0.45813  0.00000  0.08375
       8     H     0.44652  0.44652  0.00000  0.10697
       9     H     0.46012  0.46012  0.00000  0.07975
      10     H     0.45285  0.45285  0.00000  0.09431
      11     H     0.45007  0.45007  0.00000  0.09985
      12     H     0.45116  0.45116  0.00000  0.09767

   Total alpha = 17.00000, Total beta = 17.00000, Total charge = -0.00000

*** Psi4 exiting successfully. Buy a developer a beer!
