  ==> Input File <==

--------------------------------------------------------------------------
set {
	reference rhf
	basis 6-31G*
}

set_num_threads( 4 )
memory 2 gb

molecule MOL {
0 1

O	 -2.821601	 1.309235	 -0.001213
C	 -2.668563	 0.129746	 -0.000350
C	 -3.801572	 -0.864014	 -0.000442
O	 -1.481751	 -0.454642	 0.000584
H	 -4.417280	 -0.689587	 -0.874708
H	 -3.443784	 -1.883046	 -0.000565
H	 -4.417179	 -0.689832	 0.873954
C	 -0.334255	 0.388708	 0.000906
C	 0.891947	 -0.504646	 0.000751
H	 -0.365390	 1.025305	 -0.873475
H	 -0.365484	 1.024911	 0.875569
C	 0.623693	 -1.850957	 0.675997
H	 1.702349	 0.011330	 0.508152
H	 1.212869	 -0.660307	 -1.025523
C	 1.848973	 -2.766872	 0.686741
H	 0.292143	 -1.684938	 1.699520
H	 -0.195998	 -2.355887	 0.167829
C	 1.581364	 -4.111031	 1.362380
H	 2.668946	 -2.263984	 1.194501
H	 2.180243	 -2.935702	 -0.335427
H	 1.280378	 -3.976739	 2.397459
H	 2.467759	 -4.737512	 1.354506
H	 0.788263	 -4.653643	 0.855851

	symmetry c1
}
set optking {
	frozen_dihedral = ("
		13 9 8 10
	")
}

ee = optimize('scf')
oeprop('DIPOLE', 'QUADRUPOLE', 'MULLIKEN_CHARGES')
f=open( 'psi4out.xyz', 'w' )
f.write( "23  " )
f.write( str(ee) + "\n" )
f.write( MOL.save_string_xyz() )
f.close()
--------------------------------------------------------------------------

    Molecular point group: c1
  Charge       = 0
  Multiplicity = 1
  Basis Set: 6-31G*
  Basis Set:
  @DF-RHF Final Energy:  -422.97273190208983
    Total Energy =                       -422.9727319020890945
    Molecular point group: c1
  Basis Set: 6-31G*
  Basis Set:
  Basis Set: 6-31G*
  Basis Set:
  @DF-RHF Final Energy:  -422.97336569421969
    Total Energy =                       -422.9733656942191828
  Basis Set: 6-31G*
  Basis Set:
  Basis Set: 6-31G*
  Basis Set:
  @DF-RHF Final Energy:  -422.97470537129055
    Total Energy =                       -422.9747053712903835
  Basis Set: 6-31G*
  Basis Set:
  Basis Set: 6-31G*
  Basis Set:
  @DF-RHF Final Energy:  -422.97453661355246
    Total Energy =                       -422.9745366135530276
  Basis Set: 6-31G*
  Basis Set:
  Basis Set: 6-31G*
  Basis Set:
  @DF-RHF Final Energy:  -422.97476039648473
    Total Energy =                       -422.9747603964846121
  Basis Set: 6-31G*
  Basis Set:
  Basis Set: 6-31G*
  Basis Set:
  @DF-RHF Final Energy:  -422.97480639782322
    Total Energy =                       -422.9748063978231585
  Basis Set: 6-31G*
  Basis Set:
  Basis Set: 6-31G*
  Basis Set:
  @DF-RHF Final Energy:  -422.97480750013870
    Total Energy =                       -422.9748075001384677
  Basis Set: 6-31G*
  Basis Set:
  Charge       = 0
  Multiplicity = 1
  Basis Set: 6-31G*
  Basis Set:

    Orbital Energies (a.u.)
    -----------------------

    Doubly Occupied:

       1A    -20.602437     2A    -20.540610     3A    -11.374209
       4A    -11.283191     5A    -11.232696     6A    -11.226227
       7A    -11.218417     8A    -11.216892     9A    -11.210892
      10A     -1.467685    11A     -1.360488    12A     -1.089701
      13A     -1.040097    14A     -1.001716    15A     -0.930644
      16A     -0.843142    17A     -0.805641    18A     -0.764284
      19A     -0.689833    20A     -0.687176    21A     -0.665612
      22A     -0.643602    23A     -0.606592    24A     -0.587480
      25A     -0.578720    26A     -0.568358    27A     -0.559344
      28A     -0.529516    29A     -0.525122    30A     -0.514047
      31A     -0.491966    32A     -0.472486    33A     -0.467238
      34A     -0.457578    35A     -0.447340    36A     -0.436887

  @DF-RHF Final Energy:  -422.97480764042149

   => Energetics <=

    Nuclear Repulsion Energy =            460.3753904424895040
    One-Electron Energy =               -1488.4246666777585233
    Two-Electron Energy =                 605.0744685948479855
    DFT Exchange-Correlation Energy =       0.0000000000000000
    Empirical Dispersion Energy =           0.0000000000000000
    PCM Polarization Energy =               0.0000000000000000
    EFP Energy =                            0.0000000000000000
    Total Energy =                       -422.9748076404209769
    Molecular point group: c1
  Basis Set: 6-31G*
  Basis Set:

  -Total Gradient:
     Atom            X                  Y                   Z
    ------   -----------------  -----------------  -----------------
       1        0.000001007645    -0.000012867289    -0.000005759869
       2       -0.000020530469     0.000027007708     0.000012969587
       3        0.000004461445    -0.000001149521    -0.000002548313
       4        0.000032757401     0.000001368423     0.000003908493
       5       -0.000000660124    -0.000000726653    -0.000000191917
       6        0.000000633584     0.000001087939    -0.000000268229
       7        0.000000123563     0.000000509161    -0.000000142945
       8        0.004050974160     0.004945518666     0.005185038247
       9        0.001206103751     0.002015753648    -0.007382764540
      10       -0.003547718059    -0.004389828531    -0.003241452962
      11        0.000014200517     0.000014086981    -0.000007432515
      12       -0.000003676523    -0.000007995610    -0.000002329602
      13       -0.001759082995    -0.002611373631     0.005441305220
      14        0.000014205201     0.000027515522    -0.000001376702
      15        0.000000353734    -0.000008603831    -0.000003006246
      16       -0.000009516811     0.000005471838     0.000007229389
      17        0.000015108780    -0.000002016455     0.000002228694
      18       -0.000000595951    -0.000000470872    -0.000004599403
      19       -0.000005148527    -0.000001296287     0.000002478513
      20        0.000007418122    -0.000000950344    -0.000002105343
      21        0.000001850887     0.000000578114    -0.000000158559
      22       -0.000000664154    -0.000001097418    -0.000002488246
      23       -0.000001605166    -0.000000521563     0.000001467248

  **** Optimization is complete! (in 8 steps) ****
    Final optimized geometry and variables:
    Molecular point group: c1

    Geometry (in Angstrom), charge = 0, multiplicity = 1:

    O           -2.095649156233     2.348623277809    -0.246197681411
    C           -2.006955386188     1.163785997623    -0.304932949039
    C           -3.193777040401     0.236054257556    -0.355936733078
    O           -0.854950435606     0.515446446292    -0.332406232352
    H           -3.795847910285     0.488410712356    -1.220627171120
    H           -2.893902939403    -0.800279807497    -0.407077778868
    H           -3.801682275725     0.400174084168     0.525758992566
    C            0.339484641086     1.298256530791    -0.289017245368
    C            1.549006387202     0.364679202116    -0.345852474656
    H            0.311357398657     1.953768509594    -1.147817766561
    H            0.327889879624     1.892285002537     0.613319639506
    C            1.351671110235    -0.981451376715     0.361086529409
    H            2.366645875333     0.872691273430     0.159676220215
    H            1.845728923074     0.196150229373    -1.376089735177
    C            2.638998812123    -1.806929614962     0.406089241407
    H            0.998026139732    -0.808996568813     1.375822883447
    H            0.575248602303    -1.548815495660    -0.139805722934
    C            2.451702982972    -3.160728569751     1.090009427099
    H            3.413579648037    -1.245746589423     0.924691090412
    H            3.003182872834    -1.963227610884    -0.607364340684
    H            2.119383242978    -3.038347610820     2.117014544270
    H            3.379400604999    -3.724233357499     1.107634955543
    H            1.709207046049    -3.761618314766     0.572689277854

  Mulliken Charges: (a.u.)
   Center  Symbol    Alpha    Beta     Spin     Total
       1     O     4.28448  4.28448  0.00000 -0.56897
       2     C     2.61424  2.61424  0.00000  0.77153
       3     C     3.28751  3.28751  0.00000 -0.57503
       4     O     4.31210  4.31210  0.00000 -0.62421
       5     H     0.39753  0.39753  0.00000  0.20494
       6     H     0.40036  0.40036  0.00000  0.19927
       7     H     0.39746  0.39746  0.00000  0.20508
       8     C     3.00018  3.00018  0.00000 -0.00037
       9     C     3.17363  3.17363  0.00000 -0.34726
      10     H     0.40721  0.40721  0.00000  0.18559
      11     H     0.40853  0.40853  0.00000  0.18295
      12     C     3.14887  3.14887  0.00000 -0.29774
      13     H     0.41714  0.41714  0.00000  0.16572
      14     H     0.41492  0.41492  0.00000  0.17015
      15     C     3.15328  3.15328  0.00000 -0.30655
      16     H     0.42264  0.42264  0.00000  0.15471
      17     H     0.41272  0.41272  0.00000  0.17456
      18     C     3.23905  3.23905  0.00000 -0.47810
      19     H     0.42356  0.42356  0.00000  0.15288
      20     H     0.42292  0.42292  0.00000  0.15415
      21     H     0.42141  0.42141  0.00000  0.15717
      22     H     0.41892  0.41892  0.00000  0.16216
      23     H     0.42132  0.42132  0.00000  0.15735

   Total alpha = 36.00000, Total beta = 36.00000, Total charge = -0.00000
