  ==> Input File <==

--------------------------------------------------------------------------
set {
	reference rhf
	basis cc-pvtz
}

set_num_threads( 4 )
memory 2 gb

molecule MOL {
0 1

H	 -1.813403	 -1.482874	 -1.238679
N	 -1.107026	 -0.779588	 -1.283325
C	 -0.561396	 -0.500007	 0.035200
H	 -1.528238	 0.036699	 -1.675232
C	 0.575129	 0.507849	 -0.048832
H	 -0.182341	 -1.431606	 0.442212
H	 -1.312148	 -0.134483	 0.737467
C	 1.951750	 -0.141983	 0.035101
H	 0.478254	 1.061643	 -0.975981
H	 0.467676	 1.231891	 0.755499
H	 2.101550	 -0.848142	 -0.774949
H	 2.738260	 0.600794	 -0.026526
H	 2.078939	 -0.679792	 0.968824

	symmetry c1
}
set optking {
	frozen_dihedral = ("
		6 3 5 9
	")
}

ee = optimize('scf')
oeprop('DIPOLE', 'QUADRUPOLE', 'MULLIKEN_CHARGES')
f=open( 'psi4out.xyz', 'w' )
f.write( "13  " )
f.write( str(ee) + "\n" )
f.write( MOL.save_string_xyz() )
f.close()
--------------------------------------------------------------------------

    Molecular point group: c1
  Charge       = 0
  Multiplicity = 1
  Basis Set: CC-PVTZ
  Basis Set:
  @DF-RHF Final Energy:  -173.34749500870961
    Total Energy =                       -173.3474950087096431
    Molecular point group: c1
  Basis Set: CC-PVTZ
  Basis Set:
  Basis Set: CC-PVTZ
  Basis Set:
  @DF-RHF Final Energy:  -173.34803318791077
    Total Energy =                       -173.3480331879108292
  Basis Set: CC-PVTZ
  Basis Set:
  Basis Set: CC-PVTZ
  Basis Set:
  @DF-RHF Final Energy:  -173.34815246299743
    Total Energy =                       -173.3481524629972625
  Basis Set: CC-PVTZ
  Basis Set:
  Basis Set: CC-PVTZ
  Basis Set:
  @DF-RHF Final Energy:  -173.34815624724891
    Total Energy =                       -173.3481562472488520
  Basis Set: CC-PVTZ
  Basis Set:
  Charge       = 0
  Multiplicity = 1
  Basis Set: CC-PVTZ
  Basis Set:

    Orbital Energies (a.u.)
    -----------------------

    Doubly Occupied:

       1A    -15.527148     2A    -11.238645     3A    -11.210253
       4A    -11.201948     5A     -1.177701     6A     -1.031374
       7A     -0.898527     8A     -0.798301     9A     -0.659334
      10A     -0.637229    11A     -0.597268    12A     -0.562617
      13A     -0.530719    14A     -0.487142    15A     -0.476811
      16A     -0.468894    17A     -0.383110

  @DF-RHF Final Energy:  -173.34815699677941

   => Energetics <=

    Nuclear Repulsion Energy =            132.8287766616789725
    One-Electron Energy =                -496.5798309988479105
    Two-Electron Energy =                 190.4028973403894440
    DFT Exchange-Correlation Energy =       0.0000000000000000
    Empirical Dispersion Energy =           0.0000000000000000
    PCM Polarization Energy =               0.0000000000000000
    EFP Energy =                            0.0000000000000000
    Total Energy =                       -173.3481569967795224
    Molecular point group: c1
  Basis Set: CC-PVTZ
  Basis Set:

  -Total Gradient:
     Atom            X                  Y                   Z
    ------   -----------------  -----------------  -----------------
       1       -0.000013402119    -0.000007108951    -0.000036973736
       2       -0.000037991393    -0.000021213356     0.000041253702
       3       -0.000616282550     0.001032782554     0.004463533188
       4        0.000005808001    -0.000009580319     0.000017034417
       5       -0.002786994867     0.003308964460     0.001456878472
       6        0.000972958259    -0.001350063518    -0.003995066242
       7        0.000014274049     0.000012741626    -0.000027512514
       8        0.000005532520    -0.000018575176     0.000020167182
       9        0.002444570897    -0.002931714519    -0.001954937750
      10       -0.000001545764    -0.000023895849     0.000008623456
      11       -0.000017351012    -0.000000451338     0.000013464270
      12        0.000010738639     0.000003591573    -0.000000797788
      13        0.000019685342     0.000004522813    -0.000005666656

  **** Optimization is complete! (in 5 steps) ****
    Final optimized geometry and variables:
    Molecular point group: c1

    Geometry (in Angstrom), charge = 0, multiplicity = 1:

    H           -1.934687732758    -1.285752031169    -0.943132349872
    N           -1.260113517962    -0.550459096770    -0.962954549740
    C           -0.774292083867    -0.246782118209     0.378144126589
    H           -1.704270491280     0.245965718042    -1.369901160320
    C            0.381626308898     0.760805812492     0.316559060876
    H           -0.414244136968    -1.183892954560     0.786733627633
    H           -1.559712575555     0.120093362494     1.036119838157
    C            1.753740628311     0.091265765369     0.339539671619
    H            0.301847426862     1.317559690655    -0.611114153317
    H            0.307537385822     1.469721168479     1.133734998818
    H            1.839155380898    -0.627126440094    -0.467709941321
    H            2.549261137715     0.819175769613     0.225852728517
    H            1.917487097269    -0.434550684672     1.274491677829

  Mulliken Charges: (a.u.)
   Center  Symbol    Alpha    Beta     Spin     Total
       1     H     0.42880  0.42880  0.00000  0.14241
       2     N     3.69405  3.69405  0.00000 -0.38810
       3     C     3.02952  3.02952  0.00000 -0.05905
       4     H     0.43050  0.43050  0.00000  0.13901
       5     C     3.07714  3.07714  0.00000 -0.15429
       6     H     0.45938  0.45938  0.00000  0.08124
       7     H     0.46067  0.46067  0.00000  0.07867
       8     C     3.14988  3.14988  0.00000 -0.29975
       9     H     0.45871  0.45871  0.00000  0.08257
      10     H     0.45269  0.45269  0.00000  0.09463
      11     H     0.44925  0.44925  0.00000  0.10150
      12     H     0.45181  0.45181  0.00000  0.09638
      13     H     0.45761  0.45761  0.00000  0.08478

   Total alpha = 17.00000, Total beta = 17.00000, Total charge = -0.00000
