  ==> Input File <==

--------------------------------------------------------------------------
set {
	reference rhf
	basis 6-31G*
}

set_num_threads( 4 )
memory 2 gb

molecule MOL {
0 1

H	 -4.184302	 0.644434	 -0.237080
O	 -3.517110	 -0.026191	 -0.205115
C	 -2.306886	 0.532354	 0.237577
C	 -1.177863	 -0.397191	 -0.171080
H	 -2.156308	 1.517575	 -0.201710
H	 -2.315015	 0.655684	 1.319734
C	 0.198102	 0.111031	 0.262842
H	 -1.208843	 -0.518759	 -1.250427
H	 -1.368741	 -1.376554	 0.258909
C	 1.331804	 -0.827780	 -0.158768
H	 0.361943	 1.100838	 -0.156218
H	 0.217265	 0.229072	 1.345532
C	 2.723619	 -0.410569	 0.329459
H	 1.342964	 -0.912588	 -1.244120
H	 1.116806	 -1.824343	 0.220779
C	 3.243875	 0.895854	 -0.272975
H	 3.424222	 -1.207124	 0.091250
H	 2.714788	 -0.329854	 1.414619
H	 3.251977	 0.848779	 -1.358681
H	 2.637085	 1.747371	 0.016682
H	 4.259473	 1.094070	 0.055697

	symmetry c1
}
set optking {
	frozen_dihedral = ("
		1 2 3 5
	")
}

ee = optimize('scf')
oeprop('DIPOLE', 'QUADRUPOLE', 'MULLIKEN_CHARGES')
f=open( 'psi4out.xyz', 'w' )
f.write( "21  " )
f.write( str(ee) + "\n" )
f.write( MOL.save_string_xyz() )
f.close()
--------------------------------------------------------------------------

    Molecular point group: c1
  Charge       = 0
  Multiplicity = 1
  Basis Set: 6-31G*
  Basis Set:
  @DF-RHF Final Energy:  -310.21233854954420
    Total Energy =                       -310.2123385495447678
    Molecular point group: c1
  Basis Set: 6-31G*
  Basis Set:
  Basis Set: 6-31G*
  Basis Set:
  @DF-RHF Final Energy:  -310.21236218543709
    Total Energy =                       -310.2123621854369162
  Basis Set: 6-31G*
  Basis Set:
  Basis Set: 6-31G*
  Basis Set:
  @DF-RHF Final Energy:  -310.21237222717167
    Total Energy =                       -310.2123722271720681
  Basis Set: 6-31G*
  Basis Set:
  Basis Set: 6-31G*
  Basis Set:
  @DF-RHF Final Energy:  -310.21236939738833
    Total Energy =                       -310.2123693973882723
  Basis Set: 6-31G*
  Basis Set:
  Basis Set: 6-31G*
  Basis Set:
  @DF-RHF Final Energy:  -310.21237308280007
    Total Energy =                       -310.2123730828000134
  Basis Set: 6-31G*
  Basis Set:
  Charge       = 0
  Multiplicity = 1
  Basis Set: 6-31G*
  Basis Set:

    Orbital Energies (a.u.)
    -----------------------

    Doubly Occupied:

       1A    -20.551441     2A    -11.267156     3A    -11.215706
       4A    -11.215200     5A    -11.213657     6A    -11.210669
       7A    -11.208338     8A     -1.358204     9A     -1.086279
      10A     -1.033236    11A     -0.954471    12A     -0.875844
      13A     -0.807600    14A     -0.779030    15A     -0.694336
      16A     -0.658824    17A     -0.622838    18A     -0.605279
      19A     -0.587511    20A     -0.570412    21A     -0.535387
      22A     -0.520400    23A     -0.511496    24A     -0.484300
      25A     -0.481892    26A     -0.460977    27A     -0.456042
      28A     -0.446634    29A     -0.430007

  @DF-RHF Final Energy:  -310.21237343833724

   => Energetics <=

    Nuclear Repulsion Energy =            312.3834180052702436
    One-Electron Energy =               -1039.5052508214935187
    Two-Electron Energy =                 416.9094593778861508
    DFT Exchange-Correlation Energy =       0.0000000000000000
    Empirical Dispersion Energy =           0.0000000000000000
    PCM Polarization Energy =               0.0000000000000000
    EFP Energy =                            0.0000000000000000
    Total Energy =                       -310.2123734383371811
    Molecular point group: c1
  Basis Set: 6-31G*
  Basis Set:

  -Total Gradient:
     Atom            X                  Y                   Z
    ------   -----------------  -----------------  -----------------
       1        0.000319576093     0.000308531990    -0.001416386917
       2       -0.000546093353    -0.000225105190     0.002019868775
       3        0.000803948715    -0.000611729767    -0.001622560741
       4       -0.000018557893     0.000002310614     0.000012621274
       5       -0.000592723652     0.000563317031     0.000990404140
       6        0.000008958372    -0.000026550366     0.000004249499
       7        0.000003385934    -0.000009330280     0.000010440200
       8       -0.000013379232     0.000008455400     0.000004580938
       9        0.000015135192    -0.000003077582    -0.000006100641
      10        0.000012985530     0.000001940211     0.000007525272
      11        0.000005694791    -0.000003153944    -0.000000434972
      12       -0.000005584063     0.000002793678     0.000002362698
      13        0.000007769353    -0.000003564886    -0.000013707285
      14       -0.000005097483    -0.000002286039     0.000003164131
      15        0.000008332852    -0.000000536957     0.000003375956
      16       -0.000000119460    -0.000003286971     0.000000948534
      17        0.000006995156     0.000000346096     0.000001868454
      18       -0.000005709377     0.000000941835    -0.000003449810
      19       -0.000002352066     0.000000579779    -0.000000163254
      20       -0.000004373534     0.000000287093     0.000002631332
      21        0.000001208138    -0.000000881744    -0.000001237584

  **** Optimization is complete! (in 6 steps) ****
    Final optimized geometry and variables:
    Molecular point group: c1

    Geometry (in Angstrom), charge = 0, multiplicity = 1:

    H           -4.197534018550     0.627985250351    -0.202513909040
    O           -3.523888802833    -0.035807892270    -0.179063754141
    C           -2.306186856322     0.535416384651     0.228550715012
    C           -1.176812930255    -0.393779029310    -0.179631272457
    H           -2.171113629308     1.516786610118    -0.223334714705
    H           -2.300029500549     0.677774930396     1.308371706990
    C            0.198471447665     0.111630819948     0.259788899670
    H           -1.205119049259    -0.515392427938    -1.259014557489
    H           -1.369940358705    -1.373212691481     0.249489419141
    C            1.332461808212    -0.827872813049    -0.159565811950
    H            0.365330503874     1.102096994166    -0.156870734733
    H            0.213770165558     0.227756956274     1.342631697267
    C            2.723388448706    -0.412413555141     0.332687666185
    H            1.346536030485    -0.911905347173    -1.244963941192
    H            1.115419655573    -1.824490321673     0.218653139025
    C            3.246205624896     0.894387335504    -0.266707238911
    H            3.423988152240    -1.209185874820     0.095207974962
    H            2.711854130410    -0.333088656770     1.417905416007
    H            3.256314024860     0.849011182692    -1.352482094951
    H            2.639789891493     1.746096670482     0.023189296205
    H            4.261394340566     1.091003710684     0.064170822642

  Mulliken Charges: (a.u.)
   Center  Symbol    Alpha    Beta     Spin     Total
       1     H     0.28084  0.28084  0.00000  0.43832
       2     O     4.37244  4.37244  0.00000 -0.74488
       3     C     2.98986  2.98986  0.00000  0.02027
       4     C     3.15851  3.15851  0.00000 -0.31701
       5     H     0.43357  0.43357  0.00000  0.13285
       6     H     0.43135  0.43135  0.00000  0.13730
       7     C     3.16206  3.16206  0.00000 -0.32413
       8     H     0.41615  0.41615  0.00000  0.16769
       9     H     0.41415  0.41415  0.00000  0.17169
      10     C     3.15175  3.15175  0.00000 -0.30350
      11     H     0.42208  0.42208  0.00000  0.15584
      12     H     0.42354  0.42354  0.00000  0.15292
      13     C     3.15251  3.15251  0.00000 -0.30503
      14     H     0.42321  0.42321  0.00000  0.15359
      15     H     0.42081  0.42081  0.00000  0.15838
      16     C     3.24117  3.24117  0.00000 -0.48233
      17     H     0.42061  0.42061  0.00000  0.15878
      18     H     0.42341  0.42341  0.00000  0.15317
      19     H     0.42209  0.42209  0.00000  0.15582
      20     H     0.42068  0.42068  0.00000  0.15865
      21     H     0.41919  0.41919  0.00000  0.16161

   Total alpha = 29.00000, Total beta = 29.00000, Total charge = -0.00000
