  ==> Input File <==

--------------------------------------------------------------------------
set {
	reference rhf
	basis 6-31G*
}

set_num_threads( 1 )
memory 2 gb

molecule MOL {
0 1

O	 -0.403436	 -2.538148	 -1.737163
C	 -0.566289	 -1.365355	 -1.887066
C	 -0.889235	 -0.467034	 -0.705952
C	 -0.428856	 -0.711791	 -3.244027
C	 0.379448	 -0.143569	 0.099626
H	 -1.594285	 -0.995753	 -0.073761
H	 -1.359933	 0.452348	 -1.042413
C	 1.631333	 -0.777471	 -0.511575
H	 0.482768	 0.934507	 0.149241
H	 0.263088	 -0.495696	 1.123449
C	 2.915987	 -0.544314	 0.291766
H	 1.766672	 -0.399098	 -1.523130
H	 1.471257	 -1.849544	 -0.605828
C	 3.373361	 0.914346	 0.347591
H	 3.708709	 -1.142521	 -0.150311
H	 2.780642	 -0.921148	 1.303579
H	 3.506512	 1.320010	 -0.651625
H	 4.322697	 0.999599	 0.867103
H	 2.660624	 1.545032	 0.868198
H	 -1.394245	 -0.328945	 -3.564524
H	 -0.070088	 -1.431216	 -3.966867
H	 0.251002	 0.133974	 -3.196301

	symmetry c1
}
set optking {
	frozen_dihedral = ("
		6 3 2 1,
		3 5 8 12,
		12 8 11 15
	")
}

ee = energy('scf')
oeprop('DIPOLE', 'QUADRUPOLE', 'MULLIKEN_CHARGES')
f=open( 'psi4out.xyz', 'w' )
f.write( "22  " )
f.write( str(ee) + "\n" )
f.write( MOL.save_string_xyz() )
f.close()
--------------------------------------------------------------------------

    Molecular point group: c1

    Geometry (in Angstrom), charge = 0, multiplicity = 1:

       Center              X                  Y                   Z               Mass
    ------------   -----------------  -----------------  -----------------  -----------------
           O         -1.169952089209    -1.837603863075    -0.811287903008    15.994914619560
           C         -1.332805089209    -0.664810863075    -0.961190903008    12.000000000000
           C         -1.655751089209     0.233510136925     0.219923096992    12.000000000000
           C         -1.195372089209    -0.011246863075    -2.318151903008    12.000000000000
           C         -0.387068089209     0.556975136925     1.025501096992    12.000000000000
           H         -2.360801089209    -0.295208863075     0.852114096992     1.007825032070
           H         -2.126449089209     1.152892136925    -0.116537903008     1.007825032070
           C          0.864816910791    -0.076926863075     0.414300096992    12.000000000000
           H         -0.283748089209     1.635051136925     1.075116096992     1.007825032070
           H         -0.503428089209     0.204848136925     2.049324096992     1.007825032070
           C          2.149470910791     0.156230136925     1.217641096992    12.000000000000
           H          1.000155910791     0.301446136925    -0.597254903008     1.007825032070
           H          0.704740910791    -1.148999863075     0.320047096992     1.007825032070
           C          2.606844910791     1.614890136925     1.273466096992    12.000000000000
           H          2.942192910791    -0.441976863075     0.775564096992     1.007825032070
           H          2.014125910791    -0.220603863075     2.229454096992     1.007825032070
           H          2.739995910791     2.020554136925     0.274250096992     1.007825032070
           H          3.556180910791     1.700143136925     1.792978096992     1.007825032070
           H          1.894107910791     2.245576136925     1.794073096992     1.007825032070
           H         -2.160761089209     0.371599136925    -2.638648903008     1.007825032070
           H         -0.836604089209    -0.730671863075    -3.040991903008     1.007825032070
           H         -0.515514089209     0.834518136925    -2.270425903008     1.007825032070

  Charge       = 0
  Multiplicity = 1
  Basis Set: 6-31G*
  Basis Set:

    Orbital Energies (a.u.)
    -----------------------

    Doubly Occupied:

       1A    -20.546007     2A    -11.324898     3A    -11.228206
       4A    -11.227939     5A    -11.227094     6A    -11.216342
       7A    -11.214031     8A    -11.210096     9A     -1.394414
      10A     -1.095432    11A     -1.041303    12A     -0.998531
      13A     -0.936458    14A     -0.857113    15A     -0.792028
      16A     -0.723429    17A     -0.661606    18A     -0.639049
      19A     -0.629236    20A     -0.620974    21A     -0.598880
      22A     -0.580037    23A     -0.564473    24A     -0.545757
      25A     -0.533401    26A     -0.525187    27A     -0.495842
      28A     -0.480596    29A     -0.464653    30A     -0.456918
      31A     -0.453159    32A     -0.396200

  @DF-RHF Final Energy:  -348.08413889989504

   => Energetics <=

    Nuclear Repulsion Energy =            388.2217662710446575
    One-Electron Energy =               -1241.2532601184921077
    Two-Electron Energy =                 504.9473549475521281
    DFT Exchange-Correlation Energy =       0.0000000000000000
    Empirical Dispersion Energy =           0.0000000000000000
    PCM Polarization Energy =               0.0000000000000000
    EFP Energy =                            0.0000000000000000
    Total Energy =                       -348.0841388998953221

  Mulliken Charges: (a.u.)
   Center  Symbol    Alpha    Beta     Spin     Total
       1     O     4.26435  4.26435  0.00000 -0.52869
       2     C     2.74089  2.74089  0.00000  0.51823
       3     C     3.19981  3.19981  0.00000 -0.39962
       4     C     3.28785  3.28785  0.00000 -0.57570
       5     C     3.15658  3.15658  0.00000 -0.31315
       6     H     0.39867  0.39867  0.00000  0.20266
       7     H     0.41446  0.41446  0.00000  0.17107
       8     C     3.18040  3.18040  0.00000 -0.36080
       9     H     0.41549  0.41549  0.00000  0.16902
      10     H     0.41294  0.41294  0.00000  0.17412
      11     C     3.15027  3.15027  0.00000 -0.30054
      12     H     0.42597  0.42597  0.00000  0.14805
      13     H     0.39293  0.39293  0.00000  0.21414
      14     C     3.24154  3.24154  0.00000 -0.48308
      15     H     0.41891  0.41891  0.00000  0.16218
      16     H     0.42196  0.42196  0.00000  0.15608
      17     H     0.42339  0.42339  0.00000  0.15322
      18     H     0.41838  0.41838  0.00000  0.16324
      19     H     0.42139  0.42139  0.00000  0.15721
      20     H     0.40689  0.40689  0.00000  0.18621
      21     H     0.39733  0.39733  0.00000  0.20534
      22     H     0.40959  0.40959  0.00000  0.18082

   Total alpha = 32.00000, Total beta = 32.00000, Total charge =  0.00000
