  ==> Input File <==

--------------------------------------------------------------------------
set {
	reference rhf
	basis 6-31G*
}

set_num_threads( 1 )
memory 2 gb

molecule MOL {
0 1

O	 -2.002918	 -0.491364	 0.539780
C	 -1.083277	 0.139568	 0.115197
C	 0.323299	 -0.082943	 0.642902
C	 -1.271021	 1.203124	 -0.943779
C	 1.355627	 -0.005344	 -0.493127
H	 0.396251	 -1.044647	 1.143147
H	 0.528637	 0.693580	 1.371677
C	 2.786168	 -0.195604	 0.007473
H	 1.132807	 -0.760304	 -1.243899
H	 1.259610	 0.958506	 -0.981915
H	 3.495561	 -0.130713	 -0.811210
H	 2.912696	 -1.165395	 0.480041
H	 3.049284	 0.565503	 0.735850
H	 -0.812840	 2.138492	 -0.635845
H	 -2.324555	 1.354814	 -1.132965
H	 -0.780516	 0.893472	 -1.862869

	symmetry c1
}
set optking {
	frozen_dihedral = ("
		9 5 3 2
	")
}

ee = energy('scf')
oeprop('DIPOLE', 'QUADRUPOLE', 'MULLIKEN_CHARGES')
f=open( 'psi4out.xyz', 'w' )
f.write( "16  " )
f.write( str(ee) + "\n" )
f.write( MOL.save_string_xyz() )
f.close()
--------------------------------------------------------------------------

    Molecular point group: c1

    Geometry (in Angstrom), charge = 0, multiplicity = 1:

       Center              X                  Y                   Z               Mass
    ------------   -----------------  -----------------  -----------------  -----------------
           O         -2.028701766659    -0.588688273787     0.567468662763    15.994914619560
           C         -1.109060766659     0.042243726213     0.142885662763    12.000000000000
           C          0.297515233341    -0.180267273787     0.670590662763    12.000000000000
           C         -1.296804766659     1.105799726213    -0.916090337237    12.000000000000
           C          1.329843233341    -0.102668273787    -0.465438337237    12.000000000000
           H          0.370467233341    -1.141971273787     1.170835662763     1.007825032070
           H          0.502853233341     0.596255726213     1.399365662763     1.007825032070
           C          2.760384233341    -0.292928273787     0.035161662763    12.000000000000
           H          1.107023233341    -0.857628273787    -1.216210337237     1.007825032070
           H          1.233826233341     0.861181726213    -0.954226337237     1.007825032070
           H          3.469777233341    -0.228037273787    -0.783521337237     1.007825032070
           H          2.886912233341    -1.262719273787     0.507729662763     1.007825032070
           H          3.023500233341     0.468178726213     0.763538662763     1.007825032070
           H         -0.838623766659     2.041167726213    -0.608156337237     1.007825032070
           H         -2.350338766659     1.257489726213    -1.105276337237     1.007825032070
           H         -0.806299766659     0.796147726213    -1.835180337237     1.007825032070

  Charge       = 0
  Multiplicity = 1
  Basis Set: 6-31G*
  Basis Set:

    Orbital Energies (a.u.)
    -----------------------

    Doubly Occupied:

       1A    -20.547205     2A    -11.324792     3A    -11.233974
       4A    -11.230976     5A    -11.228879     6A    -11.221017
       7A     -1.392653     8A     -1.088574     9A     -1.009998
      10A     -0.951179    11A     -0.832910    12A     -0.735398
      13A     -0.658542    14A     -0.653330    15A     -0.621332
      16A     -0.602834    17A     -0.577914    18A     -0.553581
      19A     -0.540010    20A     -0.518742    21A     -0.505447
      22A     -0.485768    23A     -0.474165    24A     -0.397586

  @DF-RHF Final Energy:  -270.02714882486430

   => Energetics <=

    Nuclear Repulsion Energy =            238.1618104479593683
    One-Electron Energy =                -837.6043835973342766
    Two-Electron Energy =                 329.4154243245104112
    DFT Exchange-Correlation Energy =       0.0000000000000000
    Empirical Dispersion Energy =           0.0000000000000000
    PCM Polarization Energy =               0.0000000000000000
    EFP Energy =                            0.0000000000000000
    Total Energy =                       -270.0271488248644687

  Mulliken Charges: (a.u.)
   Center  Symbol    Alpha    Beta     Spin     Total
       1     O     4.26235  4.26235  0.00000 -0.52471
       2     C     2.73114  2.73114  0.00000  0.53771
       3     C     3.20215  3.20215  0.00000 -0.40430
       4     C     3.29550  3.29550  0.00000 -0.59100
       5     C     3.16870  3.16870  0.00000 -0.33740
       6     H     0.39917  0.39917  0.00000  0.20165
       7     H     0.40754  0.40754  0.00000  0.18493
       8     C     3.23882  3.23882  0.00000 -0.47764
       9     H     0.41560  0.41560  0.00000  0.16879
      10     H     0.41693  0.41693  0.00000  0.16614
      11     H     0.41613  0.41613  0.00000  0.16773
      12     H     0.41773  0.41773  0.00000  0.16454
      13     H     0.41996  0.41996  0.00000  0.16009
      14     H     0.40940  0.40940  0.00000  0.18120
      15     H     0.39484  0.39484  0.00000  0.21032
      16     H     0.40402  0.40402  0.00000  0.19195

   Total alpha = 24.00000, Total beta = 24.00000, Total charge =  0.00000
