  ==> Input File <==

--------------------------------------------------------------------------
set {
	reference rhf
	basis 6-31G*
}

set_num_threads( 4 )
memory 2 gb

molecule MOL {
0 1

H	 -2.098997	 -0.674324	 -0.616650
O	 -2.035884	 -0.060112	 0.102722
C	 -0.955155	 0.788182	 -0.092531
C	 0.353668	 0.040312	 -0.004810
H	 -0.985057	 1.290372	 -1.054184
H	 -0.974469	 1.533190	 0.688632
F	 0.148501	 -1.219360	 0.363573
F	 0.955652	 0.021209	 -1.183135
F	 1.184051	 0.576879	 0.865885

	symmetry c1
}
set optking {
	frozen_dihedral = ("
		7 4 3 5
	")
}

ee = optimize('scf')
oeprop('DIPOLE', 'QUADRUPOLE', 'MULLIKEN_CHARGES')
f=open( 'psi4out.xyz', 'w' )
f.write( "9  " )
f.write( str(ee) + "\n" )
f.write( MOL.save_string_xyz() )
f.close()
--------------------------------------------------------------------------

    Molecular point group: c1
  Charge       = 0
  Multiplicity = 1
  Basis Set: 6-31G*
  Basis Set:
  @DF-RHF Final Energy:  -450.65416593428142
    Total Energy =                       -450.6541659342815365
    Molecular point group: c1
  Basis Set: 6-31G*
  Basis Set:
  Basis Set: 6-31G*
  Basis Set:
  @DF-RHF Final Energy:  -450.65471417392905
    Total Energy =                       -450.6547141739289941
  Basis Set: 6-31G*
  Basis Set:
  Basis Set: 6-31G*
  Basis Set:
  @DF-RHF Final Energy:  -450.65536070823242
    Total Energy =                       -450.6553607082322515
  Basis Set: 6-31G*
  Basis Set:
  Basis Set: 6-31G*
  Basis Set:
  @DF-RHF Final Energy:  -450.65538440939736
    Total Energy =                       -450.6553844093974703
  Basis Set: 6-31G*
  Basis Set:
  Charge       = 0
  Multiplicity = 1
  Basis Set: 6-31G*
  Basis Set:

    Orbital Energies (a.u.)
    -----------------------

    Doubly Occupied:

       1A    -26.341558     2A    -26.340186     3A    -26.338905
       4A    -20.589358     5A    -11.501065     6A    -11.309814
       7A     -1.739521     8A     -1.637778     9A     -1.634394
      10A     -1.400990    11A     -1.042250    12A     -0.923486
      13A     -0.828344    14A     -0.826762    15A     -0.806035
      16A     -0.725137    17A     -0.711869    18A     -0.697467
      19A     -0.663016    20A     -0.657174    21A     -0.640430
      22A     -0.626822    23A     -0.610358    24A     -0.526492
      25A     -0.479776

  @DF-RHF Final Energy:  -450.65538620177557

   => Energetics <=

    Nuclear Repulsion Energy =            275.8508936170158563
    One-Electron Energy =               -1173.8145859996288891
    Two-Electron Energy =                 447.3083061808377465
    DFT Exchange-Correlation Energy =       0.0000000000000000
    Empirical Dispersion Energy =           0.0000000000000000
    PCM Polarization Energy =               0.0000000000000000
    EFP Energy =                            0.0000000000000000
    Total Energy =                       -450.6553862017753431
    Molecular point group: c1
  Basis Set: 6-31G*
  Basis Set:

  -Total Gradient:
     Atom            X                  Y                   Z
    ------   -----------------  -----------------  -----------------
       1       -0.000005053214    -0.000002193139    -0.000001409646
       2        0.000105769925     0.000057964974    -0.000028921638
       3        0.000499785036     0.001030045044     0.000287907964
       4        0.000123861846     0.000198000545     0.001176118756
       5       -0.000540738250    -0.000947364886    -0.000502189581
       6        0.000004068594    -0.000015337893    -0.000006238693
       7       -0.000138475820    -0.000345983023    -0.000918322272
       8       -0.000031017858     0.000054812660     0.000077807115
       9       -0.000018200253    -0.000029944280    -0.000084752000

  **** Optimization is complete! (in 5 steps) ****
    Final optimized geometry and variables:
    Molecular point group: c1

    Geometry (in Angstrom), charge = 0, multiplicity = 1:

    H           -2.144282304000    -0.663412886921    -0.606566876680
    O           -2.078284991170    -0.024811333963     0.090392337306
    C           -0.970783509497     0.789560367857    -0.095609214794
    C            0.358184506905     0.029917312468    -0.004575775119
    H           -0.994022429555     1.294572779271    -1.054838981327
    H           -0.988886726244     1.528691385519     0.689777238318
    F            0.193021878489    -1.228256091515     0.352649045672
    F            0.982556478637     0.020900468923    -1.176858710370
    F            1.180023077250     0.596060607846     0.862930487580

  Mulliken Charges: (a.u.)
   Center  Symbol    Alpha    Beta     Spin     Total
       1     H     0.27428  0.27428  0.00000  0.45144
       2     O     4.35844  4.35844  0.00000 -0.71687
       3     C     3.07024  3.07024  0.00000 -0.14047
       4     C     2.45658  2.45658  0.00000  1.08684
       5     H     0.40499  0.40499  0.00000  0.19003
       6     H     0.39131  0.39131  0.00000  0.21738
       7     F     4.67653  4.67653  0.00000 -0.35307
       8     F     4.68572  4.68572  0.00000 -0.37145
       9     F     4.68192  4.68192  0.00000 -0.36384

   Total alpha = 25.00000, Total beta = 25.00000, Total charge = -0.00000
