  ==> Input File <==

--------------------------------------------------------------------------
set {
	reference rhf
	basis 6-31G*
}

set_num_threads( 4 )
memory 2 gb

molecule MOL {
0 1

H	 -3.301617	 0.570527	 0.000000
C	 -2.250981	 0.344174	 0.000000
C	 -1.813665	 -0.976045	 0.000000
C	 -1.315303	 1.358057	 0.000000
H	 -2.528860	 -1.779366	 0.000000
C	 -0.467298	 -1.270142	 0.000000
H	 -1.635074	 2.385107	 0.000000
C	 0.047081	 1.078114	 0.000000
H	 -0.115948	 -2.285222	 0.000000
C	 0.472063	 -0.241155	 0.000000
H	 0.749976	 1.888426	 0.000000
O	 1.765256	 -0.628444	 0.000000
C	 2.731766	 0.179401	 0.606893
H	 2.789042	 1.154094	 0.133581
H	 3.674750	 -0.331157	 0.480708
H	 2.535148	 0.306320	 1.666405

	symmetry c1
}
set optking {
	frozen_dihedral = ("
		13 12 10 8
	")
}

ee = optimize('scf')
oeprop('DIPOLE', 'QUADRUPOLE', 'MULLIKEN_CHARGES')
f=open( 'psi4out.xyz', 'w' )
f.write( "16  " )
f.write( str(ee) + "\n" )
f.write( MOL.save_string_xyz() )
f.close()
--------------------------------------------------------------------------

    Molecular point group: c1
  Charge       = 0
  Multiplicity = 1
  Basis Set: 6-31G*
  Basis Set:
  @DF-RHF Final Energy:  -344.58084616674330
    Total Energy =                       -344.5808461667434131
    Molecular point group: c1
  Basis Set: 6-31G*
  Basis Set:
  Basis Set: 6-31G*
  Basis Set:
  @DF-RHF Final Energy:  -344.58147259521616
    Total Energy =                       -344.5814725952159279
  Basis Set: 6-31G*
  Basis Set:
  Basis Set: 6-31G*
  Basis Set:
  @DF-RHF Final Energy:  -344.58163788067776
    Total Energy =                       -344.5816378806778175
  Basis Set: 6-31G*
  Basis Set:
  Basis Set: 6-31G*
  Basis Set:
  @DF-RHF Final Energy:  -344.58164785224216
    Total Energy =                       -344.5816478522419857
  Basis Set: 6-31G*
  Basis Set:
  Basis Set: 6-31G*
  Basis Set:
  @DF-RHF Final Energy:  -344.58164897858018
    Total Energy =                       -344.5816489785800059
  Basis Set: 6-31G*
  Basis Set:
  Charge       = 0
  Multiplicity = 1
  Basis Set: 6-31G*
  Basis Set:

    Orbital Energies (a.u.)
    -----------------------

    Doubly Occupied:

       1A    -20.581278     2A    -11.291961     3A    -11.278920
       4A    -11.233127     5A    -11.231607     6A    -11.224539
       7A    -11.220834     8A    -11.220053     9A     -1.410062
      10A     -1.146145    11A     -1.020516    12A     -1.013086
      13A     -0.939606    14A     -0.831226    15A     -0.804975
      16A     -0.719305    17A     -0.664668    18A     -0.661665
      19A     -0.651674    20A     -0.615596    21A     -0.588361
      22A     -0.578397    23A     -0.526717    24A     -0.515561
      25A     -0.507026    26A     -0.479135    27A     -0.454530
      28A     -0.334605    29A     -0.307953

  @DF-RHF Final Energy:  -344.58164895156904

   => Energetics <=

    Nuclear Repulsion Energy =            348.0051016549967926
    One-Electron Energy =               -1157.0672413282668458
    Two-Electron Energy =                 464.4804907217008463
    DFT Exchange-Correlation Energy =       0.0000000000000000
    Empirical Dispersion Energy =           0.0000000000000000
    PCM Polarization Energy =               0.0000000000000000
    EFP Energy =                            0.0000000000000000
    Total Energy =                       -344.5816489515692069
    Molecular point group: c1
  Basis Set: 6-31G*
  Basis Set:

  -Total Gradient:
     Atom            X                  Y                   Z
    ------   -----------------  -----------------  -----------------
       1       -0.000004489526    -0.000011457421     0.000006848103
       2        0.000017974641     0.000021917751     0.000043928686
       3        0.000021860985     0.000000825426    -0.000057851857
       4       -0.000031760281    -0.000006297893    -0.000043892362
       5       -0.000010455016     0.000006280755     0.000006844820
       6       -0.000005113206    -0.000029719581     0.000112577152
       7       -0.000002738109    -0.000006415346     0.000000017445
       8       -0.000036768974     0.000045427772    -0.001597879148
       9       -0.000005321125     0.000004238258    -0.000001543365
      10       -0.000053005089    -0.000410193855     0.003135678953
      11        0.000008986992    -0.000021738236    -0.000013780712
      12        0.000238521373     0.001183651606    -0.003007900115
      13       -0.000134493087    -0.000776192650     0.001444421109
      14       -0.000006554058     0.000033221371    -0.000016509444
      15       -0.000003005042    -0.000002773566     0.000013944241
      16        0.000006359515    -0.000030774395    -0.000024903505

  **** Optimization is complete! (in 6 steps) ****
    Final optimized geometry and variables:
    Molecular point group: c1

    Geometry (in Angstrom), charge = 0, multiplicity = 1:

    H           -3.293560858741     0.592122281693    -0.081463886899
    C           -2.243332454749     0.363437688303    -0.080437364774
    C           -1.810607362777    -0.956138782467    -0.113462438388
    C           -1.305576058493     1.377523550236    -0.047871135688
    H           -2.528354145441    -1.756777001900    -0.139722894906
    C           -0.462764490478    -1.253832650488    -0.106907091428
    H           -1.624296685091     2.404647739308    -0.027254177249
    C            0.053799787068     1.092478743999    -0.047802908323
    H           -0.113716464550    -2.269424053917    -0.130376268913
    C            0.475530399258    -0.228024769767    -0.070813973679
    H            0.765190124270     1.896250747599    -0.033073945986
    O            1.775782364375    -0.600457515396    -0.108488662945
    C            2.739395684425     0.224888213080     0.485507874033
    H            2.941716506546     1.103364781858    -0.118001802657
    H            3.642862963248    -0.362815845697     0.556751942762
    H            2.431939698948     0.536141095244     1.478076227666

  Mulliken Charges: (a.u.)
   Center  Symbol    Alpha    Beta     Spin     Total
       1     H     0.40094  0.40094  0.00000  0.19812
       2     C     3.11067  3.11067  0.00000 -0.22135
       3     C     3.09302  3.09302  0.00000 -0.18603
       4     C     3.09232  3.09232  0.00000 -0.18465
       5     H     0.39868  0.39868  0.00000  0.20264
       6     C     3.12463  3.12463  0.00000 -0.24925
       7     H     0.39936  0.39936  0.00000  0.20128
       8     C     3.13837  3.13837  0.00000 -0.27674
       9     H     0.39299  0.39299  0.00000  0.21402
      10     C     2.78677  2.78677  0.00000  0.42647
      11     H     0.39748  0.39748  0.00000  0.20504
      12     O     4.32780  4.32780  0.00000 -0.65559
      13     C     3.09021  3.09021  0.00000 -0.18041
      14     H     0.42143  0.42143  0.00000  0.15713
      15     H     0.40624  0.40624  0.00000  0.18753
      16     H     0.41910  0.41910  0.00000  0.16180

   Total alpha = 29.00000, Total beta = 29.00000, Total charge = -0.00000
