                              Psi4 1.0.54 Driver

  ==> Input File <==

--------------------------------------------------------------------------
set {
	reference rhf
	basis cc-pvtz
}

set_num_threads( 4 )
memory 2 gb

molecule MOL {
0 1

O	 2.868453	 1.353349	 -0.000734
C	 2.841259	 0.166180	 -0.000295
C	 1.542794	 -0.614730	 -0.000853
C	 4.113372	 -0.651103	 0.000743
C	 0.288398	 0.247429	 0.000314
H	 1.557171	 -1.273139	 -0.866508
H	 1.557484	 -1.274998	 0.863344
C	 0.251868	 1.228397	 1.168851
H	 -0.584347	 -0.394826	 0.030971
H	 0.228119	 0.788564	 -0.937062
C	 -1.001266	 2.098924	 1.181797
H	 0.315151	 0.678844	 2.105474
H	 1.131081	 1.867885	 1.132797
C	 -1.045450	 3.082451	 2.347754
H	 -1.880658	 1.460592	 1.218074
H	 -1.064998	 2.649253	 0.246274
C	 -2.300579	 3.948708	 2.353953
H	 -0.982993	 2.533151	 3.283333
H	 -0.167451	 3.721769	 2.311563
H	 -3.195774	 3.339858	 2.424448
H	 -2.300665	 4.634728	 3.193237
H	 -2.374072	 4.537441	 1.445637
H	 4.145311	 -1.294584	 -0.871587
H	 4.970080	 0.004978	 -0.000091
H	 4.145223	 -1.291980	 0.874988

	symmetry c1
}
set optking {
	frozen_dihedral = ("
		9 5 3 6
	")
}

ee,wfn = optimize('scf', return_wfn=True)
oeprop( wfn, 'DIPOLE', 'QUADRUPOLE', 'MULLIKEN_CHARGES')
f=open( 'psi4out.xyz', 'w' )
f.write( "25  " )
f.write( str(ee) + "\n" )
f.write( MOL.save_string_xyz() )
f.close()
--------------------------------------------------------------------------

    Molecular point group: c1
  Charge       = 0
  Multiplicity = 1
  Basis Set: CC-PVTZ
  Basis Set:
  @DF-RHF Final Energy:  -387.26908712895607
    Total Energy =                       -387.2690871289556753
    Molecular point group: c1
  Basis Set: CC-PVTZ
  Basis Set:
  Basis Set: CC-PVTZ
  Basis Set:
  @DF-RHF Final Energy:  -387.27227752557394
    Total Energy =                       -387.2722775255740544
  Basis Set: CC-PVTZ
  Basis Set:
  Basis Set: CC-PVTZ
  Basis Set:
  @DF-RHF Final Energy:  -387.27108332769586
    Total Energy =                       -387.2710833276962603
  Basis Set: CC-PVTZ
  Basis Set:
  Basis Set: CC-PVTZ
  Basis Set:
  @DF-RHF Final Energy:  -387.27288609443497
    Total Energy =                       -387.2728860944351936
  Basis Set: CC-PVTZ
  Basis Set:
  @DF-RHF Final Energy:  -387.27321153368194
    Total Energy =                       -387.2732115336818879
  @DF-RHF Final Energy:  -387.27331853813956
    Total Energy =                       -387.2733185381389376
  Basis Set: CC-PVTZ
  Basis Set:
  @DF-RHF Final Energy:  -387.27335588060186
    Total Energy =                       -387.2733558806015708
  Basis Set: CC-PVTZ
  Basis Set:
  Basis Set: CC-PVTZ
  Basis Set:
  @DF-RHF Final Energy:  -387.27336812240941
    Total Energy =                       -387.2733681224086695
  Basis Set: CC-PVTZ
  Basis Set:
  Basis Set: CC-PVTZ
  Basis Set:
  @DF-RHF Final Energy:  -387.27337092661537
    Total Energy =                       -387.2733709266152573
  Basis Set: CC-PVTZ
  Basis Set:
  Charge       = 0
  Multiplicity = 1
  Basis Set: CC-PVTZ
  Basis Set:

    Orbital Energies (a.u.)
    -----------------------

    Doubly Occupied:

       1A    -20.538338     2A    -11.321371     3A    -11.230978
       4A    -11.227221     5A    -11.217307     6A    -11.210095
       7A    -11.208703     8A    -11.208082     9A    -11.203936
      10A     -1.399124    11A     -1.092495    12A     -1.056058
      13A     -1.014587    14A     -0.968703    15A     -0.889897
      16A     -0.816120    17A     -0.788440    18A     -0.727232
      19A     -0.669707    20A     -0.638945    21A     -0.633750
      22A     -0.625497    23A     -0.595149    24A     -0.585695
      25A     -0.571884    26A     -0.558782    27A     -0.535498
      28A     -0.527924    29A     -0.516938    30A     -0.498205
      31A     -0.484033    32A     -0.476052    33A     -0.460825
      34A     -0.459532    35A     -0.441292    36A     -0.401030

  @DF-RHF Final Energy:  -387.27337190436134

   => Energetics <=

    Nuclear Repulsion Energy =            449.4673158086251874
    One-Electron Energy =               -1415.8825175406032031
    Two-Electron Energy =                 579.1418298276163341
    DFT Exchange-Correlation Energy =       0.0000000000000000
    Empirical Dispersion Energy =           0.0000000000000000
    PCM Polarization Energy =               0.0000000000000000
    EFP Energy =                            0.0000000000000000
    Total Energy =                       -387.2733719043616247
    Molecular point group: c1
  Basis Set: CC-PVTZ
  Basis Set:

  -Total Gradient:
     Atom            X                  Y                   Z
    ------   -----------------  -----------------  -----------------
       1        0.000049954194     0.000010031399    -0.000028158602
       2       -0.000032384018     0.000009252567     0.000024924441
       3       -0.002074080475    -0.002739308541     0.002555023435
       4       -0.000031427251    -0.000029437562    -0.000048163700
       5        0.000258354321     0.000665974464    -0.004189055455
       6        0.001668008260     0.002173993492    -0.001539481424
       7        0.000014444970     0.000009225300     0.000029536770
       8       -0.000042207365    -0.000014370535     0.000047906914
       9        0.000131014168    -0.000123327777     0.003118564380
      10        0.000000340062     0.000007773882    -0.000004381125
      11       -0.000025264808    -0.000002886425    -0.000014143875
      12        0.000008182852     0.000008422022     0.000002368910
      13        0.000015660833     0.000011913417     0.000002132886
      14        0.000007514818     0.000001438720     0.000003418504
      15        0.000008972137    -0.000001062797    -0.000000314133
      16        0.000001662010     0.000002140823     0.000000346198
      17        0.000000563878    -0.000005850580    -0.000005049189
      18       -0.000000698110    -0.000001455976    -0.000001315214
      19       -0.000001004938    -0.000002652045    -0.000001326138
      20       -0.000000599035     0.000000110474    -0.000001142917
      21        0.000004303155    -0.000001853723    -0.000000042578
      22       -0.000000649505     0.000000306217    -0.000000341295
      23        0.000011452233     0.000025257122     0.000017772905
      24        0.000006318367     0.000002768562     0.000018873694
      25        0.000021569245    -0.000006402502     0.000012046602

  **** Optimization is complete! (in 10 steps) ****
    Final optimized geometry and variables:
    Molecular point group: c1

    Geometry (in Angstrom), charge = 0, multiplicity = 1:

    O            2.096907398078    -0.055328968504    -1.374427213819
    C            1.937744757210    -1.169484028415    -0.994953091917
    C            0.561214272094    -1.799465522660    -0.885645090358
    C            3.108095315869    -2.054327257724    -0.634471170398
    C           -0.599978339528    -0.813429280043    -0.798831479721
    H            0.470620213958    -2.394333655085    -1.793179392966
    H            0.548670111078    -2.498089003701    -0.055496473483
    C           -0.574445797824     0.071434192360     0.447599612354
    H           -1.521084860828    -1.388761994226    -0.780615214744
    H           -0.615910399163    -0.195200463705    -1.687582340535
    C           -1.783892771004     0.997658078405     0.538291783073
    H           -0.542900125083    -0.560969395483     1.333204974228
    H            0.331040918345     0.665976952606     0.454668343185
    C           -1.774688069012     1.885210709343     1.779586531587
    H           -2.696165869164     0.405160202549     0.529166148095
    H           -1.819545268728     1.625051118115    -0.348923777939
    C           -2.983104892378     2.811766100844     1.863218397713
    H           -1.738842961440     1.260014906392     2.667875028352
    H           -0.864792594447     2.478607783361     1.788207372817
    H           -3.908995629019     2.246586623851     1.890419950324
    H           -2.945670025547     3.427290234356     2.754773359113
    H           -3.027454458840     3.474739577600     1.005574741207
    H            3.019497947042    -3.023352474241    -1.112444839381
    H            4.033131907057    -1.580530503291    -0.925134917611
    H            3.111121814569    -2.223016276006     0.437599638607

  Mulliken Charges: (a.u.)
   Center  Symbol    Alpha    Beta     Spin     Total
       1     O     4.17522  4.17522  0.00000 -0.35044
       2     C     2.85722  2.85722  0.00000  0.28556
       3     C     3.12456  3.12456  0.00000 -0.24913
       4     C     3.15169  3.15169  0.00000 -0.30338
       5     C     3.08945  3.08945  0.00000 -0.17890
       6     H     0.43563  0.43563  0.00000  0.12874
       7     H     0.44235  0.44235  0.00000  0.11531
       8     C     3.09399  3.09399  0.00000 -0.18797
       9     H     0.44756  0.44756  0.00000  0.10488
      10     H     0.44502  0.44502  0.00000  0.10995
      11     C     3.08819  3.08819  0.00000 -0.17637
      12     H     0.45922  0.45922  0.00000  0.08155
      13     H     0.44148  0.44148  0.00000  0.11704
      14     C     3.08340  3.08340  0.00000 -0.16680
      15     H     0.45662  0.45662  0.00000  0.08675
      16     H     0.45289  0.45289  0.00000  0.09421
      17     C     3.15074  3.15074  0.00000 -0.30148
      18     H     0.45627  0.45627  0.00000  0.08746
      19     H     0.45298  0.45298  0.00000  0.09403
      20     H     0.45604  0.45604  0.00000  0.08793
      21     H     0.44880  0.44880  0.00000  0.10240
      22     H     0.45457  0.45457  0.00000  0.09086
      23     H     0.45050  0.45050  0.00000  0.09901
      24     H     0.43606  0.43606  0.00000  0.12787
      25     H     0.44955  0.44955  0.00000  0.10090

   Total alpha = 36.00000, Total beta = 36.00000, Total charge = -0.00000

*** Psi4 exiting successfully. Buy a developer a beer!
