  ==> Input File <==

--------------------------------------------------------------------------
set {
	reference rhf
	basis 6-31G*
}

set_num_threads( 4 )
memory 2 gb

molecule MOL {
0 1

O	 0.749854	 1.307668	 -0.000040
C	 0.576249	 0.131685	 -0.000108
C	 -0.766779	 -0.556801	 -0.000461
O	 1.568443	 -0.749345	 -0.000005
C	 -1.945214	 0.412366	 0.000161
H	 -0.796911	 -1.211249	 -0.867467
H	 -0.796854	 -1.212390	 0.865687
C	 -1.494795	 1.862989	 0.165640
H	 -2.629167	 0.143822	 0.798092
H	 -2.500996	 0.300677	 -0.924613
H	 -0.961920	 2.007671	 1.101356
H	 -2.346539	 2.535247	 0.164061
H	 -0.833268	 2.166606	 -0.641003
C	 2.886820	 -0.232538	 0.000322
H	 3.059106	 0.369571	 -0.880203
H	 3.540187	 -1.091012	 0.000050
H	 3.059019	 0.368956	 0.881266

	symmetry c1
}
set optking {
	frozen_dihedral = ("
		9 5 3 6
	")
}

ee = optimize('scf')
oeprop('DIPOLE', 'QUADRUPOLE', 'MULLIKEN_CHARGES')
f=open( 'psi4out.xyz', 'w' )
f.write( "17  " )
f.write( str(ee) + "\n" )
f.write( MOL.save_string_xyz() )
f.close()
--------------------------------------------------------------------------

    Molecular point group: c1
  Charge       = 0
  Multiplicity = 1
  Basis Set: 6-31G*
  Basis Set:
  @DF-RHF Final Energy:  -344.86891025103773
    Total Energy =                       -344.8689102510380735
    Molecular point group: c1
  Basis Set: 6-31G*
  Basis Set:
  Basis Set: 6-31G*
  Basis Set:
  @DF-RHF Final Energy:  -344.88881552446071
    Total Energy =                       -344.8888155244608811
  Basis Set: 6-31G*
  Basis Set:
  Basis Set: 6-31G*
  Basis Set:
  @DF-RHF Final Energy:  -344.89241338776594
    Total Energy =                       -344.8924133877661689
  Basis Set: 6-31G*
  Basis Set:
  Basis Set: 6-31G*
  Basis Set:
  @DF-RHF Final Energy:  -344.89082065661341
    Total Energy =                       -344.8908206566136414
  Basis Set: 6-31G*
  Basis Set:
  @DF-RHF Final Energy:  -344.89416278230061
    Total Energy =                       -344.8941627823007252
  @DF-RHF Final Energy:  -344.89433869362836
    Total Energy =                       -344.8943386936282423
  @DF-RHF Final Energy:  -344.89439565895458
    Total Energy =                       -344.8943956589548065
  @DF-RHF Final Energy:  -344.89459408762656
    Total Energy =                       -344.8945940876267287
  @DF-RHF Final Energy:  -344.89466612992004
    Total Energy =                       -344.8946661299198126
  @DF-RHF Final Energy:  -344.89486178443985
    Total Energy =                       -344.8948617844395699
  @DF-RHF Final Energy:  -344.89506453232985
    Total Energy =                       -344.8950645323303661
  @DF-RHF Final Energy:  -344.89527193249148
    Total Energy =                       -344.8952719324914824
  @DF-RHF Final Energy:  -344.89548461941098
    Total Energy =                       -344.8954846194108654
  @DF-RHF Final Energy:  -344.89505187863466
    Total Energy =                       -344.8950518786347743
  @DF-RHF Final Energy:  -344.89577674056000
    Total Energy =                       -344.8957767405602226
  @DF-RHF Final Energy:  -344.89599889994133
    Total Energy =                       -344.8959988999417874
  @DF-RHF Final Energy:  -344.89648783259929
    Total Energy =                       -344.8964878325994050
  @DF-RHF Final Energy:  -344.89695569801410
    Total Energy =                       -344.8969556980139259
  @DF-RHF Final Energy:  -344.89736091260920
    Total Energy =                       -344.8973609126093152
  @DF-RHF Final Energy:  -344.89734881998379
    Total Energy =                       -344.8973488199836197
  @DF-RHF Final Energy:  -344.89750837569346
    Total Energy =                       -344.8975083756928939
  Basis Set: 6-31G*
  Basis Set:
  @DF-RHF Final Energy:  -344.89762627810694
    Total Energy =                       -344.8976262781067703
  Basis Set: 6-31G*
  Basis Set:
  Basis Set: 6-31G*
  Basis Set:
  @DF-RHF Final Energy:  -344.89765594854714
    Total Energy =                       -344.8976559485470261
  Basis Set: 6-31G*
  Basis Set:
  Basis Set: 6-31G*
  Basis Set:
  @DF-RHF Final Energy:  -344.89765949144305
    Total Energy =                       -344.8976594914431075
  Basis Set: 6-31G*
  Basis Set:
  Charge       = 0
  Multiplicity = 1
  Basis Set: 6-31G*
  Basis Set:

    Orbital Energies (a.u.)
    -----------------------

    Doubly Occupied:

       1A    -20.605178     2A    -20.542899     3A    -11.371247
       4A    -11.280738     5A    -11.234243     6A    -11.233325
       7A    -11.214466     8A     -1.469143     9A     -1.361299
      10A     -1.078265    11A     -0.996799    12A     -0.943772
      13A     -0.835434    14A     -0.768874    15A     -0.688399
      16A     -0.679113    17A     -0.673261    18A     -0.632917
      19A     -0.606492    20A     -0.579799    21A     -0.553631
      22A     -0.538938    23A     -0.527141    24A     -0.502064
      25A     -0.484542    26A     -0.478525    27A     -0.454158
      28A     -0.431963

  @DF-RHF Final Energy:  -344.89766010492377

   => Energetics <=

    Nuclear Repulsion Energy =            322.6091614378890995
    One-Electron Energy =               -1109.4803926056040382
    Two-Electron Energy =                 441.9735710627912226
    DFT Exchange-Correlation Energy =       0.0000000000000000
    Empirical Dispersion Energy =           0.0000000000000000
    PCM Polarization Energy =               0.0000000000000000
    EFP Energy =                            0.0000000000000000
    Total Energy =                       -344.8976601049237729
    Molecular point group: c1
  Basis Set: 6-31G*
  Basis Set:

  -Total Gradient:
     Atom            X                  Y                   Z
    ------   -----------------  -----------------  -----------------
       1        0.000006407478     0.000001686343     0.000058573983
       2       -0.000038189268     0.000013579238    -0.000114384296
       3       -0.001152847309    -0.001718699740     0.001298211465
       4        0.000061049317     0.000040868714     0.000054819148
       5       -0.001484290820    -0.000439038138    -0.001780983648
       6        0.001162167341     0.001488319655    -0.000851347120
       7       -0.000001719546     0.000008295354     0.000012191987
       8        0.000008693148    -0.000030968436     0.000039515734
       9        0.001425775683     0.000638267686     0.001333349880
      10        0.000010261213    -0.000002953581    -0.000006003919
      11       -0.000011179660     0.000006055608    -0.000007113207
      12        0.000009843061     0.000003984213    -0.000016678512
      13        0.000006957393     0.000025154434    -0.000020069144
      14       -0.000006036150    -0.000071018341    -0.000014214342
      15        0.000010919176     0.000010035036     0.000008694941
      16        0.000003983744     0.000011177275     0.000005311375
      17       -0.000011794805     0.000015254679     0.000000125678

  **** Optimization is complete! (in 25 steps) ****
    Final optimized geometry and variables:
    Molecular point group: c1

    Geometry (in Angstrom), charge = 0, multiplicity = 1:

    O            0.713985049015     0.142641522172    -1.457198648059
    C            0.295109268071    -0.376226070257    -0.472067172593
    C           -1.122427677642    -0.866444454298    -0.295631739174
    O            1.036369289143    -0.579946737051     0.609344234391
    C           -2.102495373572     0.215022917534     0.250907397480
    H           -1.444327100839    -1.187433512417    -1.277284316435
    H           -1.105910446269    -1.725370227266     0.361836294167
    C           -1.462522890502     1.511916199891     0.754585853524
    H           -2.664284604512    -0.222148334204     1.068940476033
    H           -2.817676871276     0.458740044421    -0.525935932783
    H           -0.775892941217     1.325162023695     1.573397035975
    H           -2.232061322109     2.186755921030     1.115059367499
    H           -0.919472321035     2.021447599698    -0.034088172104
    C            2.379657936781    -0.134213184311     0.559519042297
    H            2.915076519007    -0.631850103140    -0.236012676309
    H            2.810225512103    -0.386847399740     1.515939821838
    H            2.419550943889     0.933845313108     0.400739078674

  Mulliken Charges: (a.u.)
   Center  Symbol    Alpha    Beta     Spin     Total
       1     O     4.28460  4.28460  0.00000 -0.56921
       2     C     2.62015  2.62015  0.00000  0.75970
       3     C     3.19829  3.19829  0.00000 -0.39658
       4     O     4.30186  4.30186  0.00000 -0.60371
       5     C     3.15451  3.15451  0.00000 -0.30901
       6     H     0.39800  0.39800  0.00000  0.20399
       7     H     0.40169  0.40169  0.00000  0.19663
       8     C     3.25821  3.25821  0.00000 -0.51641
       9     H     0.41435  0.41435  0.00000  0.17130
      10     H     0.41171  0.41171  0.00000  0.17658
      11     H     0.41339  0.41339  0.00000  0.17322
      12     H     0.41511  0.41511  0.00000  0.16979
      13     H     0.40903  0.40903  0.00000  0.18195
      14     C     3.09297  3.09297  0.00000 -0.18594
      15     H     0.40823  0.40823  0.00000  0.18354
      16     H     0.40879  0.40879  0.00000  0.18242
      17     H     0.40913  0.40913  0.00000  0.18174

   Total alpha = 28.00000, Total beta = 28.00000, Total charge =  0.00000
