  ==> Input File <==

--------------------------------------------------------------------------
set {
	reference rhf
	basis 6-31G*
}

set_num_threads( 4 )
memory 2 gb

molecule MOL {
0 1

H	 1.436926	 -1.417607	 0.581422
O	 1.586534	 -0.678666	 -0.000226
C	 0.489431	 0.077273	 0.000046
C	 -0.764129	 -0.759190	 0.000191
O	 0.537743	 1.263962	 0.000257
C	 -2.038368	 0.075731	 -0.000248
H	 -0.717284	 -1.412404	 -0.866059
H	 -0.717458	 -1.411724	 0.866967
H	 -2.086483	 0.712501	 -0.875098
H	 -2.908485	 -0.571682	 -0.000042
H	 -2.086576	 0.713280	 0.874068

	symmetry c1
}
set optking {
	frozen_dihedral = ("
		1 2 3 5
	")
}

ee = optimize('scf')
oeprop('DIPOLE', 'QUADRUPOLE', 'MULLIKEN_CHARGES')
f=open( 'psi4out.xyz', 'w' )
f.write( "11  " )
f.write( str(ee) + "\n" )
f.write( MOL.save_string_xyz() )
f.close()
--------------------------------------------------------------------------

    Molecular point group: c1
  Charge       = 0
  Multiplicity = 1
  Basis Set: 6-31G*
  Basis Set:
  @DF-RHF Final Energy:  -266.82861225281073
    Total Energy =                       -266.8286122528105579
    Molecular point group: c1
  Basis Set: 6-31G*
  Basis Set:
  Basis Set: 6-31G*
  Basis Set:
  @DF-RHF Final Energy:  -266.83001986012709
    Total Energy =                       -266.8300198601269813
  Basis Set: 6-31G*
  Basis Set:
  Basis Set: 6-31G*
  Basis Set:
  @DF-RHF Final Energy:  -266.83016711493406
    Total Energy =                       -266.8301671149340564
  Basis Set: 6-31G*
  Basis Set:
  Basis Set: 6-31G*
  Basis Set:
  @DF-RHF Final Energy:  -266.83012173298329
    Total Energy =                       -266.8301217329833435
  Basis Set: 6-31G*
  Basis Set:
  Basis Set: 6-31G*
  Basis Set:
  @DF-RHF Final Energy:  -266.83017482860055
    Total Energy =                       -266.8301748286003203
  Basis Set: 6-31G*
  Basis Set:
  Charge       = 0
  Multiplicity = 1
  Basis Set: 6-31G*
  Basis Set:

    Orbital Energies (a.u.)
    -----------------------

    Doubly Occupied:

       1A    -20.606525     2A    -20.554890     3A    -11.381891
       4A    -11.253783     5A    -11.225476     6A     -1.465670
       7A     -1.371339     8A     -1.067998     9A     -0.908604
      10A     -0.823142    11A     -0.717465    12A     -0.668858
      13A     -0.657532    14A     -0.615928    15A     -0.582856
      16A     -0.533121    17A     -0.523975    18A     -0.510953
      19A     -0.481815    20A     -0.444053

  @DF-RHF Final Energy:  -266.83017522222292

   => Energetics <=

    Nuclear Repulsion Energy =            179.3954705911590679
    One-Electron Energy =                -719.6595416013918793
    Two-Electron Energy =                 273.4338957880100907
    DFT Exchange-Correlation Energy =       0.0000000000000000
    Empirical Dispersion Energy =           0.0000000000000000
    PCM Polarization Energy =               0.0000000000000000
    EFP Energy =                            0.0000000000000000
    Total Energy =                       -266.8301752222226924
    Molecular point group: c1
  Basis Set: 6-31G*
  Basis Set:

  -Total Gradient:
     Atom            X                  Y                   Z
    ------   -----------------  -----------------  -----------------
       1        0.002364928494     0.003807435953     0.005281606139
       2       -0.003052177478    -0.004783154942    -0.003971225669
       3        0.000737951884     0.000853408669    -0.007347393446
       4        0.000031278670     0.000005994568    -0.000042426920
       5       -0.000059763987     0.000114109081     0.006035672051
       6       -0.000017375963     0.000002060888     0.000017486932
       7       -0.000004424199    -0.000000350962     0.000020073853
       8        0.000002016770     0.000005921409     0.000019984503
       9        0.000001974341    -0.000002854447    -0.000001527706
      10       -0.000009730320     0.000002382948    -0.000004842704
      11        0.000005321786    -0.000004953166    -0.000007407033

  **** Optimization is complete! (in 6 steps) ****
    Final optimized geometry and variables:
    Molecular point group: c1

    Geometry (in Angstrom), charge = 0, multiplicity = 1:

    H            1.570864967281    -1.392590585771     0.580508138451
    O            1.636803305759    -0.640646214115     0.006373082934
    C            0.499463290333     0.081272919972    -0.007157075375
    C           -0.771429906259    -0.742252060800    -0.009875917653
    O            0.535328005153     1.260765390553    -0.020502283838
    C           -2.037034263119     0.105784782778    -0.008697170126
    H           -0.734126403293    -1.392535576319    -0.879691463888
    H           -0.751829791187    -1.401312059462     0.856891296743
    H           -2.071195105172     0.747457671303    -0.880043455428
    H           -2.914743401772    -0.531190434702    -0.015843831376
    H           -2.079392549607     0.739033752940     0.868784631829

  Mulliken Charges: (a.u.)
   Center  Symbol    Alpha    Beta     Spin     Total
       1     H     0.26935  0.26935  0.00000  0.46129
       2     O     4.35705  4.35705  0.00000 -0.71409
       3     C     2.61796  2.61796  0.00000  0.76407
       4     C     3.22357  3.22357  0.00000 -0.44713
       5     O     4.25429  4.25429  0.00000 -0.50859
       6     C     3.23758  3.23758  0.00000 -0.47515
       7     H     0.39746  0.39746  0.00000  0.20509
       8     H     0.41205  0.41205  0.00000  0.17590
       9     H     0.40568  0.40568  0.00000  0.18864
      10     H     0.41692  0.41692  0.00000  0.16616
      11     H     0.40809  0.40809  0.00000  0.18381

   Total alpha = 20.00000, Total beta = 20.00000, Total charge =  0.00000
