  ==> Input File <==

--------------------------------------------------------------------------
set {
	reference rhf
	basis cc-pvtz
}

set_num_threads( 4 )
memory 2 gb

molecule MOL {
0 1

H	 -1.043840	 -1.171673	 0.390343
N	 -1.173824	 -0.310545	 -0.096857
C	 -0.022588	 0.563366	 0.065815
H	 -1.317228	 -0.534922	 -1.059511
C	 1.270420	 -0.230572	 -0.014245
H	 -0.045354	 1.293678	 -0.735129
H	 -0.043155	 1.123061	 1.001180
H	 1.336273	 -0.754933	 -0.959364
H	 2.130728	 0.422015	 0.082222
H	 1.323344	 -0.967006	 0.781773

	symmetry c1
}
set optking {
	frozen_dihedral = ("
		1 2 3 6
	")
}

ee = optimize('scf')
oeprop('DIPOLE', 'QUADRUPOLE', 'MULLIKEN_CHARGES')
f=open( 'psi4out.xyz', 'w' )
f.write( "10  " )
f.write( str(ee) + "\n" )
f.write( MOL.save_string_xyz() )
f.close()
--------------------------------------------------------------------------

    Molecular point group: c1
  Charge       = 0
  Multiplicity = 1
  Basis Set: CC-PVTZ
  Basis Set:
  @DF-RHF Final Energy:  -134.30202518652663
    Total Energy =                       -134.3020251865266630
    Molecular point group: c1
  Basis Set: CC-PVTZ
  Basis Set:
  Basis Set: CC-PVTZ
  Basis Set:
  @DF-RHF Final Energy:  -134.30338283164707
    Total Energy =                       -134.3033828316470419
  Basis Set: CC-PVTZ
  Basis Set:
  Basis Set: CC-PVTZ
  Basis Set:
  @DF-RHF Final Energy:  -134.30357328819349
    Total Energy =                       -134.3035732881934905
  Basis Set: CC-PVTZ
  Basis Set:
  Charge       = 0
  Multiplicity = 1
  Basis Set: CC-PVTZ
  Basis Set:

    Orbital Energies (a.u.)
    -----------------------

    Doubly Occupied:

       1A    -15.527268     2A    -11.241474     3A    -11.209260
       4A     -1.178617     5A     -0.988938     6A     -0.832334
       7A     -0.673540     8A     -0.600118     9A     -0.581942
      10A     -0.554330    11A     -0.507061    12A     -0.484682
      13A     -0.384810

  @DF-RHF Final Energy:  -134.30357488653618

   => Energetics <=

    Nuclear Repulsion Energy =             83.3364696299773300
    One-Electron Energy =                -345.7513373244270269
    Two-Electron Energy =                 128.1112928079134861
    DFT Exchange-Correlation Energy =       0.0000000000000000
    Empirical Dispersion Energy =           0.0000000000000000
    PCM Polarization Energy =               0.0000000000000000
    EFP Energy =                            0.0000000000000000
    Total Energy =                       -134.3035748865362109
    Molecular point group: c1
  Basis Set: CC-PVTZ
  Basis Set:

  -Total Gradient:
     Atom            X                  Y                   Z
    ------   -----------------  -----------------  -----------------
       1        0.001072297266    -0.001050407120    -0.002306663130
       2       -0.000890489606     0.001097690530     0.002474304403
       3       -0.001366511414     0.001530984156     0.001280433686
       4        0.000004318045     0.000054506962     0.000052948018
       5        0.000057444788    -0.000038881309    -0.000028602591
       6        0.001190739950    -0.001603909379    -0.001488139972
       7       -0.000037666864    -0.000000492988    -0.000003055744
       8        0.000001063718    -0.000000410162     0.000009559691
       9       -0.000015967517     0.000006598011     0.000001376953
      10       -0.000015228364     0.000004321299     0.000007838686

  **** Optimization is complete! (in 4 steps) ****
    Final optimized geometry and variables:
    Molecular point group: c1

    Geometry (in Angstrom), charge = 0, multiplicity = 1:

    H           -1.116718920238    -1.136830507400     0.423364365077
    N           -1.228718478977    -0.267032492072    -0.055078158143
    C           -0.035298938678     0.556229282322     0.077327857876
    H           -1.390650506043    -0.495204670571    -1.013413057820
    C            1.283725541029    -0.207088895569     0.012273091476
    H           -0.052984637200     1.292786859707    -0.717545710969
    H           -0.091133863904     1.100345883804     1.013478677438
    H            1.386294146538    -0.727318727893    -0.934548801151
    H            2.128982273107     0.464385549440     0.120749579562
    H            1.343654757451    -0.945076180833     0.806327015402

  Mulliken Charges: (a.u.)
   Center  Symbol    Alpha    Beta     Spin     Total
       1     H     0.43198  0.43198  0.00000  0.13604
       2     N     3.68664  3.68664  0.00000 -0.37329
       3     C     3.02459  3.02459  0.00000 -0.04918
       4     H     0.43132  0.43132  0.00000  0.13736
       5     C     3.13961  3.13961  0.00000 -0.27922
       6     H     0.45666  0.45666  0.00000  0.08667
       7     H     0.45583  0.45583  0.00000  0.08835
       8     H     0.45873  0.45873  0.00000  0.08255
       9     H     0.45559  0.45559  0.00000  0.08882
      10     H     0.45905  0.45905  0.00000  0.08190

   Total alpha = 13.00000, Total beta = 13.00000, Total charge = -0.00000
