  ==> Input File <==

--------------------------------------------------------------------------
set {
	reference rhf
	basis 6-31G*
}

set_num_threads( 4 )
memory 2 gb

molecule MOL {
0 1

H	 2.652209	 0.763231	 0.000000
O	 2.263154	 -0.100023	 0.000000
C	 0.912879	 -0.015685	 0.000000
C	 0.236157	 -0.590971	 1.067555
C	 0.207533	 0.614039	 -1.012433
H	 0.802029	 -1.074371	 1.842102
C	 -1.143110	 -0.530615	 1.112142
H	 0.733197	 1.060069	 -1.840235
C	 -1.177520	 0.667261	 -0.954888
H	 -1.662546	 -0.977653	 1.941014
C	 -1.861479	 0.097874	 0.103250
H	 -1.717557	 1.158024	 -1.744952
H	 -2.934415	 0.140851	 0.144805

	symmetry c1
}
set optking {
	frozen_dihedral = ("
		4 3 2 1
	")
}

ee = optimize('scf')
oeprop('DIPOLE', 'QUADRUPOLE', 'MULLIKEN_CHARGES')
f=open( 'psi4out.xyz', 'w' )
f.write( "13  " )
f.write( str(ee) + "\n" )
f.write( MOL.save_string_xyz() )
f.close()
--------------------------------------------------------------------------

    Molecular point group: c1
  Charge       = 0
  Multiplicity = 1
  Basis Set: 6-31G*
  Basis Set:
  @DF-RHF Final Energy:  -305.55391120344069
    Total Energy =                       -305.5539112034408618
    Molecular point group: c1
  Basis Set: 6-31G*
  Basis Set:
  Basis Set: 6-31G*
  Basis Set:
  @DF-RHF Final Energy:  -305.55426085825900
    Total Energy =                       -305.5542608582591697
  Basis Set: 6-31G*
  Basis Set:
  Basis Set: 6-31G*
  Basis Set:
  @DF-RHF Final Energy:  -305.55429978639233
    Total Energy =                       -305.5542997863926189
  Basis Set: 6-31G*
  Basis Set:
  Basis Set: 6-31G*
  Basis Set:
  @DF-RHF Final Energy:  -305.55430365500752
    Total Energy =                       -305.5543036550076295
  Basis Set: 6-31G*
  Basis Set:
  Charge       = 0
  Multiplicity = 1
  Basis Set: 6-31G*
  Basis Set:

    Orbital Energies (a.u.)
    -----------------------

    Doubly Occupied:

       1A    -20.579380     2A    -11.290746     3A    -11.235493
       4A    -11.234351     5A    -11.227787     6A    -11.226487
       7A    -11.224837     8A     -1.395069     9A     -1.147545
      10A     -1.018115    11A     -1.003639    12A     -0.837696
      13A     -0.822828    14A     -0.732918    15A     -0.680863
      16A     -0.646160    17A     -0.624372    18A     -0.592041
      19A     -0.588524    20A     -0.527617    21A     -0.513549
      22A     -0.491733    23A     -0.469729    24A     -0.336928
      25A     -0.320489

  @DF-RHF Final Energy:  -305.55430443107304

   => Energetics <=

    Nuclear Repulsion Energy =            272.7435353646500857
    One-Electron Energy =                -955.0578892976348016
    Two-Electron Energy =                 376.7600495019115101
    DFT Exchange-Correlation Energy =       0.0000000000000000
    Empirical Dispersion Energy =           0.0000000000000000
    PCM Polarization Energy =               0.0000000000000000
    EFP Energy =                            0.0000000000000000
    Total Energy =                       -305.5543044310731489
    Molecular point group: c1
  Basis Set: 6-31G*
  Basis Set:

  -Total Gradient:
     Atom            X                  Y                   Z
    ------   -----------------  -----------------  -----------------
       1        0.000060769935    -0.000002031536     0.001970877468
       2        0.000115742685     0.000598280988    -0.002058555235
       3       -0.000346016510    -0.001777797668    -0.000757605056
       4        0.000099531515     0.001201973719     0.000812321540
       5        0.000134306842    -0.000011888720     0.000035485921
       6       -0.000010545397     0.000000188558    -0.000018246041
       7        0.000058639738    -0.000001528133     0.000023158494
       8        0.000014411066    -0.000003433545    -0.000012766142
       9       -0.000105333078    -0.000015797843     0.000068400008
      10       -0.000023863862     0.000006626840    -0.000010887165
      11        0.000000338123     0.000027987097    -0.000085817840
      12        0.000008772814    -0.000012937086     0.000008214890
      13       -0.000006753870    -0.000009642670     0.000025419159

  **** Optimization is complete! (in 5 steps) ****
    Final optimized geometry and variables:
    Molecular point group: c1

    Geometry (in Angstrom), charge = 0, multiplicity = 1:

    H            2.654122372927     0.742123249932    -0.067505856009
    O            2.271228193707    -0.124481210454    -0.066489737399
    C            0.906990805304    -0.038958552123    -0.032346174562
    C            0.230626129911    -0.613408533016     1.030670060651
    C            0.206678552045     0.590654470195    -1.048791574445
    H            0.794752262080    -1.095678131680     1.807316245851
    C           -1.153106210487    -0.563589938132     1.069251626748
    H            0.744299329985     1.021037500697    -1.875202373443
    C           -1.176660078588     0.646726211126    -0.996116227990
    H           -1.676959509634    -1.014021717855     1.893451713246
    C           -1.862356970189     0.068950426370     0.060236334375
    H           -1.717680354477     1.136466804403    -1.786069113985
    H           -2.935976322777     0.109610697560     0.096125508946

  Mulliken Charges: (a.u.)
   Center  Symbol    Alpha    Beta     Spin     Total
       1     H     0.27183  0.27183  0.00000  0.45635
       2     O     4.38647  4.38647  0.00000 -0.77294
       3     C     2.81286  2.81286  0.00000  0.37429
       4     C     3.11803  3.11803  0.00000 -0.23606
       5     C     3.12663  3.12663  0.00000 -0.25326
       6     H     0.39242  0.39242  0.00000  0.21515
       7     C     3.09564  3.09564  0.00000 -0.19128
       8     H     0.39789  0.39789  0.00000  0.20423
       9     C     3.09526  3.09526  0.00000 -0.19052
      10     H     0.39798  0.39798  0.00000  0.20404
      11     C     3.10710  3.10710  0.00000 -0.21419
      12     H     0.39817  0.39817  0.00000  0.20366
      13     H     0.39973  0.39973  0.00000  0.20053

   Total alpha = 25.00000, Total beta = 25.00000, Total charge = -0.00000
