  ==> Input File <==

--------------------------------------------------------------------------
set {
	reference rhf
	basis 6-31G*
}

set_num_threads( 4 )
memory 2 gb

molecule MOL {
0 1

H	 2.591676	 2.013956	 0.335017
O	 3.341076	 1.666752	 -0.126416
C	 3.569581	 0.339145	 0.272707
C	 3.728397	 -0.622244	 -0.899997
H	 4.482049	 0.359685	 0.854647
H	 2.773113	 -0.002828	 0.932610
C	 2.472981	 -0.762251	 -1.764403
H	 4.558413	 -0.282823	 -1.514190
H	 4.005176	 -1.597756	 -0.503592
C	 2.646963	 -1.774398	 -2.900232
H	 2.215187	 0.208129	 -2.179459
H	 1.634673	 -1.068464	 -1.138453
C	 1.390852	 -2.016240	 -3.745239
H	 3.459291	 -1.449566	 -3.547885
H	 2.962115	 -2.723822	 -2.472478
C	 0.929735	 -0.813610	 -4.573207
H	 1.587672	 -2.846701	 -4.420081
H	 0.578396	 -2.340588	 -3.096739
C	 -0.261737	 -1.134492	 -5.478119
H	 1.758670	 -0.459500	 -5.184421
H	 0.660552	 0.011048	 -3.917630
C	 -0.728098	 0.065974	 -6.300951
H	 0.004301	 -1.949296	 -6.148049
H	 -1.087758	 -1.497695	 -4.870124
H	 0.066632	 0.432740	 -6.944465
H	 -1.571759	 -0.193694	 -6.932966
H	 -1.036584	 0.886084	 -5.658596

	symmetry c1
}
set optking {
	frozen_dihedral = ("
		4 3 2 1
	")
}

ee = optimize('scf')
oeprop('DIPOLE', 'QUADRUPOLE', 'MULLIKEN_CHARGES')
f=open( 'psi4out.xyz', 'w' )
f.write( "27  " )
f.write( str(ee) + "\n" )
f.write( MOL.save_string_xyz() )
f.close()
--------------------------------------------------------------------------

    Molecular point group: c1
  Charge       = 0
  Multiplicity = 1
  Basis Set: 6-31G*
  Basis Set:
  @DF-RHF Final Energy:  -388.27981509309740
    Total Energy =                       -388.2798150930964312
    Molecular point group: c1
  Basis Set: 6-31G*
  Basis Set:
  Basis Set: 6-31G*
  Basis Set:
  @DF-RHF Final Energy:  -388.28058520765484
    Total Energy =                       -388.2805852076544397
  Basis Set: 6-31G*
  Basis Set:
  Basis Set: 6-31G*
  Basis Set:
  @DF-RHF Final Energy:  -388.28075471240027
    Total Energy =                       -388.2807547124006078
  Basis Set: 6-31G*
  Basis Set:
  Basis Set: 6-31G*
  Basis Set:
  @DF-RHF Final Energy:  -388.28077148847717
    Total Energy =                       -388.2807714884773986
  Basis Set: 6-31G*
  Basis Set:
  Basis Set: 6-31G*
  Basis Set:
  @DF-RHF Final Energy:  -388.28077699737293
    Total Energy =                       -388.2807769973726408
  Basis Set: 6-31G*
  Basis Set:
  Charge       = 0
  Multiplicity = 1
  Basis Set: 6-31G*
  Basis Set:

    Orbital Energies (a.u.)
    -----------------------

    Doubly Occupied:

       1A    -20.551963     2A    -11.268171     3A    -11.212394
       4A    -11.211343     5A    -11.211024     6A    -11.210462
       7A    -11.209270     8A    -11.208877     9A    -11.206262
      10A     -1.358123    11A     -1.089581    12A     -1.057332
      13A     -1.008701    14A     -0.944392    15A     -0.881713
      16A     -0.813194    17A     -0.795713    18A     -0.772397
      19A     -0.705080    20A     -0.646027    21A     -0.626805
      22A     -0.624374    23A     -0.587544    24A     -0.579290
      25A     -0.577034    26A     -0.546193    27A     -0.538199
      28A     -0.521330    29A     -0.506418    30A     -0.481880
      31A     -0.479260    32A     -0.475055    33A     -0.462581
      34A     -0.455376    35A     -0.451725    36A     -0.439901
      37A     -0.418643

  @DF-RHF Final Energy:  -388.28077700233257

   => Energetics <=

    Nuclear Repulsion Energy =            459.9781838811761645
    One-Electron Energy =               -1438.2506674579635728
    Two-Electron Energy =                 589.9917065744552929
    DFT Exchange-Correlation Energy =       0.0000000000000000
    Empirical Dispersion Energy =           0.0000000000000000
    PCM Polarization Energy =               0.0000000000000000
    EFP Energy =                            0.0000000000000000
    Total Energy =                       -388.2807770023321154
    Molecular point group: c1
  Basis Set: 6-31G*
  Basis Set:

  -Total Gradient:
     Atom            X                  Y                   Z
    ------   -----------------  -----------------  -----------------
       1       -0.000486759900    -0.000311881343    -0.000601643233
       2        0.000414269732     0.000304317662     0.000768198416
       3        0.000613019055     0.000072226431    -0.000143441484
       4       -0.000556380820    -0.000101597455    -0.000008976960
       5        0.000002088821     0.000027190880     0.000015039769
       6       -0.000001366212     0.000013231228    -0.000014803864
       7        0.000009419408    -0.000009808597     0.000002635972
       8       -0.000014548798     0.000008463206     0.000005993480
       9        0.000019725814    -0.000017168515    -0.000002318282
      10       -0.000002519626     0.000026532658    -0.000027603854
      11        0.000003640789    -0.000015932077    -0.000007691684
      12        0.000011453619     0.000004492530     0.000026419593
      13       -0.000001116554     0.000013378748     0.000001589693
      14        0.000007442908     0.000010980341     0.000010618881
      15       -0.000012409071    -0.000007668853    -0.000016441659
      16       -0.000004473282    -0.000011315365    -0.000011501064
      17       -0.000004415078    -0.000013955873     0.000009546644
      18       -0.000002821939     0.000019165800     0.000009232490
      19        0.000007707650    -0.000003647870    -0.000006644464
      20        0.000008934379     0.000006813708     0.000002317040
      21       -0.000009864979    -0.000014445059    -0.000009504709
      22        0.000000084185    -0.000001241734    -0.000001263280
      23       -0.000001845289     0.000001140380    -0.000002237766
      24        0.000002254427    -0.000001148199     0.000001346186
      25       -0.000000363373     0.000000003337     0.000000081909
      26       -0.000000466859     0.000000756826     0.000000236751
      27       -0.000000689008     0.000001117199     0.000000815476

  **** Optimization is complete! (in 6 steps) ****
    Final optimized geometry and variables:
    Molecular point group: c1

    Geometry (in Angstrom), charge = 0, multiplicity = 1:

    H            0.702496542169     2.568151316409     2.956871311564
    O            1.454641436155     2.162539526679     2.554693440141
    C            1.641341286923     0.862117982787     3.064659378334
    C            1.805714857234    -0.131077152580     1.924485119104
    H            2.526539759337     0.854643768866     3.694173246459
    H            0.798809703556     0.571174676296     3.688378830669
    C            0.556709945876    -0.272887911101     1.053983748490
    H            2.645041498595     0.189132546778     1.312251144836
    H            2.075888445485    -1.097269028409     2.347770997933
    C            0.750693688139    -1.258915428738    -0.101073828251
    H            0.288604460746     0.705737489417     0.672328933029
    H           -0.276153337012    -0.607844491048     1.672718214105
    C           -0.500440228584    -1.504497352096    -0.952477974512
    H            1.557170435359    -0.906536098116    -0.741949396462
    H            1.082319347589    -2.212647318503     0.305125774752
    C           -0.977469055282    -0.293175650710    -1.758277316302
    H           -0.291795493941    -2.319852410168    -1.642304479164
    H           -1.309075737912    -1.851627385542    -0.310868219738
    C           -2.165772111093    -0.612384537907    -2.667920637349
    H           -0.153488203024     0.081900560950    -2.363664538596
    H           -1.255050673132     0.515905564067    -1.087396172753
    C           -2.646889225633     0.596552013195    -3.469657689918
    H           -1.891115980929    -1.412421206766    -3.352162944840
    H           -2.987213576209    -0.995575083223    -2.065878303554
    H           -1.857008020426     0.983423394057    -4.107355000877
    H           -3.488301635138     0.338345883102    -4.105432732757
    H           -2.963674094320     1.401927868760    -2.812876908793

  Mulliken Charges: (a.u.)
   Center  Symbol    Alpha    Beta     Spin     Total
       1     H     0.27922  0.27922  0.00000  0.44156
       2     O     4.37196  4.37196  0.00000 -0.74392
       3     C     2.99907  2.99907  0.00000  0.00186
       4     C     3.15715  3.15715  0.00000 -0.31430
       5     H     0.42231  0.42231  0.00000  0.15538
       6     H     0.43268  0.43268  0.00000  0.13465
       7     C     3.15844  3.15844  0.00000 -0.31688
       8     H     0.41488  0.41488  0.00000  0.17024
       9     H     0.42551  0.42551  0.00000  0.14898
      10     C     3.15292  3.15292  0.00000 -0.30583
      11     H     0.40970  0.40970  0.00000  0.18060
      12     H     0.42953  0.42953  0.00000  0.14093
      13     C     3.15296  3.15296  0.00000 -0.30593
      14     H     0.42265  0.42265  0.00000  0.15471
      15     H     0.42368  0.42368  0.00000  0.15264
      16     C     3.15231  3.15231  0.00000 -0.30461
      17     H     0.42255  0.42255  0.00000  0.15490
      18     H     0.42517  0.42517  0.00000  0.14967
      19     C     3.15108  3.15108  0.00000 -0.30215
      20     H     0.42391  0.42391  0.00000  0.15218
      21     H     0.42208  0.42208  0.00000  0.15584
      22     C     3.23896  3.23896  0.00000 -0.47793
      23     H     0.42350  0.42350  0.00000  0.15300
      24     H     0.42389  0.42389  0.00000  0.15223
      25     H     0.42164  0.42164  0.00000  0.15673
      26     H     0.42002  0.42002  0.00000  0.15996
      27     H     0.42225  0.42225  0.00000  0.15551

   Total alpha = 37.00000, Total beta = 37.00000, Total charge =  0.00000
