  ==> Input File <==

--------------------------------------------------------------------------
set {
	reference rhf
	basis 6-31G*
}

set_num_threads( 4 )
memory 2 gb

molecule MOL {
0 1

H	 -2.877858	 1.884727	 -0.643378
C	 -2.138911	 1.280077	 -0.154486
C	 -2.076860	 -0.007332	 -0.404944
H	 -1.463233	 1.751696	 0.533952
O	 -1.180634	 -0.819263	 0.215062
H	 -2.739466	 -0.497483	 -1.096248
C	 0.051604	 -1.018856	 -0.387932
C	 1.043764	 0.054862	 -0.001873
H	 -0.017620	 -1.041351	 -1.469781
H	 0.437898	 -1.966374	 -0.042284
F	 2.212596	 -0.199467	 -0.571921
F	 0.652529	 1.252447	 -0.405055
F	 1.230877	 0.110694	 1.300533

	symmetry c1
}
set optking {
	frozen_dihedral = ("
		6 3 5 7
	")
}

ee = optimize('scf')
oeprop('DIPOLE', 'QUADRUPOLE', 'MULLIKEN_CHARGES')
f=open( 'psi4out.xyz', 'w' )
f.write( "13  " )
f.write( str(ee) + "\n" )
f.write( MOL.save_string_xyz() )
f.close()
--------------------------------------------------------------------------

    Molecular point group: c1
  Charge       = 0
  Multiplicity = 1
  Basis Set: 6-31G*
  Basis Set:
  @DF-RHF Final Energy:  -527.52846633783179
    Total Energy =                       -527.5284663378313326
    Molecular point group: c1
  Basis Set: 6-31G*
  Basis Set:
  Basis Set: 6-31G*
  Basis Set:
  @DF-RHF Final Energy:  -527.53010049298211
    Total Energy =                       -527.5301004929818873
  Basis Set: 6-31G*
  Basis Set:
  Basis Set: 6-31G*
  Basis Set:
  @DF-RHF Final Energy:  -527.53072626734524
    Total Energy =                       -527.5307262673452442
  Basis Set: 6-31G*
  Basis Set:
  Basis Set: 6-31G*
  Basis Set:
  @DF-RHF Final Energy:  -527.53114478319515
    Total Energy =                       -527.5311447831944633
  Basis Set: 6-31G*
  Basis Set:
  @DF-RHF Final Energy:  -527.53141884876698
    Total Energy =                       -527.5314188487668616
  @DF-RHF Final Energy:  -527.53153392661511
    Total Energy =                       -527.5315339266157935
  Basis Set: 6-31G*
  Basis Set:
  @DF-RHF Final Energy:  -527.53157336277127
    Total Energy =                       -527.5315733627713826
  Basis Set: 6-31G*
  Basis Set:
  Basis Set: 6-31G*
  Basis Set:
  @DF-RHF Final Energy:  -527.53158173630538
    Total Energy =                       -527.5315817363057249
  Basis Set: 6-31G*
  Basis Set:
  Basis Set: 6-31G*
  Basis Set:
  @DF-RHF Final Energy:  -527.53158351548313
    Total Energy =                       -527.5315835154831348
  Basis Set: 6-31G*
  Basis Set:
  Charge       = 0
  Multiplicity = 1
  Basis Set: 6-31G*
  Basis Set:

    Orbital Energies (a.u.)
    -----------------------

    Doubly Occupied:

       1A    -26.340046     2A    -26.338925     3A    -26.336021
       4A    -20.596182     5A    -11.498794     6A    -11.313323
       7A    -11.295924     8A    -11.228876     9A     -1.737102
      10A     -1.635095    11A     -1.633509    12A     -1.424593
      13A     -1.078796    14A     -1.018917    15A     -0.922790
      16A     -0.832903    17A     -0.826967    18A     -0.807085
      19A     -0.787554    20A     -0.717932    21A     -0.708258
      22A     -0.692237    23A     -0.668669    24A     -0.659922
      25A     -0.651371    26A     -0.640566    27A     -0.638550
      28A     -0.592687    29A     -0.562292    30A     -0.527156
      31A     -0.461766    32A     -0.377785

  @DF-RHF Final Energy:  -527.53158379064553

   => Energetics <=

    Nuclear Repulsion Energy =            415.4948648764934660
    One-Electron Energy =               -1554.9477068280707499
    Two-Electron Energy =                 611.9212581609316430
    DFT Exchange-Correlation Energy =       0.0000000000000000
    Empirical Dispersion Energy =           0.0000000000000000
    PCM Polarization Energy =               0.0000000000000000
    EFP Energy =                            0.0000000000000000
    Total Energy =                       -527.5315837906456409
    Molecular point group: c1
  Basis Set: 6-31G*
  Basis Set:

  -Total Gradient:
     Atom            X                  Y                   Z
    ------   -----------------  -----------------  -----------------
       1       -0.000001853988    -0.000002720735     0.000000862604
       2        0.000009399596    -0.000006428544    -0.000000509711
       3        0.000831459370     0.000343938371    -0.000952710583
       4       -0.000002073681     0.000004532819    -0.000004329190
       5       -0.000601897912    -0.000997017706    -0.000019501491
       6       -0.000514400241    -0.000014077858     0.000801981569
       7        0.000302409640     0.000667483339     0.000172159203
       8        0.000017315461     0.000044582035     0.000002043803
       9        0.000009132264     0.000003849457     0.000003763882
      10       -0.000004668769    -0.000001136750     0.000000957173
      11       -0.000006935352    -0.000020739168     0.000002891383
      12       -0.000036954884     0.000006224192    -0.000014910122
      13       -0.000000931502    -0.000028489454     0.000007301476

  **** Optimization is complete! (in 10 steps) ****
    Final optimized geometry and variables:
    Molecular point group: c1

    Geometry (in Angstrom), charge = 0, multiplicity = 1:

    H           -3.384187773453     1.658093453726    -0.830441931793
    C           -2.523300983411     1.236504176844    -0.346664069408
    C           -2.345747335071    -0.064130436472    -0.340154154321
    H           -1.829922240072     1.903330630750     0.129435615796
    O           -1.304282121811    -0.680736540434     0.299118014619
    H           -3.041766573114    -0.748439742002    -0.794326601510
    C           -0.154660495118    -0.947229730604    -0.442228039654
    C            0.991585013649    -0.098801584183     0.055250286324
    H           -0.288875420262    -0.745104779640    -1.496763213702
    H            0.123886928278    -1.984306328184    -0.310237028599
    F            2.085781772163    -0.388487334885    -0.635371542150
    F            0.756293286411     1.193524166713    -0.092327432190
    F            1.249538561739    -0.316154349008     1.329294724658

  Mulliken Charges: (a.u.)
   Center  Symbol    Alpha    Beta     Spin     Total
       1     H     0.40585  0.40585  0.00000  0.18829
       2     C     3.21184  3.21184  0.00000 -0.42368
       3     C     2.91907  2.91907  0.00000  0.16186
       4     H     0.39596  0.39596  0.00000  0.20808
       5     O     4.31093  4.31093  0.00000 -0.62186
       6     H     0.40766  0.40766  0.00000  0.18469
       7     C     3.05111  3.05111  0.00000 -0.10222
       8     C     2.45437  2.45437  0.00000  1.09127
       9     H     0.40439  0.40439  0.00000  0.19122
      10     H     0.39887  0.39887  0.00000  0.20227
      11     F     4.68393  4.68393  0.00000 -0.36786
      12     F     4.67963  4.67963  0.00000 -0.35925
      13     F     4.67641  4.67641  0.00000 -0.35282

   Total alpha = 32.00000, Total beta = 32.00000, Total charge =  0.00000
