  ==> Input File <==

--------------------------------------------------------------------------
set {
	reference rhf
	basis 6-31G*
}

set_num_threads( 4 )
memory 2 gb

molecule MOL {
0 1

H	 -1.276382	 2.828137	 -2.023254
C	 -0.408372	 2.952225	 -1.363873
C	 -0.638152	 2.558383	 0.073034
O	 0.615749	 3.370813	 -1.797128
C	 -1.220012	 1.144545	 0.209990
H	 0.298716	 2.657471	 0.608916
H	 -1.340764	 3.277027	 0.493204
C	 -0.252658	 0.041456	 -0.226725
H	 -1.501725	 0.987572	 1.246948
H	 -2.140643	 1.075275	 -0.367416
C	 1.180775	 0.282413	 0.250794
H	 -0.266029	 -0.034465	 -1.312038
H	 -0.597733	 -0.921000	 0.146291
C	 2.148627	 -0.814315	 -0.201312
H	 1.516199	 1.249228	 -0.115937
H	 1.192670	 0.346017	 1.338083
C	 3.580890	 -0.659131	 0.322722
H	 2.166869	 -0.852443	 -1.289387
H	 1.762857	 -1.776509	 0.128956
C	 4.324889	 0.564933	 -0.213704
H	 4.142010	 -1.551473	 0.056605
H	 3.564836	 -0.624694	 1.410140
H	 4.342616	 0.565491	 -1.300421
H	 3.866655	 1.493402	 0.110242
H	 5.353900	 0.572371	 0.132816

	symmetry c1
}
set optking {
	frozen_dihedral = ("
		3 5 8 12
	")
}

ee = optimize('scf')
oeprop('DIPOLE', 'QUADRUPOLE', 'MULLIKEN_CHARGES')
f=open( 'psi4out.xyz', 'w' )
f.write( "25  " )
f.write( str(ee) + "\n" )
f.write( MOL.save_string_xyz() )
f.close()
--------------------------------------------------------------------------

    Molecular point group: c1
  Charge       = 0
  Multiplicity = 1
  Basis Set: 6-31G*
  Basis Set:
  @DF-RHF Final Energy:  -387.11691928200503
    Total Energy =                       -387.1169192820052558
    Molecular point group: c1
  Basis Set: 6-31G*
  Basis Set:
  Basis Set: 6-31G*
  Basis Set:
  @DF-RHF Final Energy:  -387.11850906897240
    Total Energy =                       -387.1185090689723438
  Basis Set: 6-31G*
  Basis Set:
  Basis Set: 6-31G*
  Basis Set:
  @DF-RHF Final Energy:  -387.11924119995547
    Total Energy =                       -387.1192411999554679
  Basis Set: 6-31G*
  Basis Set:
  Basis Set: 6-31G*
  Basis Set:
  @DF-RHF Final Energy:  -387.11921558663357
    Total Energy =                       -387.1192155866327766
  Basis Set: 6-31G*
  Basis Set:
  @DF-RHF Final Energy:  -387.11937842740076
    Total Energy =                       -387.1193784274009886
  @DF-RHF Final Energy:  -387.11942123796319
    Total Energy =                       -387.1194212379639339
  @DF-RHF Final Energy:  -387.11943079804018
    Total Energy =                       -387.1194307980402982
  Basis Set: 6-31G*
  Basis Set:
  @DF-RHF Final Energy:  -387.11942777607572
    Total Energy =                       -387.1194277760750992
  Basis Set: 6-31G*
  Basis Set:
  Basis Set: 6-31G*
  Basis Set:
  @DF-RHF Final Energy:  -387.11943465843132
    Total Energy =                       -387.1194346584311461
  Basis Set: 6-31G*
  Basis Set:
  Basis Set: 6-31G*
  Basis Set:
  @DF-RHF Final Energy:  -387.11943723517516
    Total Energy =                       -387.1194372351754964
  Basis Set: 6-31G*
  Basis Set:
  Charge       = 0
  Multiplicity = 1
  Basis Set: 6-31G*
  Basis Set:

    Orbital Energies (a.u.)
    -----------------------

    Doubly Occupied:

       1A    -20.563341     2A    -11.326851     3A    -11.235906
       4A    -11.234303     5A    -11.222909     6A    -11.214574
       7A    -11.213713     8A    -11.213126     9A    -11.203934
      10A     -1.402666    11A     -1.101540    12A     -1.065153
      13A     -1.007631    14A     -0.942275    15A     -0.877647
      16A     -0.819753    17A     -0.785524    18A     -0.770023
      19A     -0.667591    20A     -0.657193    21A     -0.635202
      22A     -0.617095    23A     -0.603949    24A     -0.595894
      25A     -0.566048    26A     -0.546450    27A     -0.536965
      28A     -0.520269    29A     -0.513571    30A     -0.497943
      31A     -0.477797    32A     -0.474213    33A     -0.460146
      34A     -0.451338    35A     -0.441575    36A     -0.409278

  @DF-RHF Final Energy:  -387.11943787699056

   => Energetics <=

    Nuclear Repulsion Energy =            455.6908439367043684
    One-Electron Energy =               -1427.8737929516751137
    Two-Electron Energy =                 585.0635111379804130
    DFT Exchange-Correlation Energy =       0.0000000000000000
    Empirical Dispersion Energy =           0.0000000000000000
    PCM Polarization Energy =               0.0000000000000000
    EFP Energy =                            0.0000000000000000
    Total Energy =                       -387.1194378769903324
    Molecular point group: c1
  Basis Set: 6-31G*
  Basis Set:

  -Total Gradient:
     Atom            X                  Y                   Z
    ------   -----------------  -----------------  -----------------
       1        0.000006843838    -0.000007830933    -0.000007006845
       2        0.000009595158     0.000025063240     0.000041005976
       3        0.001151463811    -0.000167303540     0.002823271161
       4        0.000002812715     0.000004835274    -0.000023937334
       5       -0.002354802431    -0.000509494454    -0.004035208993
       6       -0.000012725038     0.000006780019    -0.000026809190
       7        0.000008572834     0.000007424977     0.000014635725
       8        0.004051888034     0.003613537986     0.000972109029
       9       -0.000001950467    -0.000015021099     0.000014695499
      10        0.000024084049    -0.000017009863     0.000003249168
      11        0.000028557187     0.000045804341    -0.000011771195
      12       -0.002882364590    -0.003014970140     0.000209503382
      13       -0.000043483529     0.000027592148    -0.000008873464
      14       -0.000011667327     0.000011481487     0.000012409262
      15        0.000001304750    -0.000014557240     0.000026865909
      16        0.000028281374    -0.000014435094     0.000007506655
      17       -0.000003831509     0.000003075819     0.000006148148
      18        0.000001703276     0.000011964455    -0.000004197746
      19       -0.000007078741    -0.000004409841    -0.000007070066
      20        0.000007957641     0.000014705901    -0.000002330215
      21       -0.000021536101    -0.000008037166    -0.000000985323
      22        0.000007423015    -0.000000233475     0.000004358326
      23        0.000011511735     0.000000869672    -0.000000164115
      24        0.000001492127    -0.000005091282    -0.000010048684
      25       -0.000004051807     0.000005258802     0.000002644931

  **** Optimization is complete! (in 11 steps) ****
    Final optimized geometry and variables:
    Molecular point group: c1

    Geometry (in Angstrom), charge = 0, multiplicity = 1:

    H           -2.413726899549     1.852181096928    -1.679510366967
    C           -1.567450743455     1.959916277617    -0.989968934882
    C           -1.839058664653     1.530076622431     0.428246595376
    O           -0.529017819370     2.385289645288    -1.383095004487
    C           -2.269674215556     0.056045265646     0.518759941743
    H           -0.959245249606     1.730723882200     1.024913091483
    H           -2.648766813287     2.150821317311     0.808584958848
    C           -1.231355099997    -0.973550015453     0.042537175943
    H           -2.512818257672    -0.143662428807     1.558628035079
    H           -3.192550070099    -0.086517238582    -0.038338373080
    C            0.198596755242    -0.753968206145     0.541221117144
    H           -1.245137056909    -1.036510286352    -1.044235746785
    H           -1.573479413577    -1.950051930564     0.379408455037
    C            1.126876691683    -1.912192864856     0.164752407141
    H            0.587625356185     0.173564868685     0.136812075705
    H            0.188836145881    -0.642917515299     1.625303885876
    C            2.560454335139    -1.776292972787     0.690749146257
    H            1.151969365764    -2.014510529390    -0.918994104947
    H            0.704157168094    -2.838801609532     0.547941216197
    C            3.356445955386    -0.623475152909     0.076085107890
    H            3.087283074446    -2.707097791688     0.495042793755
    H            2.536863537526    -1.664070486092     1.773009733065
    H            3.392418385662    -0.708353241054    -1.006518081980
    H            2.926639891705     0.342965797541     0.316135229673
    H            4.379004381103    -0.625066165026     0.441131749129

  Mulliken Charges: (a.u.)
   Center  Symbol    Alpha    Beta     Spin     Total
       1     H     0.43122  0.43122  0.00000  0.13756
       2     C     2.83028  2.83028  0.00000  0.33944
       3     C     3.21199  3.21199  0.00000 -0.42397
       4     O     4.23915  4.23915  0.00000 -0.47830
       5     C     3.16476  3.16476  0.00000 -0.32951
       6     H     0.39759  0.39759  0.00000  0.20482
       7     H     0.40774  0.40774  0.00000  0.18452
       8     C     3.15777  3.15777  0.00000 -0.31555
       9     H     0.41295  0.41295  0.00000  0.17410
      10     H     0.41724  0.41724  0.00000  0.16552
      11     C     3.16206  3.16206  0.00000 -0.32413
      12     H     0.41997  0.41997  0.00000  0.16007
      13     H     0.41887  0.41887  0.00000  0.16226
      14     C     3.15245  3.15245  0.00000 -0.30490
      15     H     0.40681  0.40681  0.00000  0.18639
      16     H     0.42542  0.42542  0.00000  0.14916
      17     C     3.15259  3.15259  0.00000 -0.30518
      18     H     0.42257  0.42257  0.00000  0.15486
      19     H     0.42350  0.42350  0.00000  0.15300
      20     C     3.24169  3.24169  0.00000 -0.48338
      21     H     0.42130  0.42130  0.00000  0.15739
      22     H     0.42425  0.42425  0.00000  0.15150
      23     H     0.42081  0.42081  0.00000  0.15838
      24     H     0.41697  0.41697  0.00000  0.16607
      25     H     0.42005  0.42005  0.00000  0.15989

   Total alpha = 36.00000, Total beta = 36.00000, Total charge = -0.00000
