  ==> Input File <==

--------------------------------------------------------------------------
set {
	reference rhf
	basis 6-31G*
}

set_num_threads( 4 )
memory 2 gb

molecule MOL {
0 1

H	 3.729471	 -0.928294	 -0.070608
O	 2.826016	 -1.159218	 0.122261
C	 2.077727	 -0.067559	 -0.035091
C	 0.624473	 -0.343591	 0.253101
O	 2.542965	 0.974826	 -0.363729
C	 -0.265902	 0.883932	 0.072916
H	 0.324016	 -1.163849	 -0.390541
H	 0.565024	 -0.726111	 1.268924
C	 -1.728698	 0.646073	 0.462102
H	 -0.209144	 1.219470	 -0.958188
H	 0.135059	 1.692851	 0.673903
C	 -2.387013	 -0.563588	 -0.207449
H	 -2.295816	 1.536928	 0.202262
H	 -1.805191	 0.545163	 1.543824
C	 -3.870943	 -0.689794	 0.136789
H	 -2.272484	 -0.481944	 -1.286459
H	 -1.878481	 -1.478231	 0.086157
H	 -4.314690	 -1.554133	 -0.347278
H	 -4.423510	 0.188996	 -0.182939
H	 -4.016772	 -0.799408	 1.207750

	symmetry c1
}
set optking {
	frozen_dihedral = ("
		12 9 6 10
	")
}

ee = optimize('scf')
oeprop('DIPOLE', 'QUADRUPOLE', 'MULLIKEN_CHARGES')
f=open( 'psi4out.xyz', 'w' )
f.write( "20  " )
f.write( str(ee) + "\n" )
f.write( MOL.save_string_xyz() )
f.close()
--------------------------------------------------------------------------

    Molecular point group: c1
  Charge       = 0
  Multiplicity = 1
  Basis Set: 6-31G*
  Basis Set:
  @DF-RHF Final Energy:  -383.94796935097742
    Total Energy =                       -383.9479693509775871
    Molecular point group: c1
  Basis Set: 6-31G*
  Basis Set:
  Basis Set: 6-31G*
  Basis Set:
  @DF-RHF Final Energy:  -383.94790696819632
    Total Energy =                       -383.9479069681965484
  Basis Set: 6-31G*
  Basis Set:
  Basis Set: 6-31G*
  Basis Set:
  @DF-RHF Final Energy:  -383.94809641022943
    Total Energy =                       -383.9480964102291409
  Basis Set: 6-31G*
  Basis Set:
  Basis Set: 6-31G*
  Basis Set:
  @DF-RHF Final Energy:  -383.94791778895035
    Total Energy =                       -383.9479177889499510
  Basis Set: 6-31G*
  Basis Set:
  Basis Set: 6-31G*
  Basis Set:
  @DF-RHF Final Energy:  -383.94814949768585
    Total Energy =                       -383.9481494976854492
  Basis Set: 6-31G*
  Basis Set:
  Charge       = 0
  Multiplicity = 1
  Basis Set: 6-31G*
  Basis Set:

    Orbital Energies (a.u.)
    -----------------------

    Doubly Occupied:

       1A    -20.612563     2A    -20.551693     3A    -11.381270
       4A    -11.240450     5A    -11.222761     6A    -11.220800
       7A    -11.220177     8A    -11.212504     9A     -1.474660
      10A     -1.365713    11A     -1.096241    12A     -1.040690
      13A     -0.961562    14A     -0.869164    15A     -0.818506
      16A     -0.773700    17A     -0.699661    18A     -0.689952
      19A     -0.665075    20A     -0.636556    21A     -0.599887
      22A     -0.594482    23A     -0.577326    24A     -0.555407
      25A     -0.539294    26A     -0.515346    27A     -0.495890
      28A     -0.479224    29A     -0.470018    30A     -0.466184
      31A     -0.456895    32A     -0.443981

  @DF-RHF Final Energy:  -383.94815012592983

   => Energetics <=

    Nuclear Repulsion Energy =            376.4415439741768523
    One-Electron Energy =               -1268.8841238066570440
    Two-Electron Energy =                 508.4944297065504770
    DFT Exchange-Correlation Energy =       0.0000000000000000
    Empirical Dispersion Energy =           0.0000000000000000
    PCM Polarization Energy =               0.0000000000000000
    EFP Energy =                            0.0000000000000000
    Total Energy =                       -383.9481501259297147
    Molecular point group: c1
  Basis Set: 6-31G*
  Basis Set:

  -Total Gradient:
     Atom            X                  Y                   Z
    ------   -----------------  -----------------  -----------------
       1       -0.000003534299     0.000003545425    -0.000001164437
       2       -0.000009368959    -0.000002830895     0.000014988760
       3        0.000001646491     0.000000792251    -0.000053143518
       4       -0.000021580098    -0.000010064589     0.000025990917
       5        0.000007494528     0.000010927625     0.000012178944
       6        0.000460261630    -0.003757641313    -0.000359403240
       7       -0.000010430365    -0.000023363941    -0.000006954384
       8       -0.000003914490     0.000000968588    -0.000001986985
       9       -0.000924917011     0.002340075590    -0.002019703595
      10       -0.000192321858     0.002603854617     0.000866148696
      11       -0.000020751849     0.000018709814     0.000001304652
      12        0.000636715216    -0.001174681355     0.001497383867
      13        0.000002491718     0.000009244481     0.000004451825
      14        0.000052522142    -0.000011483581     0.000001324769
      15        0.000004461286     0.000010219730     0.000017503337
      16        0.000021822374    -0.000012490940    -0.000010493349
      17       -0.000001834570    -0.000003938715     0.000011188050
      18        0.000005051949    -0.000000713360    -0.000001667431
      19        0.000003416518    -0.000002899548    -0.000002489043
      20       -0.000007230362     0.000001770116     0.000004542166

  **** Optimization is complete! (in 6 steps) ****
    Final optimized geometry and variables:
    Molecular point group: c1

    Geometry (in Angstrom), charge = 0, multiplicity = 1:

    H            3.733427016526    -0.831232244337    -0.101715275293
    O            2.831403197151    -1.079143298309     0.076136668937
    C            2.067053051388     0.001300678523    -0.081427941457
    C            0.614795171524    -0.303163189133     0.183091446884
    O            2.519226289428     1.054459758002    -0.393418117108
    C           -0.292465489901     0.909922104466    -0.000646608662
    H            0.339010603506    -1.122815361853    -0.471994391789
    H            0.547424416878    -0.695642059044     1.194762682200
    C           -1.751649671639     0.674535123171     0.406508613522
    H           -0.245899712934     1.253987143122    -1.029560449010
    H            0.103253911844     1.728356936801     0.591624200256
    C           -2.434815034591    -0.524298027066    -0.257678196991
    H           -2.314465257988     1.576508351133     0.179109468302
    H           -1.804614006656     0.550560207087     1.487376708515
    C           -3.922372675946    -0.612220929130     0.082842077262
    H           -2.315725568242    -0.458567190317    -1.337820399423
    H           -1.948494966184    -1.446238149312     0.048984023809
    H           -4.382935978707    -1.475730141265    -0.386790455441
    H           -4.454858515982     0.272129413356    -0.254926120875
    H           -4.073928078453    -0.698870267352     1.155161258452

  Mulliken Charges: (a.u.)
   Center  Symbol    Alpha    Beta     Spin     Total
       1     H     0.26783  0.26783  0.00000  0.46434
       2     O     4.35162  4.35162  0.00000 -0.70323
       3     C     2.62201  2.62201  0.00000  0.75598
       4     C     3.21385  3.21385  0.00000 -0.42770
       5     O     4.27916  4.27916  0.00000 -0.55831
       6     C     3.15461  3.15461  0.00000 -0.30922
       7     H     0.39622  0.39622  0.00000  0.20756
       8     H     0.39902  0.39902  0.00000  0.20196
       9     C     3.15441  3.15441  0.00000 -0.30883
      10     H     0.41243  0.41243  0.00000  0.17513
      11     H     0.40788  0.40788  0.00000  0.18425
      12     C     3.15632  3.15632  0.00000 -0.31264
      13     H     0.41784  0.41784  0.00000  0.16432
      14     H     0.42340  0.42340  0.00000  0.15319
      15     C     3.23914  3.23914  0.00000 -0.47828
      16     H     0.42218  0.42218  0.00000  0.15565
      17     H     0.42189  0.42189  0.00000  0.15622
      18     H     0.41838  0.41838  0.00000  0.16323
      19     H     0.42058  0.42058  0.00000  0.15884
      20     H     0.42123  0.42123  0.00000  0.15754

   Total alpha = 32.00000, Total beta = 32.00000, Total charge =  0.00000
