  ==> Input File <==

--------------------------------------------------------------------------
set {
	reference rhf
	basis cc-pvtz
}

set_num_threads( 4 )
memory 2 gb

molecule MOL {
0 1

H	 2.003000	 0.495000	 -0.000000
C	 1.165000	 -0.189000	 0.000000
O	 0.000000	 0.571000	 0.000000
H	 1.229000	 -0.823000	 -0.883000
H	 1.229000	 -0.823000	 0.883000
C	 -1.165000	 -0.189000	 0.000000
H	 -1.229000	 -0.823000	 -0.883000
H	 -2.003000	 0.495000	 -0.000000
H	 -1.229000	 -0.823000	 0.883000

	symmetry c1
}
ee = optimize('scf')
oeprop('DIPOLE', 'QUADRUPOLE', 'MULLIKEN_CHARGES')
f=open( 'psi4out.xyz', 'w' )
f.write( "9  " )
f.write( str(ee) + "\n" )
f.write( MOL.save_string_xyz() )
f.close()
--------------------------------------------------------------------------

    Molecular point group: c1
  Charge       = 0
  Multiplicity = 1
  Basis Set: CC-PVTZ
  Basis Set:
  @DF-RHF Final Energy:  -154.12717733110389
    Total Energy =                       -154.1271773311038658
    Molecular point group: c1
  Basis Set: CC-PVTZ
  Basis Set:
  Basis Set: CC-PVTZ
  Basis Set:
  @DF-RHF Final Energy:  -154.12719402862211
    Total Energy =                       -154.1271940286221422
  Basis Set: CC-PVTZ
  Basis Set:
  Charge       = 0
  Multiplicity = 1
  Basis Set: CC-PVTZ
  Basis Set:

    Orbital Energies (a.u.)
    -----------------------

    Doubly Occupied:

       1A    -20.550421     2A    -11.263204     3A    -11.263181
       4A     -1.382876     5A     -0.975909     6A     -0.872786
       7A     -0.664252     8A     -0.655894     9A     -0.647084
      10A     -0.551618    11A     -0.529875    12A     -0.477045
      13A     -0.420498

  @DF-RHF Final Energy:  -154.12719598201718

   => Energetics <=

    Nuclear Repulsion Energy =             84.8655156097328245
    One-Electron Energy =                -377.4761343644402700
    Two-Electron Energy =                 138.4834227726903464
    DFT Exchange-Correlation Energy =       0.0000000000000000
    Empirical Dispersion Energy =           0.0000000000000000
    PCM Polarization Energy =               0.0000000000000000
    EFP Energy =                            0.0000000000000000
    Total Energy =                       -154.1271959820170991
    Molecular point group: c1
  Basis Set: CC-PVTZ
  Basis Set:

  -Total Gradient:
     Atom            X                  Y                   Z
    ------   -----------------  -----------------  -----------------
       1       -0.000134506311    -0.000000000020    -0.000049585194
       2        0.000102675542    -0.000000000045    -0.000133382192
       3        0.000000000031    -0.000000000014     0.000091693849
       4       -0.000009190436    -0.000043184990     0.000068560194
       5       -0.000009190440     0.000043185073     0.000068560265
       6       -0.000102675594    -0.000000000058    -0.000133382184
       7        0.000009190439    -0.000043184999     0.000068560221
       8        0.000134506327     0.000000000007    -0.000049585195
       9        0.000009190442     0.000043185048     0.000068560237

  **** Optimization is complete! (in 3 steps) ****
    Final optimized geometry and variables:
    Molecular point group: c1

    Geometry (in Angstrom), charge = 0, multiplicity = 1:

    H            2.002556689486    -0.000000000339     0.445288552474
    C            1.165152501746     0.000000000086    -0.236961307157
    O           -0.000000000020     0.000000000025     0.518768372990
    H            1.229451429836     0.882439623102    -0.870223066652
    H            1.229451429555    -0.882439622768    -0.870223066886
    C           -1.165152501741    -0.000000000089    -0.236961307179
    H           -1.229451429593     0.882439622681    -0.870223066881
    H           -2.002556689388     0.000000000106     0.445288552446
    H           -1.229451429646    -0.882439623147    -0.870223066563

  Mulliken Charges: (a.u.)
   Center  Symbol    Alpha    Beta     Spin     Total
       1     H     0.44825  0.44825  0.00000  0.10350
       2     C     3.02201  3.02201  0.00000 -0.04403
       3     O     4.16719  4.16719  0.00000 -0.33437
       4     H     0.47307  0.47307  0.00000  0.05385
       5     H     0.47307  0.47307  0.00000  0.05385
       6     C     3.02201  3.02201  0.00000 -0.04403
       7     H     0.47307  0.47307  0.00000  0.05385
       8     H     0.44825  0.44825  0.00000  0.10350
       9     H     0.47307  0.47307  0.00000  0.05385

   Total alpha = 13.00000, Total beta = 13.00000, Total charge =  0.00000
