                              Psi4 1.0.54 Driver

  ==> Input File <==

--------------------------------------------------------------------------
set {
	reference rhf
	basis cc-pvtz
}

set_num_threads( 4 )
memory 2 gb

molecule MOL {
0 1

O	 -2.611795	 -1.596737	 0.857245
C	 -1.873600	 -2.276230	 0.221014
C	 -0.749512	 -1.662594	 -0.590113
C	 -2.001742	 -3.780867	 0.200647
C	 0.483677	 -1.404858	 0.284906
H	 -1.110695	 -0.725265	 -0.993935
H	 -0.485142	 -2.311749	 -1.418105
C	 1.630207	 -0.772146	 -0.501001
H	 0.188910	 -0.765135	 1.107157
H	 0.824678	 -2.340107	 0.722315
C	 2.907848	 -0.545876	 0.309149
H	 1.296978	 0.175263	 -0.917357
H	 1.866584	 -1.410232	 -1.348100
C	 3.373802	 0.906639	 0.372125
H	 3.699140	 -1.146831	 -0.127906
H	 2.764321	 -0.923458	 1.318191
H	 3.519798	 1.311927	 -0.623875
H	 4.316899	 0.983758	 0.900700
H	 2.661122	 1.540651	 0.885346
H	 -2.310203	 -4.099246	 -0.790052
H	 -2.733342	 -4.101790	 0.926139
H	 -1.045381	 -4.249420	 0.404169

	symmetry c1
}
set optking {
	frozen_dihedral = ("
		12 8 11 15
	")
}

ee,wfn = optimize('scf', return_wfn=True)
oeprop( wfn, 'DIPOLE', 'QUADRUPOLE', 'MULLIKEN_CHARGES')
f=open( 'psi4out.xyz', 'w' )
f.write( "22  " )
f.write( str(ee) + "\n" )
f.write( MOL.save_string_xyz() )
f.close()
--------------------------------------------------------------------------

    Molecular point group: c1
  Charge       = 0
  Multiplicity = 1
  Basis Set: CC-PVTZ
  Basis Set:
  @DF-RHF Final Energy:  -348.21908770253924
    Total Energy =                       -348.2190877025390137
    Molecular point group: c1
  Basis Set: CC-PVTZ
  Basis Set:
  Basis Set: CC-PVTZ
  Basis Set:
  @DF-RHF Final Energy:  -348.21945183130867
    Total Energy =                       -348.2194518313079925
  Basis Set: CC-PVTZ
  Basis Set:
  Basis Set: CC-PVTZ
  Basis Set:
  @DF-RHF Final Energy:  -348.21958747078008
    Total Energy =                       -348.2195874707801977
  Basis Set: CC-PVTZ
  Basis Set:
  Basis Set: CC-PVTZ
  Basis Set:
  @DF-RHF Final Energy:  -348.21943988135888
    Total Energy =                       -348.2194398813588805
  Basis Set: CC-PVTZ
  Basis Set:
  Basis Set: CC-PVTZ
  Basis Set:
  @DF-RHF Final Energy:  -348.21961660771677
    Total Energy =                       -348.2196166077172848
  Basis Set: CC-PVTZ
  Basis Set:
  Basis Set: CC-PVTZ
  Basis Set:
  @DF-RHF Final Energy:  -348.21961979257026
    Total Energy =                       -348.2196197925701426
  Basis Set: CC-PVTZ
  Basis Set:
  Basis Set: CC-PVTZ
  Basis Set:
  @DF-RHF Final Energy:  -348.21962084230836
    Total Energy =                       -348.2196208423085864
  Basis Set: CC-PVTZ
  Basis Set:
  Charge       = 0
  Multiplicity = 1
  Basis Set: CC-PVTZ
  Basis Set:

    Orbital Energies (a.u.)
    -----------------------

    Doubly Occupied:

       1A    -20.536758     2A    -11.319323     3A    -11.228912
       4A    -11.227466     5A    -11.226888     6A    -11.220164
       7A    -11.218506     8A    -11.210561     9A     -1.396889
      10A     -1.096232    11A     -1.045618    12A     -1.001292
      13A     -0.939402    14A     -0.848583    15A     -0.798324
      16A     -0.733990    17A     -0.664084    18A     -0.647711
      19A     -0.630051    20A     -0.614762    21A     -0.599743
      22A     -0.582734    23A     -0.562198    24A     -0.552456
      25A     -0.530838    26A     -0.512214    27A     -0.504451
      28A     -0.490299    29A     -0.474009    30A     -0.463462
      31A     -0.460545    32A     -0.398364

  @DF-RHF Final Energy:  -348.21962090973818

   => Energetics <=

    Nuclear Repulsion Energy =            370.3352457494207783
    One-Electron Energy =               -1205.6360809536645320
    Two-Electron Energy =                 487.0812142945058554
    DFT Exchange-Correlation Energy =       0.0000000000000000
    Empirical Dispersion Energy =           0.0000000000000000
    PCM Polarization Energy =               0.0000000000000000
    EFP Energy =                            0.0000000000000000
    Total Energy =                       -348.2196209097378983
    Molecular point group: c1
  Basis Set: CC-PVTZ
  Basis Set:

  -Total Gradient:
     Atom            X                  Y                   Z
    ------   -----------------  -----------------  -----------------
       1        0.000029116988    -0.000002185686     0.000021291501
       2       -0.000043480972    -0.000015129413    -0.000045279467
       3        0.000038953263    -0.000015622069     0.000015563793
       4       -0.000016026967     0.000007537267     0.000004278559
       5       -0.000012860772     0.000023776834     0.000012905061
       6       -0.000001051691     0.000001318605     0.000000574328
       7        0.000000267295     0.000006049646    -0.000000131035
       8       -0.000049256023     0.000032928054     0.000080532993
       9       -0.000010340737    -0.000008223599    -0.000011187542
      10       -0.000007584188    -0.000001800266     0.000006184020
      11       -0.000003327549    -0.000082263245     0.000020290849
      12        0.000041272494     0.000000662527    -0.000051039715
      13        0.000012742832     0.000004720080    -0.000000814101
      14       -0.000013894687     0.000007375832    -0.000006676255
      15        0.000012679351     0.000058995146    -0.000049333027
      16       -0.000000170417    -0.000013683536     0.000002791209
      17        0.000018569788     0.000003069431     0.000006217733
      18       -0.000024933557    -0.000004736901     0.000001658999
      19        0.000009870236    -0.000008380326    -0.000019123788
      20        0.000008979815     0.000003779073     0.000003025901
      21        0.000001562147    -0.000002522159     0.000002782259
      22        0.000008913342     0.000004334702     0.000005487726

  **** Optimization is complete! (in 8 steps) ****
    Final optimized geometry and variables:
    Molecular point group: c1

    Geometry (in Angstrom), charge = 0, multiplicity = 1:

    O           -2.737110311373    -0.189614411861     0.744237547411
    C           -2.022106720613    -0.865907284612     0.078917904148
    C           -0.906444885208    -0.251596033842    -0.742957881636
    C           -2.173278016496    -2.367708170888     0.029650408612
    C            0.355801709976    -0.050250034539     0.103666699450
    H           -1.256625793190     0.705722933775    -1.107373614190
    H           -0.679429149720    -0.880162169638    -1.597692043293
    C            1.500348239950     0.582022632617    -0.684758245617
    H            0.107971196884     0.576530554435     0.953633985149
    H            0.684528685851    -1.004524291850     0.507005388185
    C            2.770431505784     0.814610043640     0.159566213085
    H            1.158598207381     1.526341695593    -1.097263506425
    H            1.732113932420    -0.048959258009    -1.536975717734
    C            3.183405009056     2.281169631286     0.245273118402
    H            3.594063629397     0.239712456499    -0.249257937098
    H            2.612852848382     0.435493147835     1.164205969602
    H            3.399576644995     2.684046349310    -0.738521985745
    H            4.070298268827     2.404527152140     0.856265098611
    H            2.393453652349     2.883668495476     0.681403098938
    H           -2.512248217824    -2.659124764771    -0.959363148244
    H           -2.891134119378    -2.693480853992     0.766601688019
    H           -1.219652444491    -2.855300456546     0.197915607586

  Mulliken Charges: (a.u.)
   Center  Symbol    Alpha    Beta     Spin     Total
       1     O     4.17777  4.17777  0.00000 -0.35554
       2     C     2.85802  2.85802  0.00000  0.28396
       3     C     3.09974  3.09974  0.00000 -0.19947
       4     C     3.15522  3.15522  0.00000 -0.31044
       5     C     3.10167  3.10167  0.00000 -0.20334
       6     H     0.43849  0.43849  0.00000  0.12302
       7     H     0.44937  0.44937  0.00000  0.10127
       8     C     3.09610  3.09610  0.00000 -0.19219
       9     H     0.44024  0.44024  0.00000  0.11952
      10     H     0.45089  0.45089  0.00000  0.09821
      11     C     3.08974  3.08974  0.00000 -0.17948
      12     H     0.45146  0.45146  0.00000  0.09708
      13     H     0.44888  0.44888  0.00000  0.10224
      14     C     3.14696  3.14696  0.00000 -0.29392
      15     H     0.44947  0.44947  0.00000  0.10106
      16     H     0.45352  0.45352  0.00000  0.09296
      17     H     0.45448  0.45448  0.00000  0.09103
      18     H     0.44901  0.44901  0.00000  0.10198
      19     H     0.45370  0.45370  0.00000  0.09260
      20     H     0.44834  0.44834  0.00000  0.10332
      21     H     0.43606  0.43606  0.00000  0.12787
      22     H     0.45087  0.45087  0.00000  0.09826

   Total alpha = 32.00000, Total beta = 32.00000, Total charge =  0.00000

*** Psi4 exiting successfully. Buy a developer a beer!
