  ==> Input File <==

--------------------------------------------------------------------------
set {
	reference rhf
	basis cc-pvtz
}

set_num_threads( 4 )
memory 2 gb

molecule MOL {
0 1

H	 -3.162190	 0.493205	 -0.000107
C	 -2.363908	 -0.234727	 0.000005
O	 -1.158738	 0.454634	 -0.000087
H	 -2.464314	 -0.863616	 -0.882153
H	 -2.464327	 -0.863359	 0.882345
C	 -0.028611	 -0.359694	 0.000037
C	 1.212847	 0.509314	 -0.000053
H	 -0.034155	 -1.007047	 -0.877198
H	 -0.034195	 -1.006836	 0.877430
C	 2.496675	 -0.309312	 0.077339
H	 1.210024	 1.115598	 -0.899128
H	 1.155276	 1.193944	 0.838945
H	 2.586335	 -0.984855	 -0.766870
H	 3.366747	 0.335662	 0.075524
H	 2.531360	 -0.905749	 0.982948

	symmetry c1
}
set optking {
	frozen_dihedral = ("
		11 7 6 8
	")
}

ee = optimize('scf')
oeprop('DIPOLE', 'QUADRUPOLE', 'MULLIKEN_CHARGES')
f=open( 'psi4out.xyz', 'w' )
f.write( "15  " )
f.write( str(ee) + "\n" )
f.write( MOL.save_string_xyz() )
f.close()
--------------------------------------------------------------------------

    Molecular point group: c1
  Charge       = 0
  Multiplicity = 1
  Basis Set: CC-PVTZ
  Basis Set:
  @DF-RHF Final Energy:  -232.22818253798678
    Total Energy =                       -232.2281825379867541
    Molecular point group: c1
  Basis Set: CC-PVTZ
  Basis Set:
  Basis Set: CC-PVTZ
  Basis Set:
  @DF-RHF Final Energy:  -232.22818805057116
    Total Energy =                       -232.2281880505711911
  Basis Set: CC-PVTZ
  Basis Set:
  Charge       = 0
  Multiplicity = 1
  Basis Set: CC-PVTZ
  Basis Set:

    Orbital Energies (a.u.)
    -----------------------

    Doubly Occupied:

       1A    -20.547485     2A    -11.264450     3A    -11.261768
       4A    -11.212832     5A    -11.210719     6A     -1.381782
       7A     -1.058464     8A     -0.956119     9A     -0.877279
      10A     -0.809496    11A     -0.677363    12A     -0.655785
      13A     -0.632299    14A     -0.608597    15A     -0.565220
      16A     -0.541026    17A     -0.503452    18A     -0.490319
      19A     -0.478636    20A     -0.462873    21A     -0.416847

  @DF-RHF Final Energy:  -232.22818948264194

   => Energetics <=

    Nuclear Repulsion Energy =            190.0040257942887365
    One-Electron Energy =                -691.2388075043284061
    Two-Electron Energy =                 269.0065922273978458
    DFT Exchange-Correlation Energy =       0.0000000000000000
    Empirical Dispersion Energy =           0.0000000000000000
    PCM Polarization Energy =               0.0000000000000000
    EFP Energy =                            0.0000000000000000
    Total Energy =                       -232.2281894826418238
    Molecular point group: c1
  Basis Set: CC-PVTZ
  Basis Set:

  -Total Gradient:
     Atom            X                  Y                   Z
    ------   -----------------  -----------------  -----------------
       1        0.000002279582     0.000001560228    -0.000003714330
       2       -0.000048624731    -0.000019931317     0.000013218688
       3        0.000075189687    -0.000024285191     0.000014162856
       4        0.000010937257     0.000007182289    -0.000000407159
       5        0.000003442487     0.000003437621    -0.000004151281
       6        0.000419841634    -0.000604494350     0.000322300200
       7       -0.000450424584     0.000629949596     0.000312368618
       8       -0.000303705553     0.000428309275    -0.000351286622
       9       -0.000006529914     0.000000758539     0.000018575324
      10       -0.000025250173     0.000028377692    -0.000009556305
      11        0.000319857016    -0.000450373594    -0.000329813871
      12       -0.000005094543     0.000006803467     0.000015633093
      13        0.000004462666    -0.000000297053     0.000002858905
      14        0.000005438241    -0.000002922935    -0.000003970251
      15       -0.000001819070    -0.000004074267     0.000003782135

  **** Optimization is complete! (in 3 steps) ****
    Final optimized geometry and variables:
    Molecular point group: c1

    Geometry (in Angstrom), charge = 0, multiplicity = 1:

    H           -3.162297038239     0.492552087963    -0.023090273327
    C           -2.363713543602    -0.235170693304    -0.021616601164
    O           -1.158548365001     0.453806301052    -0.013408771658
    H           -2.459852277284    -0.861156102984    -0.906407848432
    H           -2.468515367279    -0.867104977875     0.857963523028
    C           -0.028113935012    -0.360389990174    -0.009086822272
    C            1.212755890533     0.509742171434    -0.012400556445
    H           -0.034247146343    -1.008454383364    -0.885825695865
    H           -0.034679320342    -1.004351411681     0.870605665661
    C            2.497083738835    -0.309389179858     0.056593093217
    H            1.208728095033     1.115614980646    -0.911888606333
    H            1.158537972676     1.192074453417     0.828514988058
    H            2.578275201528    -0.989200916727    -0.785208714803
    H            3.367652373736     0.334928156011     0.042839609560
    H            2.540055914862    -0.901466920269     0.964691727574

  Mulliken Charges: (a.u.)
   Center  Symbol    Alpha    Beta     Spin     Total
       1     H     0.44687  0.44687  0.00000  0.10626
       2     C     3.03342  3.03342  0.00000 -0.06685
       3     O     4.17156  4.17156  0.00000 -0.34312
       4     H     0.47214  0.47214  0.00000  0.05573
       5     H     0.47226  0.47226  0.00000  0.05548
       6     C     2.95613  2.95613  0.00000  0.08773
       7     C     3.08010  3.08010  0.00000 -0.16021
       8     H     0.47549  0.47549  0.00000  0.04902
       9     H     0.47603  0.47603  0.00000  0.04794
      10     C     3.15584  3.15584  0.00000 -0.31168
      11     H     0.45143  0.45143  0.00000  0.09715
      12     H     0.45072  0.45072  0.00000  0.09855
      13     H     0.45601  0.45601  0.00000  0.08798
      14     H     0.44630  0.44630  0.00000  0.10740
      15     H     0.45570  0.45570  0.00000  0.08860

   Total alpha = 21.00000, Total beta = 21.00000, Total charge = -0.00000
