  ==> Input File <==

--------------------------------------------------------------------------
set {
	reference rhf
	basis 6-31G*
}

set_num_threads( 4 )
memory 2 gb

molecule MOL {
0 1

H	 2.845955	 -0.323208	 0.022310
C	 1.900140	 0.071967	 -0.330070
C	 0.778463	 -0.508087	 0.517968
H	 1.782469	 -0.206877	 -1.370777
H	 1.922247	 1.149867	 -0.254252
N	 -0.540928	 0.005139	 0.058438
H	 0.716718	 -1.581298	 0.454712
H	 0.859711	 -0.198647	 1.550086
O	 -1.116912	 0.766534	 0.771035
O	 -0.932155	 -0.383542	 -1.000037

	symmetry c1
}
set optking {
	frozen_dihedral = ("
		9 6 3 2
	")
}

ee = optimize('scf')
oeprop('DIPOLE', 'QUADRUPOLE', 'MULLIKEN_CHARGES')
f=open( 'psi4out.xyz', 'w' )
f.write( "10  " )
f.write( str(ee) + "\n" )
f.write( MOL.save_string_xyz() )
f.close()
--------------------------------------------------------------------------

    Molecular point group: c1
  Charge       = 0
  Multiplicity = 1
  Basis Set: 6-31G*
  Basis Set:
  @DF-RHF Final Energy:  -282.70031711041196
    Total Energy =                       -282.7003171104121293
    Molecular point group: c1
  Basis Set: 6-31G*
  Basis Set:
  Basis Set: 6-31G*
  Basis Set:
  @DF-RHF Final Energy:  -282.69665550677689
    Total Energy =                       -282.6966555067768923
  Basis Set: 6-31G*
  Basis Set:
  Basis Set: 6-31G*
  Basis Set:
  @DF-RHF Final Energy:  -282.70044692173099
    Total Energy =                       -282.7004469217312135
  Basis Set: 6-31G*
  Basis Set:
  Basis Set: 6-31G*
  Basis Set:
  @DF-RHF Final Energy:  -282.70049730163976
    Total Energy =                       -282.7004973016397571
  Basis Set: 6-31G*
  Basis Set:
  Basis Set: 6-31G*
  Basis Set:
  @DF-RHF Final Energy:  -282.70049882762646
    Total Energy =                       -282.7004988276264612
  Basis Set: 6-31G*
  Basis Set:
  Charge       = 0
  Multiplicity = 1
  Basis Set: 6-31G*
  Basis Set:

    Orbital Energies (a.u.)
    -----------------------

    Doubly Occupied:

       1A    -20.604229     2A    -20.600329     3A    -15.848684
       4A    -11.303777     5A    -11.252756     6A     -1.632317
       7A     -1.417923     8A     -1.127677     9A     -0.967431
      10A     -0.837665    11A     -0.760779    12A     -0.736463
      13A     -0.725702    14A     -0.657445    15A     -0.590599
      16A     -0.561897    17A     -0.547805    18A     -0.485514
      19A     -0.477979    20A     -0.449806

  @DF-RHF Final Energy:  -282.70049942016919

   => Energetics <=

    Nuclear Repulsion Energy =            186.2426256807588913
    One-Electron Energy =                -754.7126958718586138
    Two-Electron Energy =                 285.7695707709304997
    DFT Exchange-Correlation Energy =       0.0000000000000000
    Empirical Dispersion Energy =           0.0000000000000000
    PCM Polarization Energy =               0.0000000000000000
    EFP Energy =                            0.0000000000000000
    Total Energy =                       -282.7004994201691943
    Molecular point group: c1
  Basis Set: 6-31G*
  Basis Set:

  -Total Gradient:
     Atom            X                  Y                   Z
    ------   -----------------  -----------------  -----------------
       1       -0.000007944431    -0.000001398026     0.000005741176
       2       -0.000021728797     0.000052561347     0.000048683275
       3        0.000028400409    -0.000058777417    -0.000080844148
       4       -0.000003340466     0.000003137528    -0.000002563723
       5        0.000008809648     0.000004241924    -0.000003217995
       6       -0.000060199869    -0.000039449974     0.000064465320
       7       -0.000000710698    -0.000004647086     0.000010645323
       8       -0.000001571769     0.000004927639     0.000000918296
       9        0.000053698573     0.000055888521    -0.000026806350
      10        0.000004587401    -0.000016484456    -0.000017021170

  **** Optimization is complete! (in 6 steps) ****
    Final optimized geometry and variables:
    Molecular point group: c1

    Geometry (in Angstrom), charge = 0, multiplicity = 1:

    H            2.841302248517    -0.308329325478     0.027986575186
    C            1.890245357125     0.069287276369    -0.328784343129
    C            0.774797964598    -0.507330411406     0.532065772813
    H            1.765931583325    -0.221591984069    -1.362978021370
    H            1.907201230105     1.150917970725    -0.263971789379
    N           -0.540109160769     0.006204615298     0.063379491774
    H            0.715994325391    -1.581399023665     0.441241032964
    H            0.856992788964    -0.217965017595     1.566149783407
    O           -1.115689847964     0.777262700911     0.766179866712
    O           -0.920459678344    -0.379809996281    -0.999910930526

  Mulliken Charges: (a.u.)
   Center  Symbol    Alpha    Beta     Spin     Total
       1     H     0.40496  0.40496  0.00000  0.19008
       2     C     3.25763  3.25763  0.00000 -0.51526
       3     C     3.09096  3.09096  0.00000 -0.18191
       4     H     0.39379  0.39379  0.00000  0.21241
       5     H     0.40130  0.40130  0.00000  0.19740
       6     N     3.21951  3.21951  0.00000  0.56098
       7     H     0.38760  0.38760  0.00000  0.22479
       8     H     0.38596  0.38596  0.00000  0.22808
       9     O     4.22758  4.22758  0.00000 -0.45515
      10     O     4.23071  4.23071  0.00000 -0.46142

   Total alpha = 20.00000, Total beta = 20.00000, Total charge = -0.00000
