  ==> Input File <==

--------------------------------------------------------------------------
set {
	reference rhf
	basis 6-31G*
}

set_num_threads( 4 )
memory 2 gb

molecule MOL {
0 1

H	 3.793606	 0.125830	 0.542842
N	 3.092854	 -0.246221	 -0.068770
C	 1.865559	 0.531981	 0.018834
H	 2.929935	 -1.192376	 0.219463
C	 0.645745	 -0.382037	 -0.029944
H	 1.841966	 1.207024	 -0.831236
H	 1.815756	 1.155410	 0.915079
C	 -0.679275	 0.379305	 0.025956
H	 0.698998	 -0.976915	 -0.937203
H	 0.693479	 -1.083846	 0.802235
C	 -1.903357	 -0.536963	 -0.023547
H	 -0.726309	 1.082987	 -0.803784
H	 -0.717680	 0.977832	 0.934877
C	 -3.225172	 0.228290	 0.028445
H	 -1.867824	 -1.134999	 -0.931459
H	 -1.860449	 -1.239604	 0.805977
H	 -3.313397	 0.915643	 -0.808262
H	 -4.073500	 -0.448134	 -0.008893
H	 -3.306061	 0.809945	 0.942516

	symmetry c1
}
set optking {
	frozen_dihedral = ("
		1 2 3 6
	")
}

ee = optimize('scf')
oeprop('DIPOLE', 'QUADRUPOLE', 'MULLIKEN_CHARGES')
f=open( 'psi4out.xyz', 'w' )
f.write( "19  " )
f.write( str(ee) + "\n" )
f.write( MOL.save_string_xyz() )
f.close()
--------------------------------------------------------------------------

    Molecular point group: c1
  Charge       = 0
  Multiplicity = 1
  Basis Set: 6-31G*
  Basis Set:
  @DF-RHF Final Energy:  -251.34795826685630
    Total Energy =                       -251.3479582668562102
    Molecular point group: c1
  Basis Set: 6-31G*
  Basis Set:
  Basis Set: 6-31G*
  Basis Set:
  @DF-RHF Final Energy:  -251.34821662602749
    Total Energy =                       -251.3482166260275221
  Basis Set: 6-31G*
  Basis Set:
  Basis Set: 6-31G*
  Basis Set:
  @DF-RHF Final Energy:  -251.34828070178310
    Total Energy =                       -251.3482807017829828
  Basis Set: 6-31G*
  Basis Set:
  Charge       = 0
  Multiplicity = 1
  Basis Set: 6-31G*
  Basis Set:

    Orbital Energies (a.u.)
    -----------------------

    Doubly Occupied:

       1A    -15.530413     2A    -11.239381     3A    -11.216669
       4A    -11.216201     5A    -11.215654     6A    -11.209347
       7A     -1.174840     8A     -1.075737     9A     -1.000619
      10A     -0.901623    11A     -0.817157    12A     -0.793560
      13A     -0.658800    14A     -0.645788    15A     -0.612087
      16A     -0.596452    17A     -0.564832    18A     -0.544574
      19A     -0.539245    20A     -0.496553    21A     -0.488393
      22A     -0.468232    23A     -0.464843    24A     -0.450821
      25A     -0.378954

  @DF-RHF Final Energy:  -251.34828142655320

   => Energetics <=

    Nuclear Repulsion Energy =            245.7263092180310480
    One-Electron Energy =                -825.5476355217857645
    Two-Electron Energy =                 328.4730448772013460
    DFT Exchange-Correlation Energy =       0.0000000000000000
    Empirical Dispersion Energy =           0.0000000000000000
    PCM Polarization Energy =               0.0000000000000000
    EFP Energy =                            0.0000000000000000
    Total Energy =                       -251.3482814265533989
    Molecular point group: c1
  Basis Set: 6-31G*
  Basis Set:

  -Total Gradient:
     Atom            X                  Y                   Z
    ------   -----------------  -----------------  -----------------
       1       -0.000994255967    -0.001984487477     0.002295401680
       2        0.000835069571     0.002019000397    -0.003251695958
       3        0.001597086561     0.001960580496     0.002565447644
       4       -0.000006133412     0.000012019743    -0.000036476146
       5        0.000019054410     0.000014666759     0.000057701983
       6       -0.001424795432    -0.001989591535    -0.001602430289
       7       -0.000034998619    -0.000036693034    -0.000038068154
       8        0.000026248160     0.000022852561     0.000035068505
       9       -0.000012458709    -0.000055367280    -0.000029902097
      10        0.000019506252     0.000025943266     0.000014127992
      11        0.000013607752     0.000008756894    -0.000049130731
      12        0.000006013338     0.000001874002     0.000046898945
      13       -0.000025791980     0.000003896462     0.000033098157
      14       -0.000010358002    -0.000002324826    -0.000025119115
      15        0.000002708423    -0.000029528540    -0.000004672754
      16       -0.000005478967     0.000031719762    -0.000004268786
      17       -0.000006373592    -0.000003036255     0.000001240355
      18       -0.000009333377     0.000002763087    -0.000000128378
      19        0.000010683593    -0.000003044480    -0.000007092853

  **** Optimization is complete! (in 4 steps) ****
    Final optimized geometry and variables:
    Molecular point group: c1

    Geometry (in Angstrom), charge = 0, multiplicity = 1:

    H            3.827787512977     0.133084612555     0.482834192985
    N            3.108490851542    -0.227336406408    -0.112531898952
    C            1.868841163178     0.533746224923     0.039161061285
    H            2.969848271541    -1.177970699284     0.171619767360
    C            0.646274346950    -0.380147789321    -0.002237400852
    H            1.791885394916     1.238044552414    -0.784260683937
    H            1.851819136282     1.111245688277     0.962575707375
    C           -0.677875923179     0.383644133841     0.033050496636
    H            0.696116856963    -0.984283544041    -0.905864674306
    H            0.688192658461    -1.072161892171     0.838264625882
    C           -1.902920212300    -0.531331602444    -0.017613414445
    H           -0.714976307055     1.077837978115    -0.804346486097
    H           -0.722063491801     0.991466796645     0.935434260129
    C           -3.223427179245     0.237498254523     0.007941906963
    H           -1.858267652779    -1.142141668089    -0.916632919396
    H           -1.871492832709    -1.222018161468     0.822359647701
    H           -3.301068660647     0.911481461932    -0.840484925625
    H           -4.072684329004    -0.437815886354    -0.027697486314
    H           -3.312714102846     0.833690520143     0.911743276839

  Mulliken Charges: (a.u.)
   Center  Symbol    Alpha    Beta     Spin     Total
       1     H     0.33317  0.33317  0.00000  0.33366
       2     N     3.92741  3.92741  0.00000 -0.85481
       3     C     3.04760  3.04760  0.00000 -0.09520
       4     H     0.33391  0.33391  0.00000  0.33219
       5     C     3.16743  3.16743  0.00000 -0.33487
       6     H     0.42013  0.42013  0.00000  0.15973
       7     H     0.43145  0.43145  0.00000  0.13711
       8     C     3.15361  3.15361  0.00000 -0.30722
       9     H     0.41562  0.41562  0.00000  0.16875
      10     H     0.42634  0.42634  0.00000  0.14731
      11     C     3.15131  3.15131  0.00000 -0.30262
      12     H     0.42146  0.42146  0.00000  0.15708
      13     H     0.42375  0.42375  0.00000  0.15250
      14     C     3.23949  3.23949  0.00000 -0.47899
      15     H     0.42194  0.42194  0.00000  0.15612
      16     H     0.42324  0.42324  0.00000  0.15353
      17     H     0.42123  0.42123  0.00000  0.15754
      18     H     0.41902  0.41902  0.00000  0.16195
      19     H     0.42187  0.42187  0.00000  0.15625

   Total alpha = 25.00000, Total beta = 25.00000, Total charge = -0.00000
