  ==> Input File <==

--------------------------------------------------------------------------
set {
	reference rhf
	basis 6-31G*
}

set_num_threads( 1 )
memory 2 gb

molecule MOL {
0 1

H	 -2.516713	 -1.678330	 -0.966579
N	 -1.611610	 -1.607266	 -0.543833
C	 -1.444639	 -0.316880	 0.101249
H	 -0.932626	 -1.706498	 -1.273382
C	 -0.057860	 -0.214163	 0.700772
H	 -1.593331	 0.531216	 -0.568546
H	 -2.173879	 -0.231906	 0.901106
O	 0.874168	 -0.245412	 -0.342030
H	 0.041265	 0.713659	 1.263762
H	 0.109031	 -1.046409	 1.381028
C	 2.202317	 -0.244239	 0.074611
H	 2.711377	 -1.041390	 -0.449894
H	 2.692099	 0.699270	 -0.159667
H	 2.283185	 -0.418429	 1.145558

	symmetry c1
}
set optking {
	frozen_dihedral = ("
		8 5 3 6,
		6 3 2 4,
		11 8 5 3
	")
}

ee = energy('scf')
oeprop('DIPOLE', 'QUADRUPOLE', 'MULLIKEN_CHARGES')
f=open( 'psi4out.xyz', 'w' )
f.write( "14  " )
f.write( str(ee) + "\n" )
f.write( MOL.save_string_xyz() )
f.close()
--------------------------------------------------------------------------

    Molecular point group: c1

    Geometry (in Angstrom), charge = 0, multiplicity = 1:

       Center              X                  Y                   Z               Mass
    ------------   -----------------  -----------------  -----------------  -----------------
           H         -2.522545374976    -1.146189955675    -0.949486057184     1.007825032070
           N         -1.617442374976    -1.075125955675    -0.526740057184    14.003074004780
           C         -1.450471374976     0.215260044325     0.118341942816    12.000000000000
           H         -0.938458374976    -1.174357955675    -1.256289057184     1.007825032070
           C         -0.063692374976     0.317977044325     0.717864942816    12.000000000000
           H         -1.599163374976     1.063356044325    -0.551453057184     1.007825032070
           H         -2.179711374976     0.300234044325     0.918198942816     1.007825032070
           O          0.868335625024     0.286728044325    -0.324937057184    15.994914619560
           H          0.035432625024     1.245799044325     1.280854942816     1.007825032070
           H          0.103198625024    -0.514268955675     1.398120942816     1.007825032070
           C          2.196484625024     0.287901044325     0.091703942816    12.000000000000
           H          2.705544625024    -0.509249955675    -0.432801057184     1.007825032070
           H          2.686266625024     1.231410044325    -0.142574057184     1.007825032070
           H          2.277352625024     0.113711044325     1.162650942816     1.007825032070

  Charge       = 0
  Multiplicity = 1
  Basis Set: 6-31G*
  Basis Set:

    Orbital Energies (a.u.)
    -----------------------

    Doubly Occupied:

       1A    -20.554738     2A    -15.528319     3A    -11.266136
       4A    -11.265222     5A    -11.240419     6A     -1.380394
       7A     -1.173444     8A     -0.998465     9A     -0.907038
      10A     -0.816259    11A     -0.682629    12A     -0.672811
      13A     -0.643534    14A     -0.610039    15A     -0.606164
      16A     -0.538893    17A     -0.534358    18A     -0.495039
      19A     -0.474773    20A     -0.412585    21A     -0.379988

  @DF-RHF Final Energy:  -248.12133237748310

   => Energetics <=

    Nuclear Repulsion Energy =            194.7082828817183326
    One-Electron Energy =                -723.2966951575350549
    Two-Electron Energy =                 280.4670798983333952
    DFT Exchange-Correlation Energy =       0.0000000000000000
    Empirical Dispersion Energy =           0.0000000000000000
    PCM Polarization Energy =               0.0000000000000000
    EFP Energy =                            0.0000000000000000
    Total Energy =                       -248.1213323774833270

  Mulliken Charges: (a.u.)
   Center  Symbol    Alpha    Beta     Spin     Total
       1     H     0.33283  0.33283  0.00000  0.33434
       2     N     3.92536  3.92536  0.00000 -0.85071
       3     C     3.06908  3.06908  0.00000 -0.13816
       4     H     0.32370  0.32370  0.00000  0.35260
       5     C     2.99186  2.99186  0.00000  0.01627
       6     H     0.42658  0.42658  0.00000  0.14683
       7     H     0.42059  0.42059  0.00000  0.15882
       8     O     4.31153  4.31153  0.00000 -0.62306
       9     H     0.43091  0.43091  0.00000  0.13817
      10     H     0.42168  0.42168  0.00000  0.15665
      11     C     3.07632  3.07632  0.00000 -0.15264
      12     H     0.41764  0.41764  0.00000  0.16471
      13     H     0.42340  0.42340  0.00000  0.15319
      14     H     0.42851  0.42851  0.00000  0.14297

   Total alpha = 21.00000, Total beta = 21.00000, Total charge =  0.00000
