  ==> Input File <==

--------------------------------------------------------------------------
set {
	reference rhf
	basis 6-31G*
}

set_num_threads( 1 )
memory 2 gb

molecule MOL {
0 1

H	 2.011757	 2.766901	 -1.497965
O	 2.841717	 2.365344	 -1.710070
C	 3.329955	 1.668254	 -0.592151
C	 2.566404	 0.379768	 -0.306631
H	 4.363546	 1.438437	 -0.816981
H	 3.325715	 2.309528	 0.288491
C	 1.098873	 0.596536	 0.070508
H	 2.627245	 -0.258777	 -1.184084
H	 3.074204	 -0.143136	 0.502120
C	 0.374610	 -0.710865	 0.403618
H	 0.589314	 1.094845	 -0.749494
H	 1.040701	 1.265802	 0.929018
C	 -1.075814	 -0.542521	 0.870811
H	 0.398919	 -1.365172	 -0.465945
H	 0.930421	 -1.225041	 1.184898
C	 -2.037799	 -0.007733	 -0.193645
H	 -1.439315	 -1.509595	 1.212063
H	 -1.099575	 0.112601	 1.740344
C	 -3.489788	 0.042957	 0.286558
H	 -1.975791	 -0.635462	 -1.081464
H	 -1.735685	 0.989624	 -0.503982
C	 -4.216917	 1.317354	 -0.141063
H	 -4.025645	 -0.823308	 -0.095450
H	 -3.513059	 -0.038752	 1.371301
H	 -4.239342	 1.411634	 -1.223113
H	 -5.243387	 1.322503	 0.212445
H	 -3.726170	 2.201406	 0.256408

	symmetry c1
}
set optking {
	frozen_dihedral = ("
		14 10 7 4,
		14 10 13 16,
		10 7 4 8,
		8 4 3 2,
		10 13 16 20,
		4 3 2 1
	")
}

ee = energy('scf')
oeprop('DIPOLE', 'QUADRUPOLE', 'MULLIKEN_CHARGES')
f=open( 'psi4out.xyz', 'w' )
f.write( "27  " )
f.write( str(ee) + "\n" )
f.write( MOL.save_string_xyz() )
f.close()
--------------------------------------------------------------------------

    Molecular point group: c1

    Geometry (in Angstrom), charge = 0, multiplicity = 1:

       Center              X                  Y                   Z               Mass
    ------------   -----------------  -----------------  -----------------  -----------------
           H          2.047538219192     2.154138890840    -1.325090629271     1.007825032070
           O          2.877498219192     1.752581890840    -1.537195629271    15.994914619560
           C          3.365736219192     1.055491890840    -0.419276629271    12.000000000000
           C          2.602185219192    -0.232994109160    -0.133756629271    12.000000000000
           H          4.399327219192     0.825674890840    -0.644106629271     1.007825032070
           H          3.361496219192     1.696765890840     0.461365370729     1.007825032070
           C          1.134654219192    -0.016226109160     0.243382370729    12.000000000000
           H          2.663026219192    -0.871539109160    -1.011209629271     1.007825032070
           H          3.109985219192    -0.755898109160     0.674994370729     1.007825032070
           C          0.410391219192    -1.323627109160     0.576492370729    12.000000000000
           H          0.625095219192     0.482082890840    -0.576619629271     1.007825032070
           H          1.076482219192     0.653039890840     1.101892370729     1.007825032070
           C         -1.040032780808    -1.155283109160     1.043685370729    12.000000000000
           H          0.434700219192    -1.977934109160    -0.293070629271     1.007825032070
           H          0.966202219192    -1.837803109160     1.357772370729     1.007825032070
           C         -2.002017780808    -0.620495109160    -0.020770629271    12.000000000000
           H         -1.403533780808    -2.122357109160     1.384937370729     1.007825032070
           H         -1.063793780808    -0.500161109160     1.913218370729     1.007825032070
           C         -3.454006780808    -0.569805109160     0.459432370729    12.000000000000
           H         -1.940009780808    -1.248224109160    -0.908589629271     1.007825032070
           H         -1.699903780808     0.376861890840    -0.331107629271     1.007825032070
           C         -4.181135780808     0.704591890840     0.031811370729    12.000000000000
           H         -3.989863780808    -1.436070109160     0.077424370729     1.007825032070
           H         -3.477277780808    -0.651514109160     1.544175370729     1.007825032070
           H         -4.203560780808     0.798871890840    -1.050238629271     1.007825032070
           H         -5.207605780808     0.709740890840     0.385319370729     1.007825032070
           H         -3.690388780808     1.588643890840     0.429282370729     1.007825032070

  Charge       = 0
  Multiplicity = 1
  Basis Set: 6-31G*
  Basis Set:

    Orbital Energies (a.u.)
    -----------------------

    Doubly Occupied:

       1A    -20.552242     2A    -11.267004     3A    -11.219720
       4A    -11.216966     5A    -11.216048     6A    -11.215158
       7A    -11.214836     8A    -11.213069     9A    -11.209842
      10A     -1.358985    11A     -1.095268    12A     -1.061565
      13A     -1.011283    14A     -0.948237    15A     -0.888330
      16A     -0.820901    17A     -0.801731    18A     -0.777955
      19A     -0.693675    20A     -0.650416    21A     -0.632028
      22A     -0.614398    23A     -0.608074    24A     -0.584190
      25A     -0.581373    26A     -0.550578    27A     -0.539520
      28A     -0.532994    29A     -0.504847    30A     -0.493350
      31A     -0.487893    32A     -0.473302    33A     -0.470744
      34A     -0.457170    35A     -0.451462    36A     -0.440355
      37A     -0.422768

  @DF-RHF Final Energy:  -388.27714525428945

   => Energetics <=

    Nuclear Repulsion Energy =            460.9562887025279565
    One-Electron Energy =               -1439.9103892642021947
    Two-Electron Energy =                 590.6769553073852421
    DFT Exchange-Correlation Energy =       0.0000000000000000
    Empirical Dispersion Energy =           0.0000000000000000
    PCM Polarization Energy =               0.0000000000000000
    EFP Energy =                            0.0000000000000000
    Total Energy =                       -388.2771452542890529

  Mulliken Charges: (a.u.)
   Center  Symbol    Alpha    Beta     Spin     Total
       1     H     0.27990  0.27990  0.00000  0.44020
       2     O     4.37095  4.37095  0.00000 -0.74191
       3     C     2.99736  2.99736  0.00000  0.00527
       4     C     3.16087  3.16087  0.00000 -0.32173
       5     H     0.41445  0.41445  0.00000  0.17110
       6     H     0.43207  0.43207  0.00000  0.13586
       7     C     3.16326  3.16326  0.00000 -0.32652
       8     H     0.41498  0.41498  0.00000  0.17005
       9     H     0.42435  0.42435  0.00000  0.15131
      10     C     3.15257  3.15257  0.00000 -0.30515
      11     H     0.42276  0.42276  0.00000  0.15448
      12     H     0.42556  0.42556  0.00000  0.14887
      13     C     3.15595  3.15595  0.00000 -0.31190
      14     H     0.42165  0.42165  0.00000  0.15671
      15     H     0.42162  0.42162  0.00000  0.15675
      16     C     3.15498  3.15498  0.00000 -0.30996
      17     H     0.42063  0.42063  0.00000  0.15873
      18     H     0.42398  0.42398  0.00000  0.15203
      19     C     3.15322  3.15322  0.00000 -0.30644
      20     H     0.42129  0.42129  0.00000  0.15741
      21     H     0.42168  0.42168  0.00000  0.15664
      22     C     3.24048  3.24048  0.00000 -0.48095
      23     H     0.42049  0.42049  0.00000  0.15903
      24     H     0.42091  0.42091  0.00000  0.15817
      25     H     0.42136  0.42136  0.00000  0.15729
      26     H     0.42013  0.42013  0.00000  0.15973
      27     H     0.42255  0.42255  0.00000  0.15491

   Total alpha = 37.00000, Total beta = 37.00000, Total charge =  0.00000
