  ==> Input File <==

--------------------------------------------------------------------------
set {
	reference rhf
	basis 6-31G*
}

set_num_threads( 4 )
memory 2 gb

molecule MOL {
0 1

H	 -4.044423	 0.567019	 -0.682703
C	 -3.363999	 -0.071563	 -0.153651
C	 -2.076860	 -0.007332	 -0.404944
H	 -3.760821	 -0.753007	 0.575099
O	 -1.180634	 -0.819263	 0.215062
H	 -1.658684	 0.673090	 -1.125604
C	 0.051604	 -1.018856	 -0.387932
C	 1.043764	 0.054862	 -0.001873
H	 -0.017620	 -1.041351	 -1.469781
H	 0.437898	 -1.966374	 -0.042284
F	 2.212596	 -0.199467	 -0.571921
F	 0.652529	 1.252447	 -0.405055
F	 1.230877	 0.110694	 1.300533

	symmetry c1
}
set optking {
	frozen_dihedral = ("
		6 3 5 7
	")
}

ee = optimize('scf')
oeprop('DIPOLE', 'QUADRUPOLE', 'MULLIKEN_CHARGES')
f=open( 'psi4out.xyz', 'w' )
f.write( "13  " )
f.write( str(ee) + "\n" )
f.write( MOL.save_string_xyz() )
f.close()
--------------------------------------------------------------------------

    Molecular point group: c1
  Charge       = 0
  Multiplicity = 1
  Basis Set: 6-31G*
  Basis Set:
  @DF-RHF Final Energy:  -527.53536357070550
    Total Energy =                       -527.5353635707056128
    Molecular point group: c1
  Basis Set: 6-31G*
  Basis Set:
  Basis Set: 6-31G*
  Basis Set:
  @DF-RHF Final Energy:  -527.53545531485634
    Total Energy =                       -527.5354553148567902
  Basis Set: 6-31G*
  Basis Set:
  Basis Set: 6-31G*
  Basis Set:
  @DF-RHF Final Energy:  -527.53570436890504
    Total Energy =                       -527.5357043689050442
  Basis Set: 6-31G*
  Basis Set:
  Basis Set: 6-31G*
  Basis Set:
  @DF-RHF Final Energy:  -527.53571252638108
    Total Energy =                       -527.5357125263813032
  Basis Set: 6-31G*
  Basis Set:
  Basis Set: 6-31G*
  Basis Set:
  @DF-RHF Final Energy:  -527.53571440447467
    Total Energy =                       -527.5357144044744473
  Basis Set: 6-31G*
  Basis Set:
  Charge       = 0
  Multiplicity = 1
  Basis Set: 6-31G*
  Basis Set:

    Orbital Energies (a.u.)
    -----------------------

    Doubly Occupied:

       1A    -26.344994     2A    -26.344720     3A    -26.340831
       4A    -20.606738     5A    -11.503534     6A    -11.318277
       7A    -11.298592     8A    -11.217662     9A     -1.742195
      10A     -1.640412    11A     -1.638650    12A     -1.436286
      13A     -1.084233    14A     -1.016457    15A     -0.925598
      16A     -0.836425    17A     -0.831473    18A     -0.822504
      19A     -0.787844    20A     -0.724853    21A     -0.711688
      22A     -0.699539    23A     -0.675913    24A     -0.659323
      25A     -0.654871    26A     -0.643657    27A     -0.628509
      28A     -0.590760    29A     -0.564811    30A     -0.528967
      31A     -0.502766    32A     -0.354043

  @DF-RHF Final Energy:  -527.53571456234897

   => Energetics <=

    Nuclear Repulsion Energy =            411.9685252272056459
    One-Electron Energy =               -1547.6542325046614224
    Two-Electron Energy =                 608.1499927151069187
    DFT Exchange-Correlation Energy =       0.0000000000000000
    Empirical Dispersion Energy =           0.0000000000000000
    PCM Polarization Energy =               0.0000000000000000
    EFP Energy =                            0.0000000000000000
    Total Energy =                       -527.5357145623488577
    Molecular point group: c1
  Basis Set: 6-31G*
  Basis Set:

  -Total Gradient:
     Atom            X                  Y                   Z
    ------   -----------------  -----------------  -----------------
       1       -0.000002778901    -0.000004739030    -0.000001476351
       2        0.000006047811     0.000009900335     0.000001666852
       3       -0.000135300897    -0.000461645686    -0.000415928234
       4        0.000003540931    -0.000003760042    -0.000002364113
       5        0.000179494665     0.000458298680     0.000303394314
       6        0.000042932465     0.000271996867     0.000254733369
       7       -0.000049769495    -0.000278668738    -0.000129176456
       8        0.000002413878     0.000007824751    -0.000011165745
       9       -0.000003354170     0.000005410611     0.000005330964
      10       -0.000010389636    -0.000009205354    -0.000006828576
      11       -0.000035128970     0.000000466368     0.000047816807
      12       -0.000022268730     0.000038333949    -0.000031118107
      13        0.000024561053    -0.000034212708    -0.000014884725

  **** Optimization is complete! (in 6 steps) ****
    Final optimized geometry and variables:
    Molecular point group: c1

    Geometry (in Angstrom), charge = 0, multiplicity = 1:

    H           -4.054976764018     0.602890967509    -0.644847391368
    C           -3.360479416636    -0.024321385105    -0.120228483213
    C           -2.083869203193     0.013234578874    -0.425673243047
    H           -3.732685539085    -0.661741433988     0.659790276509
    O           -1.166005605794    -0.738276756994     0.239833053425
    H           -1.688783881968     0.651891475186    -1.194654400047
    C            0.064480405500    -0.950906094700    -0.366547458127
    C            1.069272267930     0.100991929747     0.044569739840
    H           -0.001332820923    -0.954536032674    -1.448116458300
    H            0.436572945494    -1.909996007083    -0.036638396754
    F            2.235229238401    -0.151894756790    -0.531137129552
    F            0.692065456726     1.313881711194    -0.329021405477
    F            1.256702471268     0.123908001141     1.347765831159

  Mulliken Charges: (a.u.)
   Center  Symbol    Alpha    Beta     Spin     Total
       1     H     0.40691  0.40691  0.00000  0.18618
       2     C     3.23289  3.23289  0.00000 -0.46578
       3     C     2.90068  2.90068  0.00000  0.19865
       4     H     0.40192  0.40192  0.00000  0.19617
       5     O     4.30307  4.30307  0.00000 -0.60614
       6     H     0.40303  0.40303  0.00000  0.19395
       7     C     3.06480  3.06480  0.00000 -0.12960
       8     C     2.45529  2.45529  0.00000  1.08942
       9     H     0.40429  0.40429  0.00000  0.19141
      10     H     0.38963  0.38963  0.00000  0.22073
      11     F     4.68271  4.68271  0.00000 -0.36542
      12     F     4.68040  4.68040  0.00000 -0.36081
      13     F     4.67438  4.67438  0.00000 -0.34876

   Total alpha = 32.00000, Total beta = 32.00000, Total charge = -0.00000
