  ==> Input File <==

--------------------------------------------------------------------------
set {
	reference rhf
	basis cc-pvtz
}

set_num_threads( 4 )
memory 2 gb

molecule MOL {
0 1

H	 -2.051380	 -0.750034	 1.958022
C	 -1.443288	 -0.460438	 1.127183
C	 -1.947473	 0.372948	 0.078174
C	 -0.175716	 -0.870274	 1.035916
H	 -2.962956	 0.719426	 0.121808
C	 -1.166006	 0.720132	 -0.949127
H	 0.273014	 -1.496028	 1.781713
N	 0.640204	 -0.530428	 -0.000115
H	 -1.509055	 1.341364	 -1.750595
C	 0.215575	 0.271555	 -1.045267
C	 2.006991	 -1.033007	 -0.000020
O	 0.948269	 0.561927	 -1.951405
H	 2.182444	 -1.636914	 -0.880881
H	 2.678769	 -0.195442	 -0.002236
H	 2.183828	 -1.633244	 0.883082

	symmetry c1
}
set optking {
	frozen_dihedral = ("
		10 8 11 13
	")
}

ee = optimize('scf')
oeprop('DIPOLE', 'QUADRUPOLE', 'MULLIKEN_CHARGES')
f=open( 'psi4out.xyz', 'w' )
f.write( "15  " )
f.write( str(ee) + "\n" )
f.write( MOL.save_string_xyz() )
f.close()
--------------------------------------------------------------------------

    Molecular point group: c1
  Charge       = 0
  Multiplicity = 1
  Basis Set: CC-PVTZ
  Basis Set:
  @DF-RHF Final Energy:  -360.72276888622588
    Total Energy =                       -360.7227688862258788
    Molecular point group: c1
  Basis Set: CC-PVTZ
  Basis Set:
  Basis Set: CC-PVTZ
  Basis Set:
  @DF-RHF Final Energy:  -360.72357115477553
    Total Energy =                       -360.7235711547757546
  Basis Set: CC-PVTZ
  Basis Set:
  Basis Set: CC-PVTZ
  Basis Set:
  @DF-RHF Final Energy:  -360.72365483454962
    Total Energy =                       -360.7236548345496772
  Basis Set: CC-PVTZ
  Basis Set:
  Basis Set: CC-PVTZ
  Basis Set:
  @DF-RHF Final Energy:  -360.72363516334593
    Total Energy =                       -360.7236351633458753
  Basis Set: CC-PVTZ
  Basis Set:
  Charge       = 0
  Multiplicity = 1
  Basis Set: CC-PVTZ
  Basis Set:

    Orbital Energies (a.u.)
    -----------------------

    Doubly Occupied:

       1A    -20.502023     2A    -15.617918     3A    -11.337439
       4A    -11.294758     5A    -11.266201     6A    -11.258168
       7A    -11.229382     8A    -11.227732     9A     -1.391456
      10A     -1.285923    11A     -1.118836    12A     -1.029409
      13A     -0.972649    14A     -0.876689    15A     -0.839012
      16A     -0.719732    17A     -0.701913    18A     -0.664094
      19A     -0.653475    20A     -0.626418    21A     -0.611956
      22A     -0.575224    23A     -0.551570    24A     -0.551331
      25A     -0.531601    26A     -0.485041    27A     -0.420398
      28A     -0.410816    29A     -0.309973

  @DF-RHF Final Energy:  -360.72366064165675

   => Energetics <=

    Nuclear Repulsion Energy =            358.9296294615346028
    One-Electron Energy =               -1201.1843013094598973
    Two-Electron Energy =                 481.5310112062686017
    DFT Exchange-Correlation Energy =       0.0000000000000000
    Empirical Dispersion Energy =           0.0000000000000000
    PCM Polarization Energy =               0.0000000000000000
    EFP Energy =                            0.0000000000000000
    Total Energy =                       -360.7236606416566360
    Molecular point group: c1
  Basis Set: CC-PVTZ
  Basis Set:

  -Total Gradient:
     Atom            X                  Y                   Z
    ------   -----------------  -----------------  -----------------
       1       -0.000013413444     0.000006598801     0.000010013327
       2        0.000229410386    -0.000075046674     0.000013078420
       3       -0.000028913284     0.000121204350    -0.000175021801
       4       -0.000292510221    -0.000038086733     0.000159875495
       5        0.000001934248    -0.000019170882     0.000020191914
       6       -0.000201270868     0.000057257694     0.000080746774
       7        0.000040529847     0.000015271261    -0.000020153633
       8        0.000095368443     0.000147172066    -0.000280798190
       9        0.000020083309     0.000002306562    -0.000010401417
      10        0.000152663707    -0.000284965906     0.000214252595
      11       -0.000035596283    -0.000017596574     0.000002382412
      12        0.000003132539     0.000081280897    -0.000044225383
      13       -0.000000123338     0.000003542634     0.000019310786
      14       -0.000003710129     0.000013958001    -0.000009453826
      15        0.000032415092    -0.000013725494     0.000020202527

  **** Optimization is complete! (in 5 steps) ****
    Final optimized geometry and variables:
    Molecular point group: c1

    Geometry (in Angstrom), charge = 0, multiplicity = 1:

    H           -2.026323860513    -0.608255074409     2.186981041114
    C           -1.409977667035    -0.323763017090     1.360488820861
    C           -1.902111400128     0.508254687314     0.306174710557
    C           -0.142161562654    -0.741248572369     1.283662001077
    H           -2.916759788413     0.858111940656     0.342279981730
    C           -1.112413895650     0.851384173546    -0.717685463845
    H            0.294368367890    -1.365965271423     2.036169918528
    N            0.678918555630    -0.405430553638     0.253242952967
    H           -1.447052827299     1.472057799309    -1.523259101617
    C            0.264958195566     0.394209748379    -0.795667670525
    C            2.052548874314    -0.881741117008     0.209745722868
    O            1.023763891243     0.666432640060    -1.686200470751
    H            2.215179518916    -1.472036184168    -0.679420628804
    H            2.736180902566    -0.046550466997     0.188175756120
    H            2.243732096423    -1.484062199168     1.084461300783

  Mulliken Charges: (a.u.)
   Center  Symbol    Alpha    Beta     Spin     Total
       1     H     0.41405  0.41405  0.00000  0.17190
       2     C     3.10723  3.10723  0.00000 -0.21447
       3     C     3.05902  3.05902  0.00000 -0.11803
       4     C     3.03976  3.03976  0.00000 -0.07953
       5     H     0.41843  0.41843  0.00000  0.16314
       6     C     3.11837  3.11837  0.00000 -0.23675
       7     H     0.41841  0.41841  0.00000  0.16318
       8     N     3.50819  3.50819  0.00000 -0.01639
       9     H     0.40942  0.40942  0.00000  0.18117
      10     C     2.84580  2.84580  0.00000  0.30839
      11     C     3.09124  3.09124  0.00000 -0.18249
      12     O     4.23545  4.23545  0.00000 -0.47090
      13     H     0.43972  0.43972  0.00000  0.12057
      14     H     0.43946  0.43946  0.00000  0.12107
      15     H     0.45544  0.45544  0.00000  0.08913

   Total alpha = 29.00000, Total beta = 29.00000, Total charge =  0.00000
