  ==> Input File <==

--------------------------------------------------------------------------
set {
	reference rhf
	basis 6-31G*
}

set_num_threads( 1 )
memory 2 gb

molecule MOL {
0 1

O	 3.622435	 0.107698	 0.901284
C	 2.843464	 0.164689	 -0.000222
C	 1.546494	 -0.624492	 -0.000609
C	 3.101837	 1.035984	 -1.212346
C	 0.291004	 0.242674	 0.000989
H	 1.557904	 -1.283758	 -0.867573
H	 1.558622	 -1.285963	 0.864672
C	 -0.994322	 -0.586602	 0.000262
H	 0.309117	 0.896430	 -0.865270
H	 0.309661	 0.894078	 0.869017
C	 -2.259874	 0.272531	 0.000494
H	 -1.004862	 -1.240012	 -0.870939
H	 -1.005220	 -1.241071	 0.870675
C	 -3.549786	 -0.549746	 -0.000374
H	 -2.250389	 0.926680	 -0.869574
H	 -2.250838	 0.925513	 0.871430
C	 -4.809590	 0.315458	 -0.000369
H	 -3.560515	 -1.202009	 -0.871156
H	 -3.561123	 -1.202955	 0.869711
H	 -4.844746	 0.956611	 -0.876632
H	 -5.706986	 -0.295590	 -0.001609
H	 -4.845960	 0.954827	 0.877144
H	 2.306660	 1.766278	 -1.330595
H	 4.047644	 1.547324	 -1.099145
H	 3.121856	 0.432499	 -2.115142

	symmetry c1
}
set optking {
	frozen_dihedral = ("
		9 5 8 12,
		15 11 8 12,
		15 11 14 18,
		9 5 3 6
	")
}

ee = energy('scf')
oeprop('DIPOLE', 'QUADRUPOLE', 'MULLIKEN_CHARGES')
f=open( 'psi4out.xyz', 'w' )
f.write( "25  " )
f.write( str(ee) + "\n" )
f.write( MOL.save_string_xyz() )
f.close()
--------------------------------------------------------------------------

    Molecular point group: c1

    Geometry (in Angstrom), charge = 0, multiplicity = 1:

       Center              X                  Y                   Z               Mass
    ------------   -----------------  -----------------  -----------------  -----------------
           O          3.653434800521     0.056733525302     0.938051763035    15.994914619560
           C          2.874463800521     0.113724525302     0.036545763035    12.000000000000
           C          1.577493800521    -0.675456474698     0.036158763035    12.000000000000
           C          3.132836800521     0.985019525302    -1.175578236965    12.000000000000
           C          0.322003800521     0.191709525302     0.037756763035    12.000000000000
           H          1.588903800521    -1.334722474698    -0.830805236965     1.007825032070
           H          1.589621800521    -1.336927474698     0.901439763035     1.007825032070
           C         -0.963322199479    -0.637566474698     0.037029763035    12.000000000000
           H          0.340116800521     0.845465525302    -0.828502236965     1.007825032070
           H          0.340660800521     0.843113525302     0.905784763035     1.007825032070
           C         -2.228874199479     0.221566525302     0.037261763035    12.000000000000
           H         -0.973862199479    -1.290976474698    -0.834171236965     1.007825032070
           H         -0.974220199479    -1.292035474698     0.907442763035     1.007825032070
           C         -3.518786199479    -0.600710474698     0.036393763035    12.000000000000
           H         -2.219389199479     0.875715525302    -0.832806236965     1.007825032070
           H         -2.219838199479     0.874548525302     0.908197763035     1.007825032070
           C         -4.778590199479     0.264493525302     0.036398763035    12.000000000000
           H         -3.529515199479    -1.252973474698    -0.834388236965     1.007825032070
           H         -3.530123199479    -1.253919474698     0.906478763035     1.007825032070
           H         -4.813746199479     0.905646525302    -0.839864236965     1.007825032070
           H         -5.675986199479    -0.346554474698     0.035158763035     1.007825032070
           H         -4.814960199479     0.903862525302     0.913911763035     1.007825032070
           H          2.337659800521     1.715313525302    -1.293827236965     1.007825032070
           H          4.078643800521     1.496359525302    -1.062377236965     1.007825032070
           H          3.152855800521     0.381534525302    -2.078374236965     1.007825032070

  Charge       = 0
  Multiplicity = 1
  Basis Set: 6-31G*
  Basis Set:

    Orbital Energies (a.u.)
    -----------------------

    Doubly Occupied:

       1A    -20.548771     2A    -11.324426     3A    -11.232287
       4A    -11.229339     5A    -11.226682     6A    -11.224732
       7A    -11.220463     8A    -11.219858     9A    -11.212433
      10A     -1.393467    11A     -1.102486    12A     -1.062284
      13A     -1.011780    14A     -0.970604    15A     -0.896814
      16A     -0.822364    17A     -0.797697    18A     -0.732597
      19A     -0.667934    20A     -0.648283    21A     -0.638016
      22A     -0.614493    23A     -0.605735    24A     -0.588728
      25A     -0.565644    26A     -0.558822    27A     -0.545384
      28A     -0.537317    29A     -0.509551    30A     -0.502504
      31A     -0.487456    32A     -0.479751    33A     -0.470017
      34A     -0.468625    35A     -0.457523    36A     -0.395889

  @DF-RHF Final Energy:  -387.13327312738886

   => Energetics <=

    Nuclear Repulsion Energy =            439.2281975583862277
    One-Electron Energy =               -1394.7815849548758251
    Two-Electron Energy =                 568.4201142691026689
    DFT Exchange-Correlation Energy =       0.0000000000000000
    Empirical Dispersion Energy =           0.0000000000000000
    PCM Polarization Energy =               0.0000000000000000
    EFP Energy =                            0.0000000000000000
    Total Energy =                       -387.1332731273869285

  Mulliken Charges: (a.u.)
   Center  Symbol    Alpha    Beta     Spin     Total
       1     O     4.25995  4.25995  0.00000 -0.51989
       2     C     2.73314  2.73314  0.00000  0.53372
       3     C     3.20503  3.20503  0.00000 -0.41006
       4     C     3.29122  3.29122  0.00000 -0.58243
       5     C     3.16402  3.16402  0.00000 -0.32804
       6     H     0.41386  0.41386  0.00000  0.17229
       7     H     0.40043  0.40043  0.00000  0.19914
       8     C     3.15216  3.15216  0.00000 -0.30431
       9     H     0.41938  0.41938  0.00000  0.16123
      10     H     0.41216  0.41216  0.00000  0.17569
      11     C     3.15157  3.15157  0.00000 -0.30313
      12     H     0.42203  0.42203  0.00000  0.15595
      13     H     0.41907  0.41907  0.00000  0.16186
      14     C     3.15206  3.15206  0.00000 -0.30412
      15     H     0.42376  0.42376  0.00000  0.15249
      16     H     0.42210  0.42210  0.00000  0.15579
      17     C     3.23958  3.23958  0.00000 -0.47917
      18     H     0.42278  0.42278  0.00000  0.15444
      19     H     0.42191  0.42191  0.00000  0.15618
      20     H     0.42165  0.42165  0.00000  0.15671
      21     H     0.41839  0.41839  0.00000  0.16322
      22     H     0.42104  0.42104  0.00000  0.15793
      23     H     0.40708  0.40708  0.00000  0.18584
      24     H     0.39651  0.39651  0.00000  0.20698
      25     H     0.40914  0.40914  0.00000  0.18171

   Total alpha = 36.00000, Total beta = 36.00000, Total charge = -0.00000
