                              Psi4 1.0.54 Driver

  ==> Input File <==

--------------------------------------------------------------------------
set {
	reference rhf
	basis cc-pvtz
}

set_num_threads( 4 )
memory 2 gb

molecule MOL {
0 1

H	 -0.370188	 -2.516245	 4.343420
C	 0.082313	 -2.113517	 3.458452
C	 -0.326748	 -2.538159	 2.202195
C	 1.077181	 -1.168083	 3.549379
H	 -1.101885	 -3.275364	 2.111506
C	 0.250294	 -2.024822	 1.065740
H	 1.406972	 -0.827194	 4.512562
C	 1.670737	 -0.639134	 2.411700
H	 -0.058448	 -2.346120	 0.090489
C	 1.255896	 -1.068983	 1.164617
H	 2.442343	 0.095134	 2.516276
O	 1.760432	 -0.625184	 0.000000
C	 2.773565	 0.334879	 0.000000
H	 2.728295	 0.960928	 -0.884150
H	 3.706387	 -0.206610	 0.000000
H	 2.728295	 0.960928	 0.884150

	symmetry c1
}
set optking {
	frozen_dihedral = ("
		10 12 13 14
	")
}

ee,wfn = optimize('scf', return_wfn=True)
oeprop( wfn, 'DIPOLE', 'QUADRUPOLE', 'MULLIKEN_CHARGES')
f=open( 'psi4out.xyz', 'w' )
f.write( "16  " )
f.write( str(ee) + "\n" )
f.write( MOL.save_string_xyz() )
f.close()
--------------------------------------------------------------------------

    Molecular point group: c1
  Charge       = 0
  Multiplicity = 1
  Basis Set: CC-PVTZ
  Basis Set:
  @DF-RHF Final Energy:  -344.69832511167044
    Total Energy =                       -344.6983251116703286
    Molecular point group: c1
  Basis Set: CC-PVTZ
  Basis Set:
  Basis Set: CC-PVTZ
  Basis Set:
  @DF-RHF Final Energy:  -344.69975146908121
    Total Energy =                       -344.6997514690812068
  Basis Set: CC-PVTZ
  Basis Set:
  Basis Set: CC-PVTZ
  Basis Set:
  @DF-RHF Final Energy:  -344.70155362665849
    Total Energy =                       -344.7015536266582103
  Basis Set: CC-PVTZ
  Basis Set:
  Basis Set: CC-PVTZ
  Basis Set:
  @DF-RHF Final Energy:  -344.70177203400732
    Total Energy =                       -344.7017720340073197
  Basis Set: CC-PVTZ
  Basis Set:
  Basis Set: CC-PVTZ
  Basis Set:
  @DF-RHF Final Energy:  -344.70188532050935
    Total Energy =                       -344.7018853205095752
  Basis Set: CC-PVTZ
  Basis Set:
  Basis Set: CC-PVTZ
  Basis Set:
  @DF-RHF Final Energy:  -344.70189468564007
    Total Energy =                       -344.7018946856401271
  Basis Set: CC-PVTZ
  Basis Set:
  Basis Set: CC-PVTZ
  Basis Set:
  @DF-RHF Final Energy:  -344.70189669264653
    Total Energy =                       -344.7018966926465282
  Basis Set: CC-PVTZ
  Basis Set:
  Charge       = 0
  Multiplicity = 1
  Basis Set: CC-PVTZ
  Basis Set:

    Orbital Energies (a.u.)
    -----------------------

    Doubly Occupied:

       1A    -20.577604     2A    -11.293052     3A    -11.277925
       4A    -11.231346     5A    -11.230016     6A    -11.222101
       7A    -11.218142     8A    -11.217447     9A     -1.416725
      10A     -1.151022    11A     -1.025025    12A     -1.016817
      13A     -0.943309    14A     -0.835063    15A     -0.808502
      16A     -0.724840    17A     -0.667379    18A     -0.666879
      19A     -0.658040    20A     -0.618400    21A     -0.591126
      22A     -0.581568    23A     -0.527672    24A     -0.521681
      25A     -0.511776    26A     -0.481563    27A     -0.462602
      28A     -0.339618    29A     -0.311033

  @DF-RHF Final Energy:  -344.70189707539009

   => Energetics <=

    Nuclear Repulsion Energy =            348.6808090412051797
    One-Electron Energy =               -1158.5088702777002254
    Two-Electron Energy =                 465.1261641611050663
    DFT Exchange-Correlation Energy =       0.0000000000000000
    Empirical Dispersion Energy =           0.0000000000000000
    PCM Polarization Energy =               0.0000000000000000
    EFP Energy =                            0.0000000000000000
    Total Energy =                       -344.7018970753899794
    Molecular point group: c1
  Basis Set: CC-PVTZ
  Basis Set:

  -Total Gradient:
     Atom            X                  Y                   Z
    ------   -----------------  -----------------  -----------------
       1       -0.000008230329    -0.000008196021    -0.000002106853
       2        0.000070389520     0.000049677162     0.000045933963
       3       -0.000001610671    -0.000008050367    -0.000077250165
       4       -0.000079921342    -0.000049177510     0.000045399362
       5        0.000003816761     0.000005443224     0.000011659317
       6       -0.000033032516    -0.000023518054     0.000023100261
       7        0.000003119953     0.000001449211    -0.000005640160
       8        0.000010138254     0.000000108231    -0.000082538884
       9        0.000003094227     0.000004069868    -0.000003412054
      10       -0.002011332609     0.001795856129    -0.000386000441
      11       -0.000004225008    -0.000002217675     0.000005491016
      12        0.002545062542    -0.002220850821     0.000940066988
      13        0.001680937941    -0.001390182030    -0.001512811132
      14       -0.002160329726     0.001897429308     0.001047076658
      15       -0.000019398927    -0.000003949103    -0.000018003267
      16        0.000001521932    -0.000047891552    -0.000030964613

  **** Optimization is complete! (in 8 steps) ****
    Final optimized geometry and variables:
    Molecular point group: c1

    Geometry (in Angstrom), charge = 0, multiplicity = 1:

    H           -1.712196608360    -1.231574120859     2.594550891613
    C           -1.181947454120    -0.868090857474     1.736088807008
    C           -1.672386518217    -1.093412370932     0.459000836507
    C           -0.002231340874    -0.173884450441     1.884537918016
    H           -2.590023060746    -1.634200459097     0.324828051137
    C           -0.997667076257    -0.626017176730    -0.644981719039
    H            0.396499469550     0.003163441320     2.865516090694
    C            0.692118088611     0.299039523761     0.781615451060
    H           -1.369384352967    -0.792891323203    -1.636753810809
    C            0.189397329425     0.078118055108    -0.487995538204
    H            1.616686045339     0.820816522044     0.923606616761
    O            0.800128874817     0.476714270541    -1.619219340791
    C            1.720998284946     1.529709872802    -1.592360599960
    H            1.671439486463     2.015271725807    -2.555415514329
    H            2.726990337518     1.168015292005    -1.414482838299
    H            1.465362760818     2.260427977602    -0.835520279724

  Mulliken Charges: (a.u.)
   Center  Symbol    Alpha    Beta     Spin     Total
       1     H     0.42436  0.42436  0.00000  0.15128
       2     C     3.09965  3.09965  0.00000 -0.19930
       3     C     3.05885  3.05885  0.00000 -0.11770
       4     C     3.06292  3.06292  0.00000 -0.12585
       5     H     0.42292  0.42292  0.00000  0.15417
       6     C     3.11027  3.11027  0.00000 -0.22054
       7     H     0.42317  0.42317  0.00000  0.15366
       8     C     3.13729  3.13729  0.00000 -0.27458
       9     H     0.42017  0.42017  0.00000  0.15967
      10     C     2.85439  2.85439  0.00000  0.29123
      11     H     0.42310  0.42310  0.00000  0.15380
      12     O     4.15617  4.15617  0.00000 -0.31235
      13     C     3.04209  3.04209  0.00000 -0.08417
      14     H     0.44224  0.44224  0.00000  0.11551
      15     H     0.45801  0.45801  0.00000  0.08397
      16     H     0.46440  0.46440  0.00000  0.07120

   Total alpha = 29.00000, Total beta = 29.00000, Total charge = -0.00000

*** Psi4 exiting successfully. Buy a developer a beer!
