  ==> Input File <==

--------------------------------------------------------------------------
set {
	reference rhf
	basis cc-pvtz
}

set_num_threads( 4 )
memory 2 gb

molecule MOL {
0 1

O	 -0.694481	 1.313155	 -0.204815
C	 -0.862519	 0.151932	 -0.046791
C	 -2.171428	 -0.477048	 0.339095
O	 0.085519	 -0.757083	 -0.192238
H	 -2.467997	 -1.191667	 -0.417688
H	 -2.923379	 0.287970	 0.444097
H	 -2.053854	 -1.015120	 1.270901
C	 -0.177444	 -1.897079	 -1.002016
C	 0.092477	 -1.618303	 -2.466026
H	 -1.196853	 -2.214812	 -0.848178
H	 0.488926	 -2.659055	 -0.626390
H	 -0.053861	 -2.525457	 -3.041445
H	 -0.581088	 -0.862533	 -2.846165
H	 1.112996	 -1.284605	 -2.610176

	symmetry c1
}
set optking {
	frozen_dihedral = ("
		8 4 2 1
	")
}

ee = optimize('scf')
oeprop('DIPOLE', 'QUADRUPOLE', 'MULLIKEN_CHARGES')
f=open( 'psi4out.xyz', 'w' )
f.write( "14  " )
f.write( str(ee) + "\n" )
f.write( MOL.save_string_xyz() )
f.close()
--------------------------------------------------------------------------

    Molecular point group: c1
  Charge       = 0
  Multiplicity = 1
  Basis Set: CC-PVTZ
  Basis Set:
  @DF-RHF Final Energy:  -305.96520285070699
    Total Energy =                       -305.9652028507070440
    Molecular point group: c1
  Basis Set: CC-PVTZ
  Basis Set:
  Basis Set: CC-PVTZ
  Basis Set:
  @DF-RHF Final Energy:  -305.97006751193959
    Total Energy =                       -305.9700675119397602
  Basis Set: CC-PVTZ
  Basis Set:
  Basis Set: CC-PVTZ
  Basis Set:
  @DF-RHF Final Energy:  -305.97261492864357
    Total Energy =                       -305.9726149286433952
  Basis Set: CC-PVTZ
  Basis Set:
  Basis Set: CC-PVTZ
  Basis Set:
  @DF-RHF Final Energy:  -305.97307069085366
    Total Energy =                       -305.9730706908538878
  Basis Set: CC-PVTZ
  Basis Set:
  @DF-RHF Final Energy:  -305.97312980075770
    Total Energy =                       -305.9731298007577038
  @DF-RHF Final Energy:  -305.97336228722304
    Total Energy =                       -305.9733622872229262
  Basis Set: CC-PVTZ
  Basis Set:
  @DF-RHF Final Energy:  -305.97338635852435
    Total Energy =                       -305.9733863585240670
  Basis Set: CC-PVTZ
  Basis Set:
  Basis Set: CC-PVTZ
  Basis Set:
  @DF-RHF Final Energy:  -305.97339484136285
    Total Energy =                       -305.9733948413628468
  Basis Set: CC-PVTZ
  Basis Set:
  Basis Set: CC-PVTZ
  Basis Set:
  @DF-RHF Final Energy:  -305.97339869609442
    Total Energy =                       -305.9733986960941365
  Basis Set: CC-PVTZ
  Basis Set:
  Charge       = 0
  Multiplicity = 1
  Basis Set: CC-PVTZ
  Basis Set:

    Orbital Energies (a.u.)
    -----------------------

    Doubly Occupied:

       1A    -20.583556     2A    -20.536776     3A    -11.369494
       4A    -11.296804     5A    -11.238904     6A    -11.227295
       7A     -1.462319     8A     -1.369410     9A     -1.047406
      10A     -1.015390    11A     -0.895636    12A     -0.768270
      13A     -0.695285    14A     -0.687599    15A     -0.673156
      16A     -0.616492    17A     -0.596563    18A     -0.586074
      19A     -0.552402    20A     -0.546184    21A     -0.525223
      22A     -0.491293    23A     -0.454781    24A     -0.438376

  @DF-RHF Final Energy:  -305.97339940553843

   => Energetics <=

    Nuclear Repulsion Energy =            249.2910817676566069
    One-Electron Energy =                -911.1795869828963532
    Two-Electron Energy =                 355.9151058097015152
    DFT Exchange-Correlation Energy =       0.0000000000000000
    Empirical Dispersion Energy =           0.0000000000000000
    PCM Polarization Energy =               0.0000000000000000
    EFP Energy =                            0.0000000000000000
    Total Energy =                       -305.9733994055382595
    Molecular point group: c1
  Basis Set: CC-PVTZ
  Basis Set:

  -Total Gradient:
     Atom            X                  Y                   Z
    ------   -----------------  -----------------  -----------------
       1       -0.000631620143    -0.000284416316    -0.003663619227
       2        0.001584132237     0.001266246908     0.003980590253
       3        0.000026107328     0.000008418644    -0.000028974184
       4       -0.002237415522    -0.002498535928     0.002140609657
       5       -0.000011271709     0.000001918548     0.000009864312
       6       -0.000007626350     0.000004550799     0.000004239034
       7       -0.000002963636    -0.000002798699     0.000010389368
       8        0.001293184146     0.001509097429    -0.002489493428
       9        0.000002445035     0.000001296648     0.000060886114
      10       -0.000007055949     0.000005355595     0.000015758224
      11       -0.000001828870    -0.000005745693    -0.000000693636
      12       -0.000002219143    -0.000007732055    -0.000012543906
      13       -0.000001905210     0.000001482402    -0.000013333747
      14       -0.000001962213     0.000000861715    -0.000013678832

  **** Optimization is complete! (in 10 steps) ****
    Final optimized geometry and variables:
    Molecular point group: c1

    Geometry (in Angstrom), charge = 0, multiplicity = 1:

    O            0.004770943380     1.824398550903     0.398075727328
    C           -0.249914675857     0.684147468111     0.541166082325
    C           -1.638220278878     0.186421713024     0.861187393497
    O            0.713120040256    -0.242007174203     0.455849066394
    H           -2.092205603652    -0.251427111144    -0.019692404652
    H           -2.238840304146     1.023540869426     1.177358825342
    H           -1.608513673435    -0.568511996998     1.635529482259
    C            0.556418461056    -1.384845649278    -0.363106363186
    C            0.626691181550    -1.040076173561    -1.837515898152
    H           -0.367081448172    -1.899518991613    -0.126267325780
    H            1.371495352005    -2.035872536508    -0.087050995485
    H            0.572316858106    -1.947195517236    -2.428640020756
    H           -0.191353928242    -0.394586619448    -2.136071353615
    H            1.555347485771    -0.532716939046    -2.062722688960

  Mulliken Charges: (a.u.)
   Center  Symbol    Alpha    Beta     Spin     Total
       1     O     4.17422  4.17422  0.00000 -0.34845
       2     C     2.80873  2.80873  0.00000  0.38255
       3     C     3.16028  3.16028  0.00000 -0.32055
       4     O     4.15293  4.15293  0.00000 -0.30586
       5     H     0.44974  0.44974  0.00000  0.10051
       6     H     0.42914  0.42914  0.00000  0.14171
       7     H     0.44257  0.44257  0.00000  0.11486
       8     C     2.99886  2.99886  0.00000  0.00228
       9     C     3.13918  3.13918  0.00000 -0.27836
      10     H     0.45990  0.45990  0.00000  0.08019
      11     H     0.43827  0.43827  0.00000  0.12345
      12     H     0.45015  0.45015  0.00000  0.09970
      13     H     0.45366  0.45366  0.00000  0.09268
      14     H     0.44236  0.44236  0.00000  0.11527

   Total alpha = 24.00000, Total beta = 24.00000, Total charge = -0.00000
