  ==> Input File <==

--------------------------------------------------------------------------
set {
	reference rhf
	basis 6-31G*
}

set_num_threads( 4 )
memory 2 gb

molecule MOL {
0 1

H	 -0.857452	 -2.395022	 0.736142
N	 -0.097334	 -1.753707	 0.616083
C	 -0.563778	 -0.502042	 0.037919
H	 0.562810	 -2.197850	 0.006409
C	 0.575259	 0.508231	 -0.048326
H	 -1.342060	 -0.108798	 0.685091
H	 -1.012305	 -0.625797	 -0.951148
C	 1.954651	 -0.143624	 0.035137
H	 0.475158	 1.060484	 -0.977307
H	 0.469181	 1.234488	 0.755973
H	 2.103292	 -0.853109	 -0.774172
H	 2.742821	 0.599562	 -0.030094
H	 2.083613	 -0.679371	 0.971560

	symmetry c1
}
set optking {
	frozen_dihedral = ("
		6 3 5 9
	")
}

ee = optimize('scf')
oeprop('DIPOLE', 'QUADRUPOLE', 'MULLIKEN_CHARGES')
f=open( 'psi4out.xyz', 'w' )
f.write( "13  " )
f.write( str(ee) + "\n" )
f.write( MOL.save_string_xyz() )
f.close()
--------------------------------------------------------------------------

    Molecular point group: c1
  Charge       = 0
  Multiplicity = 1
  Basis Set: 6-31G*
  Basis Set:
  @DF-RHF Final Energy:  -173.27241072402177
    Total Energy =                       -173.2724107240217677
    Molecular point group: c1
  Basis Set: 6-31G*
  Basis Set:
  Basis Set: 6-31G*
  Basis Set:
  @DF-RHF Final Energy:  -173.27275120400225
    Total Energy =                       -173.2727512040023328
  Basis Set: 6-31G*
  Basis Set:
  Basis Set: 6-31G*
  Basis Set:
  @DF-RHF Final Energy:  -173.27474749932952
    Total Energy =                       -173.2747474993294077
  Basis Set: 6-31G*
  Basis Set:
  Basis Set: 6-31G*
  Basis Set:
  @DF-RHF Final Energy:  -173.27488085893643
    Total Energy =                       -173.2748808589364558
  Basis Set: 6-31G*
  Basis Set:
  Basis Set: 6-31G*
  Basis Set:
  @DF-RHF Final Energy:  -173.27488772697967
    Total Energy =                       -173.2748877269796708
  Basis Set: 6-31G*
  Basis Set:
  Charge       = 0
  Multiplicity = 1
  Basis Set: 6-31G*
  Basis Set:

    Orbital Energies (a.u.)
    -----------------------

    Doubly Occupied:

       1A    -15.532115     2A    -11.241024     3A    -11.212205
       4A    -11.203041     5A     -1.175428     6A     -1.025652
       7A     -0.906508     8A     -0.784684     9A     -0.668531
      10A     -0.638131    11A     -0.581083    12A     -0.559596
      13A     -0.541409    14A     -0.484122    15A     -0.476524
      16A     -0.463957    17A     -0.378621

  @DF-RHF Final Energy:  -173.27488855430809

   => Energetics <=

    Nuclear Repulsion Energy =            134.0274019872456108
    One-Electron Energy =                -498.8593211133460841
    Two-Electron Energy =                 191.5570305717922963
    DFT Exchange-Correlation Energy =       0.0000000000000000
    Empirical Dispersion Energy =           0.0000000000000000
    PCM Polarization Energy =               0.0000000000000000
    EFP Energy =                            0.0000000000000000
    Total Energy =                       -173.2748885543082054
    Molecular point group: c1
  Basis Set: 6-31G*
  Basis Set:

  -Total Gradient:
     Atom            X                  Y                   Z
    ------   -----------------  -----------------  -----------------
       1        0.000042213056     0.000018679396    -0.000008193711
       2        0.000151827853    -0.000073769777     0.000012789419
       3       -0.002174739590     0.002255943412    -0.006099418827
       4       -0.000010490512    -0.000034989605     0.000072401928
       5       -0.003648579756     0.004098294338     0.004118924529
       6        0.002410510522    -0.002397195109     0.004510454270
       7       -0.000001532013     0.000116795356    -0.000033056920
       8       -0.000019995376    -0.000080300778     0.000000028521
       9        0.003231012716    -0.003864710368    -0.002596221034
      10       -0.000065414507     0.000046605595     0.000005566131
      11        0.000074736119     0.000048398652     0.000014838024
      12        0.000011081403    -0.000015786047     0.000037542722
      13       -0.000000629915    -0.000117965065    -0.000035655050

  **** Optimization is complete! (in 6 steps) ****
    Final optimized geometry and variables:
    Molecular point group: c1

    Geometry (in Angstrom), charge = 0, multiplicity = 1:

    H           -1.433748131238    -1.846027747341     0.635067501137
    N           -0.627307650196    -1.273291933369     0.477720006855
    C           -1.023135293205    -0.012094323128    -0.142305376392
    H           -0.016750375349    -1.795644231074    -0.119925865966
    C            0.127937322459     1.018724645915    -0.184575423237
    H           -1.814306661144     0.378016392409     0.487966190360
    H           -1.433169050020    -0.147441788931    -1.143510661245
    C            1.537122487231     0.419233959597    -0.143803791118
    H            0.049303216051     1.581069479612    -1.111092548928
    H            0.023561810487     1.720571782071     0.636066477277
    H            1.714089796624    -0.245271523960    -0.986448165065
    H            2.279047093162     1.210016255830    -0.198135156671
    H            1.704719273600    -0.141246239078     0.766763909760

  Mulliken Charges: (a.u.)
   Center  Symbol    Alpha    Beta     Spin     Total
       1     H     0.33214  0.33214  0.00000  0.33572
       2     N     3.92362  3.92362  0.00000 -0.84725
       3     C     3.06457  3.06457  0.00000 -0.12915
       4     H     0.33352  0.33352  0.00000  0.33297
       5     C     3.15392  3.15392  0.00000 -0.30784
       6     H     0.41853  0.41853  0.00000  0.16294
       7     H     0.43166  0.43166  0.00000  0.13667
       8     C     3.24486  3.24486  0.00000 -0.48972
       9     H     0.42361  0.42361  0.00000  0.15277
      10     H     0.41802  0.41802  0.00000  0.16397
      11     H     0.42903  0.42903  0.00000  0.14194
      12     H     0.42078  0.42078  0.00000  0.15843
      13     H     0.40573  0.40573  0.00000  0.18854

   Total alpha = 17.00000, Total beta = 17.00000, Total charge = -0.00000
