  ==> Input File <==

--------------------------------------------------------------------------
set {
	reference rhf
	basis cc-pvtz
}

set_num_threads( 4 )
memory 2 gb

molecule MOL {
0 1

H	 2.499177	 0.742428	 0.001548
O	 2.063695	 -0.083403	 -0.105237
C	 0.742924	 0.005675	 0.350750
H	 0.731380	 0.039219	 1.440080
C	 -0.064076	 -1.193495	 -0.124425
C	 -0.047832	 1.190568	 -0.194462
H	 0.194729	 -1.376165	 -1.161308
H	 0.163013	 -2.094508	 0.429933
C	 -1.533112	 -0.752002	 0.006102
H	 0.148003	 1.266545	 -1.259275
H	 0.226235	 2.136493	 0.259722
C	 -1.506634	 0.799189	 0.067162
H	 -2.124360	 -1.110499	 -0.826089
H	 -1.983103	 -1.158030	 0.903403
H	 -2.183808	 1.252169	 -0.644677
H	 -1.813926	 1.138698	 1.049457

	symmetry c1
}
set optking {
	frozen_dihedral = ("
		1 2 3 6
	")
}

ee = optimize('scf')
oeprop('DIPOLE', 'QUADRUPOLE', 'MULLIKEN_CHARGES')
f=open( 'psi4out.xyz', 'w' )
f.write( "16  " )
f.write( str(ee) + "\n" )
f.write( MOL.save_string_xyz() )
f.close()
--------------------------------------------------------------------------

    Molecular point group: c1
  Charge       = 0
  Multiplicity = 1
  Basis Set: CC-PVTZ
  Basis Set:
  @DF-RHF Final Energy:  -270.11656581017746
    Total Energy =                       -270.1165658101771214
    Molecular point group: c1
  Basis Set: CC-PVTZ
  Basis Set:
  Basis Set: CC-PVTZ
  Basis Set:
  @DF-RHF Final Energy:  -270.11658216278124
    Total Energy =                       -270.1165821627811852
  Basis Set: CC-PVTZ
  Basis Set:
  Basis Set: CC-PVTZ
  Basis Set:
  @DF-RHF Final Energy:  -270.11658494967776
    Total Energy =                       -270.1165849496775877
  Basis Set: CC-PVTZ
  Basis Set:
  Charge       = 0
  Multiplicity = 1
  Basis Set: CC-PVTZ
  Basis Set:

    Orbital Energies (a.u.)
    -----------------------

    Doubly Occupied:

       1A    -20.545385     2A    -11.267029     3A    -11.216149
       4A    -11.213868     5A    -11.212686     6A    -11.207183
       7A     -1.365541     8A     -1.115688     9A     -0.967902
      10A     -0.949479    11A     -0.793089    12A     -0.777796
      13A     -0.700823    14A     -0.661006    15A     -0.617235
      16A     -0.594994    17A     -0.571076    18A     -0.527143
      19A     -0.503970    20A     -0.483023    21A     -0.471921
      22A     -0.457361    23A     -0.447451    24A     -0.424927

  @DF-RHF Final Energy:  -270.11658530560794

   => Energetics <=

    Nuclear Repulsion Energy =            255.6492371015470155
    One-Electron Energy =                -873.3461935330183223
    Two-Electron Energy =                 347.5803711258631665
    DFT Exchange-Correlation Energy =       0.0000000000000000
    Empirical Dispersion Energy =           0.0000000000000000
    PCM Polarization Energy =               0.0000000000000000
    EFP Energy =                            0.0000000000000000
    Total Energy =                       -270.1165853056081687
    Molecular point group: c1
  Basis Set: CC-PVTZ
  Basis Set:

  -Total Gradient:
     Atom            X                  Y                   Z
    ------   -----------------  -----------------  -----------------
       1       -0.000387695627     0.000371412773    -0.001194280775
       2        0.000617769462    -0.000260095018     0.001761051196
       3       -0.000474192071    -0.000576940499    -0.001270498810
       4       -0.000021431218     0.000006700329    -0.000000099447
       5        0.000035266096    -0.000011470788     0.000016483536
       6        0.000245988749     0.000463015000     0.000710988667
       7       -0.000007766419    -0.000004859255     0.000010911323
       8       -0.000003344712     0.000001653749     0.000003831872
       9       -0.000014773812     0.000014362641     0.000048181794
      10       -0.000009595203     0.000005895565    -0.000014688923
      11        0.000004189450     0.000004301668     0.000002398775
      12        0.000011417562    -0.000012023024    -0.000059354076
      13        0.000008942546     0.000007708302    -0.000018152396
      14       -0.000009170719    -0.000004367855    -0.000021111064
      15       -0.000016732735    -0.000003614682     0.000014105218
      16        0.000021128657    -0.000001678906     0.000010233110

  **** Optimization is complete! (in 4 steps) ****
    Final optimized geometry and variables:
    Molecular point group: c1

    Geometry (in Angstrom), charge = 0, multiplicity = 1:

    H            2.501704420157     0.742313974209     0.021590188347
    O            2.067699765938    -0.083051246019    -0.094761692856
    C            0.742283205210     0.003314800162     0.347965304461
    H            0.724518258662     0.038874191227     1.437450896264
    C           -0.064294878275    -1.195615754832    -0.127083175918
    C           -0.047127743536     1.189222534862    -0.195215949421
    H            0.188487904793    -1.375810193996    -1.165783113223
    H            0.164819168864    -2.097923423135     0.424333848763
    C           -1.532551201740    -0.753606285167     0.013056296585
    H            0.144357914207     1.268670212218    -1.261089685445
    H            0.228007653486     2.133524777360     0.262000880063
    C           -1.505905309043     0.797844221782     0.068653675306
    H           -2.129721740468    -1.114979807641    -0.813640725771
    H           -1.976024221319    -1.156292024465     0.914988218277
    H           -2.183351747940     1.248532309850    -0.644323868962
    H           -1.811861141718     1.141094212171     1.049900759358

  Mulliken Charges: (a.u.)
   Center  Symbol    Alpha    Beta     Spin     Total
       1     H     0.39422  0.39422  0.00000  0.21155
       2     O     4.20175  4.20175  0.00000 -0.40351
       3     C     2.92227  2.92227  0.00000  0.15546
       4     H     0.46575  0.46575  0.00000  0.06849
       5     C     3.10100  3.10100  0.00000 -0.20201
       6     C     3.10801  3.10801  0.00000 -0.21601
       7     H     0.45184  0.45184  0.00000  0.09632
       8     H     0.44276  0.44276  0.00000  0.11448
       9     C     3.11038  3.11038  0.00000 -0.22077
      10     H     0.45300  0.45300  0.00000  0.09400
      11     H     0.44813  0.44813  0.00000  0.10374
      12     C     3.11391  3.11391  0.00000 -0.22781
      13     H     0.44532  0.44532  0.00000  0.10936
      14     H     0.44840  0.44840  0.00000  0.10320
      15     H     0.44325  0.44325  0.00000  0.11350
      16     H     0.45000  0.45000  0.00000  0.10001

   Total alpha = 24.00000, Total beta = 24.00000, Total charge = -0.00000
