                              Psi4 1.0.54 Driver

  ==> Input File <==

--------------------------------------------------------------------------
set {
	reference rhf
	basis cc-pvtz
}

set_num_threads( 4 )
memory 2 gb

molecule MOL {
0 1

H	 -2.266619	 1.169943	 0.000098
O	 -1.438073	 1.611259	 0.000041
C	 -0.408657	 0.734701	 0.000005
C	 0.854367	 1.254643	 0.214106
C	 -0.595673	 -0.627450	 -0.204159
H	 0.957116	 2.310962	 0.367614
C	 1.950362	 0.418226	 0.227083
C	 0.523308	 -1.444198	 -0.185915
C	 -1.974625	 -1.193290	 -0.437651
H	 2.927823	 0.828988	 0.393895
C	 1.790529	 -0.939236	 0.026636
H	 0.395507	 -2.499298	 -0.342118
H	 -2.438169	 -0.772102	 -1.325371
H	 -1.929401	 -2.263904	 -0.576150
H	 -2.635707	 -1.004096	 0.403480
H	 2.638496	 -1.595928	 0.035389

	symmetry c1
}
set optking {
	frozen_dihedral = ("
		4 3 2 1
	")
}

ee,wfn = optimize('scf', return_wfn=True)
oeprop( wfn, 'DIPOLE', 'QUADRUPOLE', 'MULLIKEN_CHARGES')
f=open( 'psi4out.xyz', 'w' )
f.write( "16  " )
f.write( str(ee) + "\n" )
f.write( MOL.save_string_xyz() )
f.close()
--------------------------------------------------------------------------

    Molecular point group: c1
  Charge       = 0
  Multiplicity = 1
  Basis Set: CC-PVTZ
  Basis Set:
  @DF-RHF Final Energy:  -344.71921353420271
    Total Energy =                       -344.7192135342023676
    Molecular point group: c1
  Basis Set: CC-PVTZ
  Basis Set:
  Basis Set: CC-PVTZ
  Basis Set:
  @DF-RHF Final Energy:  -344.71922337917084
    Total Energy =                       -344.7192233791707281
  Basis Set: CC-PVTZ
  Basis Set:
  Basis Set: CC-PVTZ
  Basis Set:
  @DF-RHF Final Energy:  -344.71922568041134
    Total Energy =                       -344.7192256804111707
  Basis Set: CC-PVTZ
  Basis Set:
  Charge       = 0
  Multiplicity = 1
  Basis Set: CC-PVTZ
  Basis Set:

    Orbital Energies (a.u.)
    -----------------------

    Doubly Occupied:

       1A    -20.581518     2A    -11.291016     3A    -11.233565
       4A    -11.232392     5A    -11.228543     6A    -11.227294
       7A    -11.217557     8A    -11.216742     9A     -1.411989
      10A     -1.153425    11A     -1.051981    12A     -1.007887
      13A     -0.944060    14A     -0.828810    15A     -0.823793
      16A     -0.734644    17A     -0.680637    18A     -0.647503
      19A     -0.611792    20A     -0.604523    21A     -0.577538
      22A     -0.569743    23A     -0.561830    24A     -0.554219
      25A     -0.505465    26A     -0.485713    27A     -0.478490
      28A     -0.333830    29A     -0.309298

  @DF-RHF Final Energy:  -344.71922585658348

   => Energetics <=

    Nuclear Repulsion Energy =            351.0457109396133433
    One-Electron Energy =               -1163.3182779336457315
    Two-Electron Energy =                 467.5533411374487400
    DFT Exchange-Correlation Energy =       0.0000000000000000
    Empirical Dispersion Energy =           0.0000000000000000
    PCM Polarization Energy =               0.0000000000000000
    EFP Energy =                            0.0000000000000000
    Total Energy =                       -344.7192258565835914
    Molecular point group: c1
  Basis Set: CC-PVTZ
  Basis Set:

  -Total Gradient:
     Atom            X                  Y                   Z
    ------   -----------------  -----------------  -----------------
       1       -0.000006123234    -0.000002434549     0.000643132187
       2       -0.000009487977    -0.000013842430    -0.000606380403
       3        0.000053382514     0.000050466832    -0.000464253647
       4       -0.000020428344    -0.000062680400     0.000425767810
       5       -0.000009595828     0.000033300752    -0.000008037421
       6       -0.000003250068     0.000001613328     0.000009393002
       7       -0.000015493231     0.000038915856     0.000000130657
       8        0.000043878176    -0.000006766337    -0.000024422203
       9        0.000010540822     0.000000245596    -0.000040902745
      10       -0.000000563543    -0.000001681839    -0.000001739989
      11       -0.000032437462    -0.000034084564     0.000018634632
      12       -0.000002971177    -0.000000604829     0.000008007913
      13        0.000010853631     0.000007674268     0.000015188882
      14       -0.000002893618    -0.000003060593     0.000023655114
      15       -0.000017978307    -0.000009475714     0.000008114681
      16        0.000002567644     0.000002414622    -0.000006288471

  **** Optimization is complete! (in 4 steps) ****
    Final optimized geometry and variables:
    Molecular point group: c1

    Geometry (in Angstrom), charge = 0, multiplicity = 1:

    H           -2.269694943102     1.166442906590     0.026237302987
    O           -1.441253619365     1.608193596417     0.034551128276
    C           -0.411591015421     0.731193232126     0.049591659651
    C            0.849205065375     1.250198161964     0.276783165513
    C           -0.597166823324    -0.630594455932    -0.159193344065
    H            0.950623000932     2.305864802088     0.435602573190
    C            1.945496448317     0.413816342529     0.294632805736
    C            0.520993260602    -1.447845240670    -0.131481180579
    C           -1.973793145491    -1.194152811844    -0.410646095240
    H            2.921627313087     0.824064268223     0.470241585409
    C            1.786768178658    -0.943133398803     0.091516039527
    H            0.394448479819    -2.502638193353    -0.290683484235
    H           -2.433052263105    -0.752747989681    -1.289916361627
    H           -1.925940570051    -2.261741449208    -0.570299808716
    H           -2.640223260495    -1.025810963738     0.431426468341
    H            2.634524438209    -1.600034820153     0.105647442227

  Mulliken Charges: (a.u.)
   Center  Symbol    Alpha    Beta     Spin     Total
       1     H     0.38707  0.38707  0.00000  0.22586
       2     O     4.17214  4.17214  0.00000 -0.34428
       3     C     2.87348  2.87348  0.00000  0.25305
       4     C     3.11185  3.11185  0.00000 -0.22370
       5     C     3.01153  3.01153  0.00000 -0.02306
       6     H     0.42009  0.42009  0.00000  0.15982
       7     C     3.06539  3.06539  0.00000 -0.13077
       8     C     3.08342  3.08342  0.00000 -0.16683
       9     C     3.16479  3.16479  0.00000 -0.32957
      10     H     0.42250  0.42250  0.00000  0.15501
      11     C     3.09209  3.09209  0.00000 -0.18418
      12     H     0.42566  0.42566  0.00000  0.14868
      13     H     0.44674  0.44674  0.00000  0.10653
      14     H     0.44535  0.44535  0.00000  0.10930
      15     H     0.45286  0.45286  0.00000  0.09428
      16     H     0.42507  0.42507  0.00000  0.14987

   Total alpha = 29.00000, Total beta = 29.00000, Total charge =  0.00000

*** Psi4 exiting successfully. Buy a developer a beer!
