                              Psi4 1.0.54 Driver

  ==> Input File <==

--------------------------------------------------------------------------
set {
	reference rhf
	basis cc-pvtz
}

set_num_threads( 4 )
memory 2 gb

molecule MOL {
0 1

H	 -2.555405	 -0.339449	 0.428225
N	 -1.851927	 0.161443	 -0.071573
C	 -0.561396	 -0.500007	 0.035200
H	 -1.814092	 1.081360	 0.315283
C	 0.575129	 0.507849	 -0.048832
H	 -0.478089	 -1.200753	 -0.788956
H	 -0.456191	 -1.081816	 0.952176
C	 1.951750	 -0.141983	 0.035101
H	 0.478254	 1.061643	 -0.975981
H	 0.467676	 1.231891	 0.755499
H	 2.101550	 -0.848142	 -0.774949
H	 2.738260	 0.600794	 -0.026526
H	 2.078939	 -0.679792	 0.968824

	symmetry c1
}
set optking {
	frozen_dihedral = ("
		1 2 3 6
	")
}

ee,wfn = optimize('scf', return_wfn=True)
oeprop( wfn, 'DIPOLE', 'QUADRUPOLE', 'MULLIKEN_CHARGES')
f=open( 'psi4out.xyz', 'w' )
f.write( "13  " )
f.write( str(ee) + "\n" )
f.write( MOL.save_string_xyz() )
f.close()
--------------------------------------------------------------------------

    Molecular point group: c1
  Charge       = 0
  Multiplicity = 1
  Basis Set: CC-PVTZ
  Basis Set:
  @DF-RHF Final Energy:  -173.35038856085859
    Total Energy =                       -173.3503885608585051
    Molecular point group: c1
  Basis Set: CC-PVTZ
  Basis Set:
  Basis Set: CC-PVTZ
  Basis Set:
  @DF-RHF Final Energy:  -173.35052739344260
    Total Energy =                       -173.3505273934425475
  Basis Set: CC-PVTZ
  Basis Set:
  Basis Set: CC-PVTZ
  Basis Set:
  @DF-RHF Final Energy:  -173.35059672153756
    Total Energy =                       -173.3505967215375847
  Basis Set: CC-PVTZ
  Basis Set:
  Basis Set: CC-PVTZ
  Basis Set:
  @DF-RHF Final Energy:  -173.35059844896037
    Total Energy =                       -173.3505984489605112
  Basis Set: CC-PVTZ
  Basis Set:
  Charge       = 0
  Multiplicity = 1
  Basis Set: CC-PVTZ
  Basis Set:

    Orbital Energies (a.u.)
    -----------------------

    Doubly Occupied:

       1A    -15.526047     2A    -11.238147     3A    -11.215092
       4A    -11.209392     5A     -1.177963     6A     -1.038439
       7A     -0.900240     8A     -0.804812     9A     -0.648452
      10A     -0.644329    11A     -0.604417    12A     -0.559723
      13A     -0.541788    14A     -0.495471    15A     -0.478386
      16A     -0.469250    17A     -0.385175

  @DF-RHF Final Energy:  -173.35059858531241

   => Energetics <=

    Nuclear Repulsion Energy =            132.0782738331250243
    One-Electron Energy =                -494.9834969063675771
    Two-Electron Energy =                 189.5546244879301980
    DFT Exchange-Correlation Energy =       0.0000000000000000
    Empirical Dispersion Energy =           0.0000000000000000
    PCM Polarization Energy =               0.0000000000000000
    EFP Energy =                            0.0000000000000000
    Total Energy =                       -173.3505985853123548
    Molecular point group: c1
  Basis Set: CC-PVTZ
  Basis Set:

  -Total Gradient:
     Atom            X                  Y                   Z
    ------   -----------------  -----------------  -----------------
       1        0.000606149910     0.001902356026     0.002581322864
       2       -0.000460069693    -0.001901905050    -0.003643465367
       3       -0.001263081286    -0.002098552613     0.002852179720
       4       -0.000004593991     0.000016681063     0.000000124563
       5       -0.000010435195     0.000016047573     0.000011716181
       6        0.001116750052     0.002057229493    -0.001796213306
       7        0.000006705183     0.000004422254    -0.000007244648
       8        0.000002484475    -0.000005816049    -0.000001168522
       9        0.000000621602     0.000001193726     0.000004426529
      10        0.000005905388     0.000011159365    -0.000002970608
      11       -0.000000513341    -0.000000809369     0.000003406419
      12       -0.000005264557    -0.000002169224    -0.000001728375
      13        0.000005341455     0.000000162805    -0.000000385451

  **** Optimization is complete! (in 5 steps) ****
    Final optimized geometry and variables:
    Molecular point group: c1

    Geometry (in Angstrom), charge = 0, multiplicity = 1:

    H           -2.545137211059    -0.422302212680     0.495180556137
    N           -1.865295842790     0.078879929090    -0.036220246922
    C           -0.543341231877    -0.523412781392     0.096980684812
    H           -1.860404346065     1.007670125029     0.331441326006
    C            0.552085754173     0.519997042240    -0.074040627845
    H           -0.423238063500    -1.267059157197    -0.684521397183
    H           -0.408237037419    -1.028063957719     1.052084131305
    C            1.953162050110    -0.079732841468    -0.045882974200
    H            0.392572212033     1.039562627105    -1.013732415461
    H            0.461739751905     1.264982844295     0.713120106340
    H            2.086070391326    -0.801335800334    -0.844630284243
    H            2.708302857481     0.687983914392    -0.166000709127
    H            2.145319788027    -0.587387842085     0.893492868768

  Mulliken Charges: (a.u.)
   Center  Symbol    Alpha    Beta     Spin     Total
       1     H     0.43173  0.43173  0.00000  0.13654
       2     N     3.68702  3.68702  0.00000 -0.37405
       3     C     3.01505  3.01505  0.00000 -0.03010
       4     H     0.43256  0.43256  0.00000  0.13488
       5     C     3.08355  3.08355  0.00000 -0.16710
       6     H     0.46213  0.46213  0.00000  0.07574
       7     H     0.46878  0.46878  0.00000  0.06244
       8     C     3.15186  3.15186  0.00000 -0.30372
       9     H     0.44895  0.44895  0.00000  0.10211
      10     H     0.46053  0.46053  0.00000  0.07894
      11     H     0.45380  0.45380  0.00000  0.09239
      12     H     0.44779  0.44779  0.00000  0.10442
      13     H     0.45625  0.45625  0.00000  0.08750

   Total alpha = 17.00000, Total beta = 17.00000, Total charge = -0.00000

*** Psi4 exiting successfully. Buy a developer a beer!
