  ==> Input File <==

--------------------------------------------------------------------------
set {
	reference rhf
	basis 6-31G*
}

set_num_threads( 4 )
memory 2 gb

molecule MOL {
0 1

H	 -2.962336	 0.119956	 0.671128
O	 -2.347518	 -0.290803	 0.079804
C	 -1.184022	 0.487508	 -0.006784
C	 0.062599	 -0.378592	 0.031606
H	 -1.176523	 1.099369	 -0.904519
H	 -1.187323	 1.153111	 0.844927
O	 1.171513	 0.459272	 -0.058250
H	 0.050699	 -1.089204	 -0.797170
H	 0.078739	 -0.954914	 0.954740
C	 2.397842	 -0.198080	 -0.002151
H	 2.508049	 -0.905315	 -0.822092
H	 3.173794	 0.550865	 -0.078850
H	 2.517602	 -0.735921	 0.936026

	symmetry c1
}
set optking {
	frozen_dihedral = ("
		1 2 3 5
	")
}

ee = optimize('scf')
oeprop('DIPOLE', 'QUADRUPOLE', 'MULLIKEN_CHARGES')
f=open( 'psi4out.xyz', 'w' )
f.write( "13  " )
f.write( str(ee) + "\n" )
f.write( MOL.save_string_xyz() )
f.close()
--------------------------------------------------------------------------

    Molecular point group: c1
  Charge       = 0
  Multiplicity = 1
  Basis Set: 6-31G*
  Basis Set:
  @DF-RHF Final Energy:  -267.94839619271369
    Total Energy =                       -267.9483961927137443
    Molecular point group: c1
  Basis Set: 6-31G*
  Basis Set:
  Basis Set: 6-31G*
  Basis Set:
  @DF-RHF Final Energy:  -267.94962984814595
    Total Energy =                       -267.9496298481458894
  Basis Set: 6-31G*
  Basis Set:
  Basis Set: 6-31G*
  Basis Set:
  @DF-RHF Final Energy:  -267.94991036723803
    Total Energy =                       -267.9499103672383171
  Basis Set: 6-31G*
  Basis Set:
  Basis Set: 6-31G*
  Basis Set:
  @DF-RHF Final Energy:  -267.94991642499951
    Total Energy =                       -267.9499164249996284
  Basis Set: 6-31G*
  Basis Set:
  Charge       = 0
  Multiplicity = 1
  Basis Set: 6-31G*
  Basis Set:

    Orbital Energies (a.u.)
    -----------------------

    Doubly Occupied:

       1A    -20.558621     2A    -20.558147     3A    -11.269027
       4A    -11.267198     5A    -11.265896     6A     -1.384997
       7A     -1.363029     8A     -1.017778     9A     -0.911139
      10A     -0.832043    11A     -0.711285    12A     -0.679794
      13A     -0.641459    14A     -0.640350    15A     -0.610132
      16A     -0.550396    17A     -0.542630    18A     -0.493398
      19A     -0.473792    20A     -0.438515    21A     -0.418122

  @DF-RHF Final Energy:  -267.94991741738272

   => Energetics <=

    Nuclear Repulsion Energy =            190.3376291329782077
    One-Electron Energy =                -743.3195948680852325
    Two-Electron Energy =                 285.0320483177243887
    DFT Exchange-Correlation Energy =       0.0000000000000000
    Empirical Dispersion Energy =           0.0000000000000000
    PCM Polarization Energy =               0.0000000000000000
    EFP Energy =                            0.0000000000000000
    Total Energy =                       -267.9499174173826077
    Molecular point group: c1
  Basis Set: 6-31G*
  Basis Set:

  -Total Gradient:
     Atom            X                  Y                   Z
    ------   -----------------  -----------------  -----------------
       1        0.000463742916    -0.000587543549     0.000988433652
       2       -0.000402218482     0.000549480947    -0.001354678439
       3       -0.000654369779     0.000803970055     0.000872853988
       4       -0.000003758149     0.000003643917    -0.000015547329
       5        0.000578934667    -0.000799130487    -0.000484578646
       6        0.000010159494    -0.000007007267    -0.000002402070
       7        0.000035915972     0.000019873205    -0.000009763391
       8       -0.000001288217     0.000001934606    -0.000001917893
       9       -0.000022407224     0.000009324942     0.000003074010
      10        0.000000411460     0.000005373587     0.000006736399
      11       -0.000006181671     0.000002174479    -0.000000010698
      12        0.000000371867     0.000000182062    -0.000001028800
      13        0.000000687142    -0.000002276497    -0.000001170783

  **** Optimization is complete! (in 5 steps) ****
    Final optimized geometry and variables:
    Molecular point group: c1

    Geometry (in Angstrom), charge = 0, multiplicity = 1:

    H           -2.982367402702     0.045322438205     0.567415389049
    O           -2.307751379997    -0.336462169120     0.027262577220
    C           -1.180083584407     0.501796762426    -0.007837874510
    C            0.055561204974    -0.373389967471     0.041032918313
    H           -1.166871637456     1.084364367751    -0.923265783899
    H           -1.165168584876     1.191021070521     0.830536048102
    O            1.171804770965     0.456815129872    -0.055061747619
    H            0.027873029742    -1.086927186634    -0.780381759841
    H            0.069029936004    -0.939696804978     0.970594249300
    C            2.390494543162    -0.216255194483    -0.042017664747
    H            2.471322964264    -0.907857383298    -0.878232223589
    H            3.174166043771     0.524468254523    -0.122499692947
    H            2.526599000872    -0.774787737898     0.882076217527

  Mulliken Charges: (a.u.)
   Center  Symbol    Alpha    Beta     Spin     Total
       1     H     0.27749  0.27749  0.00000  0.44502
       2     O     4.37530  4.37530  0.00000 -0.75059
       3     C     3.00419  3.00419  0.00000 -0.00838
       4     C     2.99134  2.99134  0.00000  0.01731
       5     H     0.41872  0.41872  0.00000  0.16257
       6     H     0.42414  0.42414  0.00000  0.15172
       7     O     4.30952  4.30952  0.00000 -0.61903
       8     H     0.42332  0.42332  0.00000  0.15335
       9     H     0.42765  0.42765  0.00000  0.14469
      10     C     3.07945  3.07945  0.00000 -0.15889
      11     H     0.42814  0.42814  0.00000  0.14372
      12     H     0.41175  0.41175  0.00000  0.17650
      13     H     0.42899  0.42899  0.00000  0.14202

   Total alpha = 21.00000, Total beta = 21.00000, Total charge =  0.00000
