                              Psi4 1.0.54 Driver

  ==> Input File <==

--------------------------------------------------------------------------
set {
	reference rhf
	basis cc-pvtz
}

set_num_threads( 4 )
memory 2 gb

molecule MOL {
0 1

H	 2.614283	 2.028610	 0.296620
O	 3.358864	 1.662087	 -0.142800
C	 3.565468	 0.338079	 0.273842
C	 2.533667	 -0.637565	 -0.272227
H	 4.548038	 0.064914	 -0.086598
H	 3.593945	 0.282242	 1.360360
C	 2.985087	 -1.395369	 -1.518743
H	 2.276774	 -1.343400	 0.511968
H	 1.630705	 -0.076136	 -0.499944
C	 1.911775	 -2.340388	 -2.057052
H	 3.882220	 -1.960690	 -1.289470
H	 3.254588	 -0.682170	 -2.295919
C	 2.282963	 -3.071227	 -3.348698
H	 1.662084	 -3.070331	 -1.290851
H	 1.005723	 -1.767781	 -2.234984
C	 3.415769	 -4.087280	 -3.214051
H	 1.399090	 -3.586067	 -3.715081
H	 2.543729	 -2.340981	 -4.111519
C	 3.681558	 -4.859913	 -4.503548
H	 3.173501	 -4.790144	 -2.419849
H	 4.331040	 -3.588403	 -2.910071
C	 4.814489	 -5.872581	 -4.373681
H	 2.773477	 -5.373086	 -4.807884
H	 3.915469	 -4.158572	 -5.300083
H	 4.596155	 -6.607797	 -3.606201
H	 4.974845	 -6.404545	 -5.304490
H	 5.746655	 -5.385542	 -4.106826

	symmetry c1
}
set optking {
	frozen_dihedral = ("
		8 4 3 2
	")
}

ee,wfn = optimize('scf', return_wfn=True)
oeprop( wfn, 'DIPOLE', 'QUADRUPOLE', 'MULLIKEN_CHARGES')
f=open( 'psi4out.xyz', 'w' )
f.write( "27  " )
f.write( str(ee) + "\n" )
f.write( MOL.save_string_xyz() )
f.close()
--------------------------------------------------------------------------

    Molecular point group: c1
  Charge       = 0
  Multiplicity = 1
  Basis Set: CC-PVTZ
  Basis Set:
  @DF-RHF Final Energy:  -388.42360349335428
    Total Energy =                       -388.4236034933544488
    Molecular point group: c1
  Basis Set: CC-PVTZ
  Basis Set:
  Basis Set: CC-PVTZ
  Basis Set:
  @DF-RHF Final Energy:  -388.42399877632181
    Total Energy =                       -388.4239987763222643
  Basis Set: CC-PVTZ
  Basis Set:
  Basis Set: CC-PVTZ
  Basis Set:
  @DF-RHF Final Energy:  -388.42405804487908
    Total Energy =                       -388.4240580448788478
  Basis Set: CC-PVTZ
  Basis Set:
  Basis Set: CC-PVTZ
  Basis Set:
  @DF-RHF Final Energy:  -388.42406135693835
    Total Energy =                       -388.4240613569381821
  Basis Set: CC-PVTZ
  Basis Set:
  Charge       = 0
  Multiplicity = 1
  Basis Set: CC-PVTZ
  Basis Set:

    Orbital Energies (a.u.)
    -----------------------

    Doubly Occupied:

       1A    -20.544689     2A    -11.265124     3A    -11.214619
       4A    -11.212267     5A    -11.211776     6A    -11.211662
       7A    -11.210582     8A    -11.209393     9A    -11.205545
      10A     -1.362703    11A     -1.093719    12A     -1.060573
      13A     -1.010170    14A     -0.945133    15A     -0.884189
      16A     -0.824145    17A     -0.803534    18A     -0.776677
      19A     -0.685177    20A     -0.650168    21A     -0.636545
      22A     -0.613086    23A     -0.609592    24A     -0.583141
      25A     -0.575684    26A     -0.557462    27A     -0.536699
      28A     -0.522331    29A     -0.511999    30A     -0.489449
      31A     -0.481127    32A     -0.475770    33A     -0.464785
      34A     -0.459196    35A     -0.454851    36A     -0.442148
      37A     -0.419951

  @DF-RHF Final Energy:  -388.42406180142086

   => Energetics <=

    Nuclear Repulsion Energy =            456.1504587440527985
    One-Electron Energy =               -1430.7177244637346121
    Two-Electron Energy =                 586.1432039182600420
    DFT Exchange-Correlation Energy =       0.0000000000000000
    Empirical Dispersion Energy =           0.0000000000000000
    PCM Polarization Energy =               0.0000000000000000
    EFP Energy =                            0.0000000000000000
    Total Energy =                       -388.4240618014217716
    Molecular point group: c1
  Basis Set: CC-PVTZ
  Basis Set:

  -Total Gradient:
     Atom            X                  Y                   Z
    ------   -----------------  -----------------  -----------------
       1       -0.000070481123     0.000042570345     0.000006556750
       2       -0.002010609839     0.000601166103     0.002985262220
       3        0.002068528335    -0.000389295552    -0.003691203808
       4        0.003607582287    -0.003333924741    -0.000697833970
       5       -0.000022263578     0.000037743181    -0.000037059479
       6       -0.000014155714     0.000118331503     0.000015066076
       7       -0.000078965263     0.000021493584     0.000080549339
       8       -0.003375146754     0.002826823417     0.001335788911
       9       -0.000092950345     0.000034133246    -0.000028772426
      10        0.000025031389     0.000013995265    -0.000019111674
      11        0.000014215436    -0.000025316165     0.000006788766
      12       -0.000027652772     0.000050608523     0.000028878262
      13       -0.000036023413    -0.000054219401     0.000001265066
      14       -0.000010111705     0.000017759472    -0.000021009450
      15        0.000013354121     0.000007554265    -0.000005814244
      16       -0.000007542770    -0.000003195065     0.000013636847
      17        0.000000429572    -0.000015732733    -0.000001962838
      18       -0.000015508446     0.000006051210     0.000001704444
      19        0.000012725737     0.000008945489    -0.000005112333
      20       -0.000000880607     0.000001601783    -0.000006506496
      21        0.000024387640     0.000027266740     0.000036578339
      22       -0.000004804693     0.000002778449     0.000003403561
      23       -0.000001457826    -0.000000485686     0.000004541227
      24       -0.000001287716     0.000005673344    -0.000009047079
      25        0.000001137356    -0.000004752660     0.000003533916
      26       -0.000001818323     0.000001313714    -0.000000818538
      27        0.000004269013     0.000001112375     0.000000698615

  **** Optimization is complete! (in 5 steps) ****
    Final optimized geometry and variables:
    Molecular point group: c1

    Geometry (in Angstrom), charge = 0, multiplicity = 1:

    H           -0.619949298238     4.146576618935     2.286440666060
    O            0.197764763717     3.821452903966     1.957189451748
    C            0.399853917051     2.507069350880     2.407323862684
    C           -0.637416205064     1.516863121532     1.867590682683
    H            1.395128666705     2.231713029014     2.085606511288
    H            0.399375546364     2.490608176319     3.493921493333
    C           -0.195544634965     0.775305295746     0.610296305917
    H           -0.918959668656     0.818415194464     2.650567593918
    H           -1.544773175506     2.075805372285     1.649744276044
    C           -1.278075083360    -0.140578841468     0.043661394850
    H            0.696423096936     0.200812456490     0.839174845817
    H            0.091887741376     1.504482895999    -0.142835124882
    C           -0.906819376587    -0.847428436088    -1.261344920436
    H           -1.546688330227    -0.884740865008     0.790287503228
    H           -2.173820800295     0.449709187816    -0.129252741584
    C            0.216939710487    -1.875250644840    -1.142037857785
    H           -1.792762295700    -1.346904427374    -1.643818683996
    H           -0.635165761615    -0.102935465757    -2.006033466316
    C            0.487243752343    -2.619076038690    -2.447352237187
    H           -0.037377438408    -2.595229203009    -0.366970622901
    H            1.133079973390    -1.390509600590    -0.819016339488
    C            1.611615405812    -3.643020685458    -2.332888178933
    H           -0.422084128606    -3.117998331812    -2.771188413297
    H            0.732883211924    -1.900689231949    -3.224791864775
    H            1.381434795688    -4.395203757859    -1.585494336122
    H            1.776132325614    -4.153345937111    -3.275018027708
    H            2.544838790057    -3.169464320254    -2.046406900553

  Mulliken Charges: (a.u.)
   Center  Symbol    Alpha    Beta     Spin     Total
       1     H     0.39461  0.39461  0.00000  0.21078
       2     O     4.20482  4.20482  0.00000 -0.40965
       3     C     2.97153  2.97153  0.00000  0.05695
       4     C     3.09360  3.09360  0.00000 -0.18719
       5     H     0.45923  0.45923  0.00000  0.08153
       6     H     0.46529  0.46529  0.00000  0.06942
       7     C     3.09577  3.09577  0.00000 -0.19153
       8     H     0.45275  0.45275  0.00000  0.09449
       9     H     0.46135  0.46135  0.00000  0.07729
      10     C     3.10052  3.10052  0.00000 -0.20105
      11     H     0.45247  0.45247  0.00000  0.09507
      12     H     0.44782  0.44782  0.00000  0.10436
      13     C     3.09756  3.09756  0.00000 -0.19512
      14     H     0.45433  0.45433  0.00000  0.09134
      15     H     0.44776  0.44776  0.00000  0.10448
      16     C     3.08811  3.08811  0.00000 -0.17622
      17     H     0.44879  0.44879  0.00000  0.10241
      18     H     0.45298  0.45298  0.00000  0.09404
      19     C     3.08397  3.08397  0.00000 -0.16795
      20     H     0.45562  0.45562  0.00000  0.08875
      21     H     0.45342  0.45342  0.00000  0.09316
      22     C     3.14976  3.14976  0.00000 -0.29952
      23     H     0.45426  0.45426  0.00000  0.09148
      24     H     0.45430  0.45430  0.00000  0.09141
      25     H     0.45552  0.45552  0.00000  0.08897
      26     H     0.44849  0.44849  0.00000  0.10302
      27     H     0.45536  0.45536  0.00000  0.08927

   Total alpha = 37.00000, Total beta = 37.00000, Total charge =  0.00000

*** Psi4 exiting successfully. Buy a developer a beer!
