                              Psi4 1.0.54 Driver

  ==> Input File <==

--------------------------------------------------------------------------
set {
	reference rhf
	basis cc-pvtz
}

set_num_threads( 4 )
memory 2 gb

molecule MOL {
0 1

H	 -4.024094	 -0.454727	 0.000004
C	 -2.962215	 -0.297920	 0.000004
C	 -2.454736	 0.988978	 0.000025
C	 -2.105837	 -1.382632	 -0.000016
H	 -3.120052	 1.830438	 0.000041
C	 -1.090106	 1.189676	 0.000026
H	 -2.500390	 -2.380229	 -0.000033
C	 -0.739175	 -1.183302	 -0.000016
H	 -0.680214	 2.179144	 0.000042
C	 -0.227341	 0.104540	 0.000006
H	 -0.073209	 -2.021168	 -0.000032
C	 1.238974	 0.374429	 0.000004
O	 1.916875	 -0.446296	 -0.780283
O	 1.750903	 1.235945	 0.633170
C	 3.317933	 -0.266002	 -0.844257
H	 3.557321	 0.718687	 -1.216354
H	 3.682392	 -1.020324	 -1.522310
H	 3.762029	 -0.393821	 0.131366

	symmetry c1
}
set optking {
	frozen_dihedral = ("
		13 12 10 6
	")
}

ee,wfn = optimize('scf', return_wfn=True)
oeprop( wfn, 'DIPOLE', 'QUADRUPOLE', 'MULLIKEN_CHARGES')
f=open( 'psi4out.xyz', 'w' )
f.write( "18  " )
f.write( str(ee) + "\n" )
f.write( MOL.save_string_xyz() )
f.close()
--------------------------------------------------------------------------

    Molecular point group: c1
  Charge       = 0
  Multiplicity = 1
  Basis Set: CC-PVTZ
  Basis Set:
  @DF-RHF Final Energy:  -457.50606525723424
    Total Energy =                       -457.5060652572343542
    Molecular point group: c1
  Basis Set: CC-PVTZ
  Basis Set:
  Basis Set: CC-PVTZ
  Basis Set:
  @DF-RHF Final Energy:  -457.50349592382872
    Total Energy =                       -457.5034959238294050
  Basis Set: CC-PVTZ
  Basis Set:
  Basis Set: CC-PVTZ
  Basis Set:
  @DF-RHF Final Energy:  -457.50626212359413
    Total Energy =                       -457.5062621235944107
  Basis Set: CC-PVTZ
  Basis Set:
  Basis Set: CC-PVTZ
  Basis Set:
  @DF-RHF Final Energy:  -457.50641960033039
    Total Energy =                       -457.5064196003306733
  Basis Set: CC-PVTZ
  Basis Set:
  Basis Set: CC-PVTZ
  Basis Set:
  @DF-RHF Final Energy:  -457.50644255228650
    Total Energy =                       -457.5064425522861029
  Basis Set: CC-PVTZ
  Basis Set:
  Charge       = 0
  Multiplicity = 1
  Basis Set: CC-PVTZ
  Basis Set:

    Orbital Energies (a.u.)
    -----------------------

    Doubly Occupied:

       1A    -20.602239     2A    -20.536566     3A    -11.372421
       4A    -11.281635     5A    -11.246950     6A    -11.242814
       7A    -11.241671     8A    -11.241143     9A    -11.237057
      10A    -11.236400    11A     -1.477877    12A     -1.369822
      13A     -1.171515    14A     -1.052454    15A     -1.029629
      16A     -0.981097    17A     -0.863179    18A     -0.840381
      19A     -0.782179    20A     -0.743699    21A     -0.688106
      22A     -0.682601    23A     -0.679081    24A     -0.633461
      25A     -0.632641    26A     -0.600831    27A     -0.591195
      28A     -0.559071    29A     -0.535232    30A     -0.519912
      31A     -0.511854    32A     -0.504384    33A     -0.463675
      34A     -0.449514    35A     -0.349241    36A     -0.347055

  @DF-RHF Final Energy:  -457.50644380390668

   => Energetics <=

    Nuclear Repulsion Energy =            493.7233844489537660
    One-Electron Energy =               -1601.8624973926298480
    Two-Electron Energy =                 650.6326691397691775
    DFT Exchange-Correlation Energy =       0.0000000000000000
    Empirical Dispersion Energy =           0.0000000000000000
    PCM Polarization Energy =               0.0000000000000000
    EFP Energy =                            0.0000000000000000
    Total Energy =                       -457.5064438039069046
    Molecular point group: c1
  Basis Set: CC-PVTZ
  Basis Set:

  -Total Gradient:
     Atom            X                  Y                   Z
    ------   -----------------  -----------------  -----------------
       1       -0.000001986563     0.000007510176    -0.000005176260
       2        0.000016782969    -0.000090539375     0.000025646631
       3        0.000076651829     0.000061405288    -0.000005249038
       4       -0.000083314501     0.000029594790    -0.000020245057
       5       -0.000010505291    -0.000003851345    -0.000002311460
       6       -0.000169573346    -0.000041850445    -0.004529883977
       7        0.000003526029    -0.000001317722     0.000002009701
       8        0.000036248044     0.000066036542     0.000015895773
       9        0.000008363316    -0.000004541109     0.000000638810
      10       -0.000152927106     0.000931090302     0.005346561222
      11       -0.000006850119    -0.000001619000    -0.000002483151
      12        0.000738252592    -0.003795953213     0.002637695814
      13       -0.000582984112     0.002960054394    -0.003391459421
      14        0.000072603280    -0.000101200555    -0.000071670707
      15        0.000049200865    -0.000036905688     0.000003462385
      16       -0.000013818836     0.000007009427    -0.000002444783
      17        0.000019804567     0.000012797226    -0.000000286533
      18        0.000000526386     0.000002280306    -0.000000699948

  **** Optimization is complete! (in 6 steps) ****
    Final optimized geometry and variables:
    Molecular point group: c1

    Geometry (in Angstrom), charge = 0, multiplicity = 1:

    H           -4.009623300576    -0.513113321054     0.086355498526
    C           -2.949010108155    -0.349145930123     0.099715257280
    C           -2.450097919735     0.940303292701     0.108135755197
    C           -2.084313898811    -1.427779097145     0.102920309067
    H           -3.120855567247     1.777492672306     0.095583444565
    C           -1.086119210449     1.151506915080     0.135076810293
    H           -2.471439686803    -2.428324217305     0.093337559401
    C           -0.719412856416    -1.218129313843     0.105300928369
    H           -0.687150971778     2.146084841584     0.158030761796
    C           -0.218936811869     0.072291295161     0.142909246852
    H           -0.045896602467    -2.051442717994     0.082078493768
    C            1.248702347127     0.341309756417     0.124658549581
    O            1.907968696152    -0.496976501098    -0.652357949811
    O            1.764207514373     1.237695495566     0.702325732830
    C            3.310387654489    -0.331980319594    -0.735759723862
    H            3.553569205334     0.640292658217    -1.137012927892
    H            3.660882416203    -1.107206760253    -1.397284436721
    H            3.764936574486    -0.436602041888     0.238130261246

  Mulliken Charges: (a.u.)
   Center  Symbol    Alpha    Beta     Spin     Total
       1     H     0.42077  0.42077  0.00000  0.15845
       2     C     3.07544  3.07544  0.00000 -0.15088
       3     C     3.07045  3.07045  0.00000 -0.14091
       4     C     3.07068  3.07068  0.00000 -0.14136
       5     H     0.42096  0.42096  0.00000  0.15807
       6     C     3.08771  3.08771  0.00000 -0.17542
       7     H     0.42170  0.42170  0.00000  0.15660
       8     C     3.08605  3.08605  0.00000 -0.17209
       9     H     0.41169  0.41169  0.00000  0.17662
      10     C     2.95913  2.95913  0.00000  0.08174
      11     H     0.41770  0.41770  0.00000  0.16461
      12     C     2.82112  2.82112  0.00000  0.35775
      13     O     4.14489  4.14489  0.00000 -0.28977
      14     O     4.20557  4.20557  0.00000 -0.41115
      15     C     3.03676  3.03676  0.00000 -0.07353
      16     H     0.45179  0.45179  0.00000  0.09642
      17     H     0.44394  0.44394  0.00000  0.11211
      18     H     0.45364  0.45364  0.00000  0.09272

   Total alpha = 36.00000, Total beta = 36.00000, Total charge = -0.00000

*** Psi4 exiting successfully. Buy a developer a beer!
