                              Psi4 1.0.54 Driver

  ==> Input File <==

--------------------------------------------------------------------------
set {
	reference rhf
	basis cc-pvtz
}

set_num_threads( 4 )
memory 2 gb

molecule MOL {
0 1

H	 2.339712	 -0.109558	 -0.003390
O	 1.584128	 -0.677498	 -0.001533
C	 0.490160	 0.078130	 0.002623
C	 -0.763481	 -0.753968	 0.000816
O	 0.539232	 1.259441	 -0.000088
C	 -2.037820	 0.074751	 -0.000833
H	 -0.712764	 -1.405840	 -0.864342
H	 -0.714956	 -1.405724	 0.866182
H	 -2.087086	 0.710877	 -0.874232
H	 -2.903238	 -0.576153	 -0.001922
H	 -2.089286	 0.710955	 0.872389

	symmetry c1
}
ee,wfn = energy('scf', return_wfn=True)
oeprop( wfn, 'DIPOLE', 'QUADRUPOLE', 'MULLIKEN_CHARGES')
oeprop( wfn, 'GRID_ESP')
f=open( 'psi4out.xyz', 'w' )
f.write( "11  " )
f.write( str(ee) + "\n" )
f.write( MOL.save_string_xyz() )
f.close()
--------------------------------------------------------------------------

    Molecular point group: c1

    Geometry (in Angstrom), charge = 0, multiplicity = 1:

       Center              X                  Y                   Z               Mass
    ------------   -----------------  -----------------  -----------------  -----------------
           H          2.339531142620    -0.109603939200    -0.003389833236     1.007825032070
           O          1.583947142620    -0.677543939200    -0.001532833236    15.994914619560
           C          0.489979142620     0.078084060800     0.002623166764    12.000000000000
           C         -0.763661857380    -0.754013939200     0.000816166764    12.000000000000
           O          0.539051142620     1.259395060800    -0.000087833236    15.994914619560
           C         -2.038000857380     0.074705060800    -0.000832833236    12.000000000000
           H         -0.712944857380    -1.405885939200    -0.864341833236     1.007825032070
           H         -0.715136857380    -1.405769939200     0.866182166764     1.007825032070
           H         -2.087266857380     0.710831060800    -0.874231833236     1.007825032070
           H         -2.903418857380    -0.576198939200    -0.001921833236     1.007825032070
           H         -2.089466857380     0.710909060800     0.872389166764     1.007825032070

  Charge       = 0
  Multiplicity = 1
  Basis Set: CC-PVTZ
  Basis Set:

    Orbital Energies (a.u.)
    -----------------------

    Doubly Occupied:

       1A    -20.605174     2A    -20.541673     3A    -11.374392
       4A    -11.242825     5A    -11.218720     6A     -1.478760
       7A     -1.370366     8A     -1.066522     9A     -0.918893
      10A     -0.803686    11A     -0.705847    12A     -0.693665
      13A     -0.665732    14A     -0.597633    15A     -0.596721
      16A     -0.534008    17A     -0.527116    18A     -0.505848
      19A     -0.485427    20A     -0.448999

  @DF-RHF Final Energy:  -266.95331708828326

   => Energetics <=

    Nuclear Repulsion Energy =            180.1822916406734691
    One-Electron Energy =                -721.5069585332053066
    Two-Electron Energy =                 274.3713498042485526
    DFT Exchange-Correlation Energy =       0.0000000000000000
    Empirical Dispersion Energy =           0.0000000000000000
    PCM Polarization Energy =               0.0000000000000000
    EFP Energy =                            0.0000000000000000
    Total Energy =                       -266.9533170882832565

  Mulliken Charges: (a.u.)
   Center  Symbol    Alpha    Beta     Spin     Total
       1     H     0.38188  0.38188  0.00000  0.23624
       2     O     4.16033  4.16033  0.00000 -0.32065
       3     C     2.80303  2.80303  0.00000  0.39394
       4     C     3.10136  3.10136  0.00000 -0.20272
       5     O     4.19058  4.19058  0.00000 -0.38117
       6     C     3.13891  3.13891  0.00000 -0.27781
       7     H     0.43921  0.43921  0.00000  0.12159
       8     H     0.43937  0.43937  0.00000  0.12125
       9     H     0.44781  0.44781  0.00000  0.10438
      10     H     0.44967  0.44967  0.00000  0.10066
      11     H     0.44786  0.44786  0.00000  0.10429

   Total alpha = 20.00000, Total beta = 20.00000, Total charge =  0.00000

*** Psi4 exiting successfully. Buy a developer a beer!
