  ==> Input File <==

--------------------------------------------------------------------------
set {
	reference rhf
	basis 6-31G*
}

set_num_threads( 1 )
memory 2 gb

molecule MOL {
0 1

H	 -2.646374	 -0.642757	 1.268656
C	 -2.083525	 -0.384536	 0.393091
O	 -0.807605	 -0.127164	 0.768327
F	 -2.118945	 -1.383102	 -0.486752
F	 -2.621877	 0.670592	 -0.209486
C	 0.084052	 0.273579	 -0.209957
C	 0.229868	 1.784771	 -0.086678
Cl	 -0.506220	 -0.166854	 -1.820799
H	 1.055821	 -0.171331	 -0.085482
F	 1.079153	 2.239182	 -0.983541
F	 0.706327	 2.068954	 1.109008
F	 -0.914550	 2.406052	 -0.235983

	symmetry c1
}
set optking {
	frozen_dihedral = ("
		10 7 6 9,
		6 3 2 4
	")
}

ee = energy('scf')
oeprop('DIPOLE', 'QUADRUPOLE', 'MULLIKEN_CHARGES')
f=open( 'psi4out.xyz', 'w' )
f.write( "12  " )
f.write( str(ee) + "\n" )
f.write( MOL.save_string_xyz() )
f.close()
--------------------------------------------------------------------------

    Molecular point group: c1

    Geometry (in Angstrom), charge = 0, multiplicity = 1:

       Center              X                  Y                   Z               Mass
    ------------   -----------------  -----------------  -----------------  -----------------
           H         -1.956160682651    -1.324487504326     1.618487815898     1.007825032070
           C         -1.393311682651    -1.066266504326     0.742922815898    12.000000000000
           O         -0.117391682651    -0.808894504326     1.118158815898    15.994914619560
           F         -1.428731682651    -2.064832504326    -0.136920184102    18.998403224000
           F         -1.931663682651    -0.011138504326     0.140345815898    18.998403224000
           C          0.774265317349    -0.408151504326     0.139874815898    12.000000000000
           C          0.920081317349     1.103040495674     0.263153815898    12.000000000000
          CL          0.183993317349    -0.848584504326    -1.470967184102    34.968852682000
           H          1.746034317349    -0.853061504326     0.264349815898     1.007825032070
           F          1.769366317349     1.557451495674    -0.633709184102    18.998403224000
           F          1.396540317349     1.387223495674     1.458839815898    18.998403224000
           F         -0.224336682651     1.724321495674     0.113848815898    18.998403224000

  Charge       = 0
  Multiplicity = 1
  Basis Set: 6-31G*
  Basis Set:

    Orbital Energies (a.u.)
    -----------------------

    Doubly Occupied:

       1A   -104.832867     2A    -26.355895     3A    -26.355632
       4A    -26.352429     5A    -26.332994     6A    -26.330486
       7A    -20.646594     8A    -11.521519     9A    -11.482939
      10A    -11.398294    11A    -10.569488    12A     -8.038715
      13A     -8.035190    14A     -8.034977    15A     -1.757565
      16A     -1.708832    17A     -1.653643    18A     -1.653102
      19A     -1.627923    20A     -1.484157    21A     -1.176793
      22A     -1.050948    23A     -0.984836    24A     -0.911589
      25A     -0.850936    26A     -0.846813    27A     -0.841576
      28A     -0.831018    29A     -0.801924    30A     -0.765425
      31A     -0.731593    32A     -0.720062    33A     -0.704197
      34A     -0.691865    35A     -0.675761    36A     -0.667521
      37A     -0.660107    38A     -0.654769    39A     -0.641738
      40A     -0.629983    41A     -0.600371    42A     -0.555495
      43A     -0.531473    44A     -0.461723    45A     -0.456869

  @DF-RHF Final Energy: -1146.28110474588266

   => Energetics <=

    Nuclear Repulsion Energy =            773.2178821038385195
    One-Electron Energy =               -3129.7607867093047389
    Two-Electron Energy =                1210.2617998595844711
    DFT Exchange-Correlation Energy =       0.0000000000000000
    Empirical Dispersion Energy =           0.0000000000000000
    PCM Polarization Energy =               0.0000000000000000
    EFP Energy =                            0.0000000000000000
    Total Energy =                      -1146.2811047458815210

  Mulliken Charges: (a.u.)
   Center  Symbol    Alpha    Beta     Spin     Total
       1     H     0.39800  0.39800  0.00000  0.20400
       2     C     2.56327  2.56327  0.00000  0.87347
       3     O     4.30675  4.30675  0.00000 -0.61349
       4     F     4.68386  4.68386  0.00000 -0.36773
       5     F     4.68411  4.68411  0.00000 -0.36821
       6     C     3.04660  3.04660  0.00000 -0.09321
       7     C     2.43325  2.43325  0.00000  1.13350
       8    CL     8.49925  8.49925  0.00000  0.00151
       9     H     0.36567  0.36567  0.00000  0.26867
      10     F     4.67458  4.67458  0.00000 -0.34916
      11     F     4.67681  4.67681  0.00000 -0.35362
      12     F     4.66786  4.66786  0.00000 -0.33572

   Total alpha = 45.00000, Total beta = 45.00000, Total charge =  0.00000
