  ==> Input File <==

--------------------------------------------------------------------------
set {
	reference rhf
	basis cc-pvtz
}

set_num_threads( 4 )
memory 2 gb

molecule MOL {
0 1

H	 0.027562	 4.094352	 0.860125
O	 -0.141020	 3.809030	 -0.019121
C	 -0.147365	 2.410378	 -0.081343
C	 1.254179	 1.842965	 0.025940
H	 -0.774487	 1.979349	 0.692647
H	 -0.573147	 2.139046	 -1.036733
O	 1.172093	 0.457955	 -0.054438
H	 1.706602	 2.145107	 0.971942
H	 1.871559	 2.245586	 -0.774256
C	 2.395478	 -0.199028	 -0.000366
H	 2.505946	 -0.901710	 -0.823354
H	 3.174616	 0.545641	 -0.071768
H	 2.513730	 -0.742241	 0.934223

	symmetry c1
}
set optking {
	frozen_dihedral = ("
		4 7 10 13
	")
}

ee = optimize('scf')
oeprop('DIPOLE', 'QUADRUPOLE', 'MULLIKEN_CHARGES')
f=open( 'psi4out.xyz', 'w' )
f.write( "13  " )
f.write( str(ee) + "\n" )
f.write( MOL.save_string_xyz() )
f.close()
--------------------------------------------------------------------------

    Molecular point group: c1
  Charge       = 0
  Multiplicity = 1
  Basis Set: CC-PVTZ
  Basis Set:
  @DF-RHF Final Energy:  -268.05787037728794
    Total Energy =                       -268.0578703772879976
    Molecular point group: c1
  Basis Set: CC-PVTZ
  Basis Set:
  Basis Set: CC-PVTZ
  Basis Set:
  @DF-RHF Final Energy:  -268.05872676187744
    Total Energy =                       -268.0587267618776082
  Basis Set: CC-PVTZ
  Basis Set:
  Basis Set: CC-PVTZ
  Basis Set:
  @DF-RHF Final Energy:  -268.05897726360399
    Total Energy =                       -268.0589772636041062
  Basis Set: CC-PVTZ
  Basis Set:
  Charge       = 0
  Multiplicity = 1
  Basis Set: CC-PVTZ
  Basis Set:

    Orbital Energies (a.u.)
    -----------------------

    Doubly Occupied:

       1A    -20.552734     2A    -20.552518     3A    -11.269699
       4A    -11.267313     5A    -11.266921     6A     -1.387923
       7A     -1.368410     8A     -1.019450     9A     -0.914213
      10A     -0.842395    11A     -0.711274    12A     -0.673544
      13A     -0.660572    14A     -0.638875    15A     -0.597464
      16A     -0.570930    17A     -0.549612    18A     -0.491665
      19A     -0.483093    20A     -0.441099    21A     -0.419264

  @DF-RHF Final Energy:  -268.05897922547359

   => Energetics <=

    Nuclear Repulsion Energy =            190.1886845334504414
    One-Electron Energy =                -743.1373910153890847
    Two-Electron Energy =                 284.8897272564649938
    DFT Exchange-Correlation Energy =       0.0000000000000000
    Empirical Dispersion Energy =           0.0000000000000000
    PCM Polarization Energy =               0.0000000000000000
    EFP Energy =                            0.0000000000000000
    Total Energy =                       -268.0589792254736494
    Molecular point group: c1
  Basis Set: CC-PVTZ
  Basis Set:

  -Total Gradient:
     Atom            X                  Y                   Z
    ------   -----------------  -----------------  -----------------
       1       -0.000001202046     0.000006150466    -0.000001360166
       2        0.000001653779     0.000020777238     0.000001974535
       3       -0.000003943667    -0.000015992702    -0.000000355886
       4        0.000115209796     0.000101500758    -0.001226749557
       5       -0.000001515594    -0.000003698375    -0.000005134462
       6       -0.000004103520    -0.000004239631     0.000004462540
       7       -0.000213877788    -0.000577930998     0.001695488870
       8       -0.000006698959    -0.000017760905    -0.000015252900
       9       -0.000000245365    -0.000023947442    -0.000002166869
      10        0.000827581175     0.001757132330     0.000190234883
      11       -0.000008913267    -0.000028809709     0.000008387708
      12        0.000048867813     0.000002467948     0.000004495902
      13       -0.000752812362    -0.001215648984    -0.000654024598

  **** Optimization is complete! (in 4 steps) ****
    Final optimized geometry and variables:
    Molecular point group: c1

    Geometry (in Angstrom), charge = 0, multiplicity = 1:

    H           -0.915558114095     2.400605055760     0.873819874683
    O           -1.075242548255     2.112780716121    -0.006271522469
    C           -1.060335219654     0.713985432120    -0.068045702558
    C            0.349087864162     0.168268301476     0.046396273349
    H           -1.685014659698     0.273762511412     0.702706413295
    H           -1.476781950646     0.435646021330    -1.025553603391
    O            0.283884073103    -1.218161979120    -0.040186191632
    H            0.788614715085     0.477406885974     0.995925990066
    H            0.963173921764     0.582528256521    -0.749419802640
    C            1.501324478190    -1.897630312794     0.011428119847
    H            1.540955626051    -2.613265056473    -0.800402848708
    H            2.346635244116    -1.224777507939    -0.084710907088
    H            1.590095545910    -2.440239753655     0.946655899607

  Mulliken Charges: (a.u.)
   Center  Symbol    Alpha    Beta     Spin     Total
       1     H     0.39419  0.39419  0.00000  0.21161
       2     O     4.20211  4.20211  0.00000 -0.40423
       3     C     2.97511  2.97511  0.00000  0.04978
       4     C     2.96498  2.96498  0.00000  0.07004
       5     H     0.46687  0.46687  0.00000  0.06625
       6     H     0.45295  0.45295  0.00000  0.09409
       7     O     4.18008  4.18008  0.00000 -0.36015
       8     H     0.48205  0.48205  0.00000  0.03591
       9     H     0.46916  0.46916  0.00000  0.06169
      10     C     3.02776  3.02776  0.00000 -0.05552
      11     H     0.45382  0.45382  0.00000  0.09235
      12     H     0.47116  0.47116  0.00000  0.05768
      13     H     0.45975  0.45975  0.00000  0.08050

   Total alpha = 21.00000, Total beta = 21.00000, Total charge = -0.00000
