                              Psi4 1.0.54 Driver

  ==> Input File <==

--------------------------------------------------------------------------
set {
	reference rhf
	basis cc-pvtz
}

set_num_threads( 4 )
memory 2 gb

molecule MOL {
0 1

H	 -2.498963	 -0.741158	 -0.729149
O	 -2.346257	 -0.289210	 0.080372
C	 -1.183935	 0.486039	 -0.009831
C	 0.062853	 -0.375310	 0.027457
H	 -1.178881	 1.094526	 -0.908634
H	 -1.184406	 1.155156	 0.838676
O	 -0.242786	 -1.557805	 0.690586
H	 0.866265	 0.154920	 0.541539
H	 0.399368	 -0.571857	 -0.988270
C	 0.807705	 -2.463807	 0.773354
H	 1.652759	 -2.044127	 1.314673
H	 0.452548	 -3.334944	 1.304080
H	 1.148141	 -2.768589	 -0.213425

	symmetry c1
}
set optking {
	frozen_dihedral = ("
		8 4 3 5
	")
}

ee,wfn = optimize('scf', return_wfn=True)
oeprop( wfn, 'DIPOLE', 'QUADRUPOLE', 'MULLIKEN_CHARGES')
f=open( 'psi4out.xyz', 'w' )
f.write( "13  " )
f.write( str(ee) + "\n" )
f.write( MOL.save_string_xyz() )
f.close()
--------------------------------------------------------------------------

    Molecular point group: c1
  Charge       = 0
  Multiplicity = 1
  Basis Set: CC-PVTZ
  Basis Set:
  @DF-RHF Final Energy:  -268.05192521555978
    Total Energy =                       -268.0519252155599474
    Molecular point group: c1
  Basis Set: CC-PVTZ
  Basis Set:
  Basis Set: CC-PVTZ
  Basis Set:
  @DF-RHF Final Energy:  -268.04955800562334
    Total Energy =                       -268.0495580056233393
  Basis Set: CC-PVTZ
  Basis Set:
  Basis Set: CC-PVTZ
  Basis Set:
  @DF-RHF Final Energy:  -268.05417428474300
    Total Energy =                       -268.0541742847429987
  Basis Set: CC-PVTZ
  Basis Set:
  Basis Set: CC-PVTZ
  Basis Set:
  @DF-RHF Final Energy:  -268.05455698126082
    Total Energy =                       -268.0545569812608164
  Basis Set: CC-PVTZ
  Basis Set:
  @DF-RHF Final Energy:  -268.05517696108706
    Total Energy =                       -268.0551769610871702
  @DF-RHF Final Energy:  -268.05592967519908
    Total Energy =                       -268.0559296751990814
  @DF-RHF Final Energy:  -268.01660209259785
    Total Energy =                       -268.0166020925978501
  @DF-RHF Final Energy:  -268.05467207980172
    Total Energy =                       -268.0546720798019464
  @DF-RHF Final Energy:  -268.05689375433280
    Total Energy =                       -268.0568937543329184
  @DF-RHF Final Energy:  -268.05701981360568
    Total Energy =                       -268.0570198136057911
  @DF-RHF Final Energy:  -268.05895839584866
    Total Energy =                       -268.0589583958486628
  @DF-RHF Final Energy:  -268.06017225423921
    Total Energy =                       -268.0601722542392622
  @DF-RHF Final Energy:  -268.06065318823340
    Total Energy =                       -268.0606531882335162
  Basis Set: CC-PVTZ
  Basis Set:
  @DF-RHF Final Energy:  -268.06085858752522
    Total Energy =                       -268.0608585875252174
  Basis Set: CC-PVTZ
  Basis Set:
  Basis Set: CC-PVTZ
  Basis Set:
  @DF-RHF Final Energy:  -268.06089920626084
    Total Energy =                       -268.0608992062607285
  Basis Set: CC-PVTZ
  Basis Set:
  Basis Set: CC-PVTZ
  Basis Set:
  @DF-RHF Final Energy:  -268.06090120294937
    Total Energy =                       -268.0609012029493101
  Basis Set: CC-PVTZ
  Basis Set:
  Charge       = 0
  Multiplicity = 1
  Basis Set: CC-PVTZ
  Basis Set:

    Orbital Energies (a.u.)
    -----------------------

    Doubly Occupied:

       1A    -20.563092     2A    -20.536224     3A    -11.275401
       4A    -11.273199     5A    -11.267103     6A     -1.400436
       7A     -1.353327     8A     -1.018666     9A     -0.924643
      10A     -0.836110    11A     -0.704611    12A     -0.686968
      13A     -0.666881    14A     -0.635318    15A     -0.590847
      16A     -0.574304    17A     -0.549133    18A     -0.494731
      19A     -0.480998    20A     -0.443353    21A     -0.423803

  @DF-RHF Final Energy:  -268.06090133128941

   => Energetics <=

    Nuclear Repulsion Energy =            195.4630616010498159
    One-Electron Energy =                -753.6496245733742398
    Two-Electron Energy =                 290.1256616410349807
    DFT Exchange-Correlation Energy =       0.0000000000000000
    Empirical Dispersion Energy =           0.0000000000000000
    PCM Polarization Energy =               0.0000000000000000
    EFP Energy =                            0.0000000000000000
    Total Energy =                       -268.0609013312894149
    Molecular point group: c1
  Basis Set: CC-PVTZ
  Basis Set:

  -Total Gradient:
     Atom            X                  Y                   Z
    ------   -----------------  -----------------  -----------------
       1       -0.000022016556     0.000067881905    -0.000081382713
       2        0.000002374559    -0.000062259060     0.000090085798
       3        0.003988788816     0.006647245251     0.006160497634
       4        0.002590907526     0.001843035899    -0.009420164897
       5       -0.003757012662    -0.005907016044    -0.003674216747
       6       -0.000011725740    -0.000030333578    -0.000003697857
       7       -0.000026444895     0.000017341957    -0.000010291797
       8       -0.002755766874    -0.002548888084     0.006932559018
       9       -0.000026135468    -0.000029231738     0.000019248573
      10        0.000008471800     0.000011120172    -0.000021735446
      11        0.000000106523    -0.000008511203     0.000000426790
      12        0.000002353926     0.000007585613    -0.000004583788
      13        0.000006099046    -0.000007971091     0.000013255432

  **** Optimization is complete! (in 17 steps) ****
    Final optimized geometry and variables:
    Molecular point group: c1

    Geometry (in Angstrom), charge = 0, multiplicity = 1:

    H           -1.691017412714    -0.139135760234     0.058777755999
    O           -1.726045545054     0.567023288817    -0.562191241311
    C           -0.551625212866     1.314828186598    -0.455117270446
    C            0.680090322586     0.426591839955    -0.288719529548
    H           -0.476716345575     1.850524556171    -1.392203994543
    H           -0.618940075110     2.021316880008     0.366005309965
    O            0.324603903788    -0.660343586124     0.516921920688
    H            1.460193905064     0.981704688228     0.227567258057
    H            1.048557896353     0.074637519556    -1.247833919410
    C            1.353800907040    -1.562635846449     0.761139502540
    H            2.182008681648    -1.087989649217     1.281666544544
    H            0.960222997928    -2.354155949130     1.381805947287
    H            1.728498675206    -1.994594050098    -0.163348247461

  Mulliken Charges: (a.u.)
   Center  Symbol    Alpha    Beta     Spin     Total
       1     H     0.38319  0.38319  0.00000  0.23362
       2     O     4.20935  4.20935  0.00000 -0.41870
       3     C     2.95927  2.95927  0.00000  0.08145
       4     C     2.97265  2.97265  0.00000  0.05469
       5     H     0.46313  0.46313  0.00000  0.07375
       6     H     0.47226  0.47226  0.00000  0.05547
       7     O     4.18500  4.18500  0.00000 -0.37000
       8     H     0.47150  0.47150  0.00000  0.05699
       9     H     0.46976  0.46976  0.00000  0.06048
      10     C     3.02950  3.02950  0.00000 -0.05900
      11     H     0.46919  0.46919  0.00000  0.06163
      12     H     0.44635  0.44635  0.00000  0.10731
      13     H     0.46885  0.46885  0.00000  0.06230

   Total alpha = 21.00000, Total beta = 21.00000, Total charge = -0.00000

*** Psi4 exiting successfully. Buy a developer a beer!
