  ==> Input File <==

--------------------------------------------------------------------------
set {
	reference rhf
	basis cc-pvtz
}

set_num_threads( 4 )
memory 2 gb

molecule MOL {
0 1

H	 -2.240755	 0.557309	 0.605085
C	 -2.007097	 -0.206839	 -0.129167
O	 -0.775228	 0.000056	 -0.739966
H	 -2.753242	 -0.162216	 -0.909826
H	 -2.076221	 -1.178729	 0.348624
C	 0.406133	 -0.000384	 0.036994
C	 1.526415	 -0.003194	 -0.997339
C	 0.498772	 1.259027	 0.900673
C	 0.495883	 -1.257378	 0.904465
H	 1.452279	 0.872071	 -1.630204
H	 1.451276	 -0.881020	 -1.626529
H	 2.497919	 -0.002741	 -0.517601
H	 0.368981	 2.144239	 0.289753
H	 1.470064	 1.313479	 1.377660
H	 -0.248448	 1.271586	 1.684297
H	 0.363971	 -2.144195	 0.296316
H	 1.467114	 -1.312636	 1.381470
H	 -0.251246	 -1.265768	 1.688235

	symmetry c1
}
set optking {
	frozen_dihedral = ("
		2 3 6 7
	")
}

ee = optimize('scf')
oeprop('DIPOLE', 'QUADRUPOLE', 'MULLIKEN_CHARGES')
f=open( 'psi4out.xyz', 'w' )
f.write( "18  " )
f.write( str(ee) + "\n" )
f.write( MOL.save_string_xyz() )
f.close()
--------------------------------------------------------------------------

    Molecular point group: c1
  Charge       = 0
  Multiplicity = 1
  Basis Set: CC-PVTZ
  Basis Set:
  @DF-RHF Final Energy:  -271.27646186742828
    Total Energy =                       -271.2764618674278836
    Molecular point group: c1
  Basis Set: CC-PVTZ
  Basis Set:
  Basis Set: CC-PVTZ
  Basis Set:
  @DF-RHF Final Energy:  -271.27657630633445
    Total Energy =                       -271.2765763063343911
  Basis Set: CC-PVTZ
  Basis Set:
  Basis Set: CC-PVTZ
  Basis Set:
  @DF-RHF Final Energy:  -271.27662764384246
    Total Energy =                       -271.2766276438426303
  Basis Set: CC-PVTZ
  Basis Set:
  Basis Set: CC-PVTZ
  Basis Set:
  @DF-RHF Final Energy:  -271.27665530637432
    Total Energy =                       -271.2766553063741526
  Basis Set: CC-PVTZ
  Basis Set:
  Basis Set: CC-PVTZ
  Basis Set:
  @DF-RHF Final Energy:  -271.27665906506803
    Total Energy =                       -271.2766590650679746
  Basis Set: CC-PVTZ
  Basis Set:
  Charge       = 0
  Multiplicity = 1
  Basis Set: CC-PVTZ
  Basis Set:

    Orbital Energies (a.u.)
    -----------------------

    Doubly Occupied:

       1A    -20.540481     2A    -11.280139     3A    -11.258279
       4A    -11.208309     5A    -11.205941     6A    -11.201843
       7A     -1.373513     8A     -1.074653     9A     -0.947398
      10A     -0.940273    11A     -0.913131    12A     -0.753466
      13A     -0.656787    14A     -0.646914    15A     -0.639588
      16A     -0.592946    17A     -0.575465    18A     -0.553237
      19A     -0.534617    20A     -0.525211    21A     -0.515188
      22A     -0.489667    23A     -0.487415    24A     -0.441073
      25A     -0.406949

  @DF-RHF Final Energy:  -271.27665961225102

   => Energetics <=

    Nuclear Repulsion Energy =            272.6929390463023992
    One-Electron Energy =                -908.4142290122213126
    Two-Electron Energy =                 364.4446303536678329
    DFT Exchange-Correlation Energy =       0.0000000000000000
    Empirical Dispersion Energy =           0.0000000000000000
    PCM Polarization Energy =               0.0000000000000000
    EFP Energy =                            0.0000000000000000
    Total Energy =                       -271.2766596122510805
    Molecular point group: c1
  Basis Set: CC-PVTZ
  Basis Set:

  -Total Gradient:
     Atom            X                  Y                   Z
    ------   -----------------  -----------------  -----------------
       1       -0.000013167075    -0.000003046283    -0.000003307546
       2        0.000059639555    -0.000636428949    -0.000090608872
       3       -0.000097032760     0.000833250704     0.000114987227
       4        0.000003153126    -0.000003258827     0.000000742739
       5       -0.000004100116     0.000003728029    -0.000004864727
       6        0.000014306411     0.000340959104    -0.000043047902
       7       -0.000001933043    -0.000524737294     0.000018336301
       8        0.000009434517     0.000005099445    -0.000006446189
       9        0.000010531485    -0.000015041562     0.000022490789
      10       -0.000003356403     0.000003967869     0.000001339708
      11       -0.000000235786     0.000001998516     0.000000421112
      12        0.000000350121    -0.000003844837    -0.000000845375
      13       -0.000004762946     0.000010977825    -0.000002146650
      14       -0.000002193487     0.000000232614    -0.000010735190
      15        0.000013185055    -0.000006899939    -0.000000382272
      16        0.000001987203     0.000003080870     0.000000507457
      17        0.000005002176    -0.000008805777     0.000004490899
      18        0.000009191965    -0.000001231510    -0.000000931511

  **** Optimization is complete! (in 6 steps) ****
    Final optimized geometry and variables:
    Molecular point group: c1

    Geometry (in Angstrom), charge = 0, multiplicity = 1:

    H           -2.190504167946     0.526298158067     0.691692590473
    C           -2.008401081122    -0.168016471601    -0.122715258529
    O           -0.777806701613     0.036362012255    -0.737122739775
    H           -2.765181908073    -0.006214324899    -0.877237853133
    H           -2.117094253557    -1.179340409955     0.255040625967
    C            0.405131568841     0.033494658601     0.038254871381
    C            1.526563381930     0.028180213800    -0.994719620222
    C            0.485426744332     1.300118786865     0.892270891062
    C            0.503810974055    -1.216116262790     0.915082076581
    H            1.436266891287     0.887552934555    -1.646947817889
    H            1.469600296416    -0.864712931660    -1.604336969937
    H            2.497317433005     0.059002438588    -0.514290901202
    H            0.383693586077     2.178650490197     0.267127609245
    H            1.439860007284     1.351795535511     1.402988526795
    H           -0.289732141955     1.328294340197     1.647979513923
    H            0.374242213960    -2.110643318493     0.317493913202
    H            1.478726802368    -1.261064292311     1.385072971844
    H           -0.238195251059    -1.220722601091     1.703859897667

  Mulliken Charges: (a.u.)
   Center  Symbol    Alpha    Beta     Spin     Total
       1     H     0.47034  0.47034  0.00000  0.05931
       2     C     3.04444  3.04444  0.00000 -0.08889
       3     O     4.19061  4.19061  0.00000 -0.38122
       4     H     0.44104  0.44104  0.00000  0.11792
       5     H     0.46788  0.46788  0.00000  0.06423
       6     C     2.87390  2.87390  0.00000  0.25221
       7     C     3.14144  3.14144  0.00000 -0.28289
       8     C     3.15852  3.15852  0.00000 -0.31704
       9     C     3.16890  3.16890  0.00000 -0.33780
      10     H     0.44812  0.44812  0.00000  0.10376
      11     H     0.44970  0.44970  0.00000  0.10061
      12     H     0.45934  0.45934  0.00000  0.08132
      13     H     0.44642  0.44642  0.00000  0.10717
      14     H     0.45029  0.45029  0.00000  0.09941
      15     H     0.44951  0.44951  0.00000  0.10098
      16     H     0.44480  0.44480  0.00000  0.11039
      17     H     0.44658  0.44658  0.00000  0.10683
      18     H     0.44816  0.44816  0.00000  0.10368

   Total alpha = 25.00000, Total beta = 25.00000, Total charge = -0.00000
