                              Psi4 1.0.54 Driver

  ==> Input File <==

--------------------------------------------------------------------------
set {
	reference rhf
	basis cc-pvtz
}

set_num_threads( 4 )
memory 2 gb

molecule MOL {
0 1

O	 1.837987	 1.282881	 -0.172205
C	 1.704209	 0.119472	 -0.000093
C	 0.394069	 -0.584637	 0.243640
O	 2.715427	 -0.733672	 0.000025
C	 -0.809885	 0.346323	 0.255191
H	 0.293221	 -1.348157	 -0.520765
H	 0.486979	 -1.118761	 1.183598
C	 -2.117694	 -0.399026	 0.504407
H	 -0.861707	 0.875150	 -0.689759
H	 -0.667597	 1.104981	 1.016427
C	 -3.336896	 0.518456	 0.520023
H	 -2.253104	 -1.160009	 -0.260981
H	 -2.057900	 -0.929769	 1.452022
C	 -4.644061	 -0.226484	 0.768608
H	 -3.398149	 1.048356	 -0.426345
H	 -3.203468	 1.277940	 1.285229
H	 -4.823242	 -0.970599	 -0.000432
H	 -5.488260	 0.453251	 0.773248
H	 -4.627183	 -0.738877	 1.724852
C	 4.020999	 -0.192556	 0.000019
H	 4.182809	 0.412891	 -0.879449
H	 4.692590	 -1.035653	 0.000152
H	 4.182726	 0.413087	 0.879368

	symmetry c1
}
set optking {
	frozen_dihedral = ("
		1 2 4 20
	")
}

ee,wfn = optimize('scf', return_wfn=True)
oeprop( wfn, 'DIPOLE', 'QUADRUPOLE', 'MULLIKEN_CHARGES')
f=open( 'psi4out.xyz', 'w' )
f.write( "23  " )
f.write( str(ee) + "\n" )
f.write( MOL.save_string_xyz() )
f.close()
--------------------------------------------------------------------------

    Molecular point group: c1
  Charge       = 0
  Multiplicity = 1
  Basis Set: CC-PVTZ
  Basis Set:
  @DF-RHF Final Energy:  -423.13047421942787
    Total Energy =                       -423.1304742194279243
    Molecular point group: c1
  Basis Set: CC-PVTZ
  Basis Set:
  Basis Set: CC-PVTZ
  Basis Set:
  @DF-RHF Final Energy:  -423.12898423729069
    Total Energy =                       -423.1289842372905241
  Basis Set: CC-PVTZ
  Basis Set:
  Basis Set: CC-PVTZ
  Basis Set:
  @DF-RHF Final Energy:  -423.13054735473071
    Total Energy =                       -423.1305473547307656
  Basis Set: CC-PVTZ
  Basis Set:
  Basis Set: CC-PVTZ
  Basis Set:
  @DF-RHF Final Energy:  -423.13055688090918
    Total Energy =                       -423.1305568809091255
  Basis Set: CC-PVTZ
  Basis Set:
  @DF-RHF Final Energy:  -423.13056015870268
    Total Energy =                       -423.1305601587029059
  @DF-RHF Final Energy:  -423.13056116770002
    Total Energy =                       -423.1305611677001934
  Basis Set: CC-PVTZ
  Basis Set:
  @DF-RHF Final Energy:  -423.12410806366267
    Total Energy =                       -423.1241080636624474
  Basis Set: CC-PVTZ
  Basis Set:
  Basis Set: CC-PVTZ
  Basis Set:
  @DF-RHF Final Energy:  -423.13032504208144
    Total Energy =                       -423.1303250420810400
  Basis Set: CC-PVTZ
  Basis Set:
  Basis Set: CC-PVTZ
  Basis Set:
  @DF-RHF Final Energy:  -423.13056244785969
    Total Energy =                       -423.1305624478600294
  Basis Set: CC-PVTZ
  Basis Set:
  Charge       = 0
  Multiplicity = 1
  Basis Set: CC-PVTZ
  Basis Set:

    Orbital Energies (a.u.)
    -----------------------

    Doubly Occupied:

       1A    -20.595823     2A    -20.534326     3A    -11.364630
       4A    -11.278693     5A    -11.233821     6A    -11.217207
       7A    -11.215851     8A    -11.214527     9A    -11.207781
      10A     -1.471838    11A     -1.365825    12A     -1.094538
      13A     -1.044748    14A     -0.987921    15A     -0.932893
      16A     -0.844257    17A     -0.795600    18A     -0.769219
      19A     -0.699023    20A     -0.686595    21A     -0.675381
      22A     -0.652848    23A     -0.609849    24A     -0.601123
      25A     -0.573787    26A     -0.561451    27A     -0.556436
      28A     -0.525710    29A     -0.521872    30A     -0.508263
      31A     -0.484865    32A     -0.470203    33A     -0.467232
      34A     -0.463632    35A     -0.458799    36A     -0.438187

  @DF-RHF Final Energy:  -423.13056310443540

   => Energetics <=

    Nuclear Repulsion Energy =            452.8619168400153967
    One-Electron Energy =               -1473.7354564277311511
    Two-Electron Energy =                 597.7429764832799037
    DFT Exchange-Correlation Energy =       0.0000000000000000
    Empirical Dispersion Energy =           0.0000000000000000
    PCM Polarization Energy =               0.0000000000000000
    EFP Energy =                            0.0000000000000000
    Total Energy =                       -423.1305631044358506
    Molecular point group: c1
  Basis Set: CC-PVTZ
  Basis Set:

  -Total Gradient:
     Atom            X                  Y                   Z
    ------   -----------------  -----------------  -----------------
       1       -0.000598714240    -0.000229748614    -0.003209143233
       2        0.001008588144     0.000252850952     0.006032628854
       3       -0.000013642841     0.000030541737    -0.000009928069
       4       -0.000517653376     0.000125300421    -0.005364766907
       5       -0.000000970987    -0.000018916345     0.000004601542
       6       -0.000004250605     0.000004930568    -0.000000626863
       7       -0.000011393256    -0.000002025487     0.000004155387
       8        0.000008027591     0.000024620495     0.000007395276
       9        0.000004403581    -0.000006284304     0.000000509787
      10       -0.000003472691    -0.000009794646     0.000001709654
      11       -0.000002714318    -0.000022485338     0.000004422215
      12       -0.000000354313     0.000006486575     0.000000268753
      13       -0.000002892964     0.000007869501     0.000003612856
      14       -0.000001229245     0.000010553155    -0.000008677109
      15       -0.000000210261    -0.000004136006    -0.000000689396
      16        0.000001664887    -0.000010508743     0.000003404943
      17       -0.000002301489     0.000005693471    -0.000001585173
      18       -0.000006804799    -0.000010926905     0.000000351645
      19        0.000000806610     0.000009896465    -0.000000109657
      20        0.000177597936    -0.000113433357     0.002487838005
      21        0.000004043828    -0.000032368833     0.000042640027
      22        0.000003097432     0.000016861367     0.000009017051
      23       -0.000041624622    -0.000034976131    -0.000007029588

  **** Optimization is complete! (in 10 steps) ****
    Final optimized geometry and variables:
    Molecular point group: c1

    Geometry (in Angstrom), charge = 0, multiplicity = 1:

    O            1.832611971222     1.270264524289    -0.354368706307
    C            1.688816094447     0.100862140487    -0.242495111926
    C            0.380165441587    -0.598586110493     0.020959495901
    O            2.682164221419    -0.765790989541    -0.362574479096
    C           -0.819740736600     0.336947754904     0.056354307610
    H            0.263014321180    -1.362785537361    -0.739847856764
    H            0.488592537686    -1.131623310443     0.960439773570
    C           -2.125360558697    -0.403287203899     0.330924760649
    H           -0.888288913120     0.865642192423    -0.887862691939
    H           -0.659403298526     1.095141837679     0.814153007304
    C           -3.340686493536     0.518628055569     0.368308284293
    H           -2.277984771927    -1.164718433476    -0.430734014104
    H           -2.049612943749    -0.932957220120     1.278026027376
    C           -4.645709379903    -0.221198646412     0.642036676992
    H           -3.417691675134     1.047706637577    -0.577370988999
    H           -3.190182129424     1.278367019016     1.130068760950
    H           -4.841892811797    -0.965463468408    -0.122696858205
    H           -5.487231466959     0.461592601096     0.661623118460
    H           -4.612891018870    -0.732587389337     1.598407076577
    C            3.994459599681    -0.244370508804    -0.420519229743
    H            4.126239694231     0.367127970736    -1.300475051394
    H            4.652643942162    -1.097137089322    -0.458428019483
    H            4.205023272472     0.349776366204     0.456673511958

  Mulliken Charges: (a.u.)
   Center  Symbol    Alpha    Beta     Spin     Total
       1     O     4.19638  4.19638  0.00000 -0.39275
       2     C     2.80685  2.80685  0.00000  0.38630
       3     C     3.10117  3.10117  0.00000 -0.20234
       4     O     4.14694  4.14694  0.00000 -0.29388
       5     C     3.08350  3.08350  0.00000 -0.16701
       6     H     0.43910  0.43910  0.00000  0.12179
       7     H     0.44143  0.44143  0.00000  0.11714
       8     C     3.08926  3.08926  0.00000 -0.17852
       9     H     0.44697  0.44697  0.00000  0.10607
      10     H     0.44568  0.44568  0.00000  0.10863
      11     C     3.08400  3.08400  0.00000 -0.16800
      12     H     0.45574  0.45574  0.00000  0.08852
      13     H     0.45585  0.45585  0.00000  0.08830
      14     C     3.15039  3.15039  0.00000 -0.30079
      15     H     0.45330  0.45330  0.00000  0.09341
      16     H     0.45324  0.45324  0.00000  0.09351
      17     H     0.45531  0.45531  0.00000  0.08938
      18     H     0.44772  0.44772  0.00000  0.10456
      19     H     0.45534  0.45534  0.00000  0.08933
      20     C     3.03770  3.03770  0.00000 -0.07539
      21     H     0.45248  0.45248  0.00000  0.09504
      22     H     0.44532  0.44532  0.00000  0.10936
      23     H     0.45632  0.45632  0.00000  0.08736

   Total alpha = 36.00000, Total beta = 36.00000, Total charge = -0.00000

*** Psi4 exiting successfully. Buy a developer a beer!
