  ==> Input File <==

--------------------------------------------------------------------------
set {
	reference rhf
	basis 6-31G*
}

set_num_threads( 1 )
memory 2 gb

molecule MOL {
0 1

H	 -2.762043	 -0.328721	 2.008046
O	 -1.917411	 -0.045404	 1.688510
C	 -2.026376	 0.340750	 0.341611
C	 -0.673256	 0.843270	 -0.132153
H	 -2.339397	 -0.503104	 -0.270651
H	 -2.774606	 1.124267	 0.228006
C	 0.486613	 -0.083066	 0.235839
H	 -0.715586	 0.970948	 -1.210718
H	 -0.508072	 1.829858	 0.297090
C	 1.840406	 0.433480	 -0.254303
H	 0.300215	 -1.068318	 -0.178947
H	 0.519509	 -0.203625	 1.318070
C	 3.000220	 -0.489290	 0.118523
H	 1.809207	 0.553576	 -1.335192
H	 2.021860	 1.424500	 0.157276
H	 2.864959	 -1.479103	 -0.307933
H	 3.946603	 -0.099227	 -0.243630
H	 3.080049	 -0.602997	 1.196117

	symmetry c1
}
set optking {
	frozen_dihedral = ("
		14 10 7 11,
		10 7 4 8,
		1 2 3 4
	")
}

ee = energy('scf')
oeprop('DIPOLE', 'QUADRUPOLE', 'MULLIKEN_CHARGES')
f=open( 'psi4out.xyz', 'w' )
f.write( "18  " )
f.write( str(ee) + "\n" )
f.write( MOL.save_string_xyz() )
f.close()
--------------------------------------------------------------------------

    Molecular point group: c1

    Geometry (in Angstrom), charge = 0, multiplicity = 1:

       Center              X                  Y                   Z               Mass
    ------------   -----------------  -----------------  -----------------  -----------------
           H         -2.834103749716    -0.481364785938     1.640323020194     1.007825032070
           O         -1.989471749716    -0.198047785938     1.320787020194    15.994914619560
           C         -2.098436749716     0.188106214062    -0.026111979806    12.000000000000
           C         -0.745316749716     0.690626214062    -0.499875979806    12.000000000000
           H         -2.411457749716    -0.655747785938    -0.638373979806     1.007825032070
           H         -2.846666749716     0.971623214062    -0.139716979806     1.007825032070
           C          0.414552250284    -0.235709785938    -0.131883979806    12.000000000000
           H         -0.787646749716     0.818304214062    -1.578440979806     1.007825032070
           H         -0.580132749716     1.677214214062    -0.070632979806     1.007825032070
           C          1.768345250284     0.280836214062    -0.622025979806    12.000000000000
           H          0.228154250284    -1.220961785938    -0.546669979806     1.007825032070
           H          0.447448250284    -0.356268785938     0.950347020194     1.007825032070
           C          2.928159250284    -0.641933785938    -0.249199979806    12.000000000000
           H          1.737146250284     0.400932214062    -1.702914979806     1.007825032070
           H          1.949799250284     1.271856214062    -0.210446979806     1.007825032070
           H          2.792898250284    -1.631746785938    -0.675655979806     1.007825032070
           H          3.874542250284    -0.251870785938    -0.611352979806     1.007825032070
           H          3.007988250284    -0.755640785938     0.828394020194     1.007825032070

  Charge       = 0
  Multiplicity = 1
  Basis Set: 6-31G*
  Basis Set:

    Orbital Energies (a.u.)
    -----------------------

    Doubly Occupied:

       1A    -20.553304     2A    -11.268181     3A    -11.211759
       4A    -11.209311     5A    -11.204091     6A    -11.203383
       7A     -1.360287     8A     -1.073189     9A     -1.008016
      10A     -0.912746    11A     -0.816991    12A     -0.781758
      13A     -0.703315    14A     -0.647806    15A     -0.620593
      16A     -0.579555    17A     -0.570988    18A     -0.555005
      19A     -0.520258    20A     -0.502275    21A     -0.488517
      22A     -0.465457    23A     -0.455013    24A     -0.444586
      25A     -0.430126

  @DF-RHF Final Energy:  -271.17857248859002

   => Energetics <=

    Nuclear Repulsion Energy =            249.9518681812714647
    One-Electron Energy =                -863.0880011495946746
    Two-Electron Energy =                 341.9575604797337292
    DFT Exchange-Correlation Energy =       0.0000000000000000
    Empirical Dispersion Energy =           0.0000000000000000
    PCM Polarization Energy =               0.0000000000000000
    EFP Energy =                            0.0000000000000000
    Total Energy =                       -271.1785724885894524

  Mulliken Charges: (a.u.)
   Center  Symbol    Alpha    Beta     Spin     Total
       1     H     0.28045  0.28045  0.00000  0.43909
       2     O     4.36959  4.36959  0.00000 -0.73918
       3     C     2.99608  2.99608  0.00000  0.00784
       4     C     3.16296  3.16296  0.00000 -0.32591
       5     H     0.43227  0.43227  0.00000  0.13546
       6     H     0.42933  0.42933  0.00000  0.14135
       7     C     3.15070  3.15070  0.00000 -0.30141
       8     H     0.42351  0.42351  0.00000  0.15299
       9     H     0.41844  0.41844  0.00000  0.16313
      10     C     3.15184  3.15184  0.00000 -0.30369
      11     H     0.42637  0.42637  0.00000  0.14726
      12     H     0.40611  0.40611  0.00000  0.18778
      13     C     3.23871  3.23871  0.00000 -0.47741
      14     H     0.42606  0.42606  0.00000  0.14789
      15     H     0.42333  0.42333  0.00000  0.15335
      16     H     0.42253  0.42253  0.00000  0.15494
      17     H     0.42075  0.42075  0.00000  0.15849
      18     H     0.42098  0.42098  0.00000  0.15805

   Total alpha = 25.00000, Total beta = 25.00000, Total charge = -0.00000
