  ==> Input File <==

--------------------------------------------------------------------------
set {
	reference rhf
	basis 6-31G*
}

set_num_threads( 4 )
memory 2 gb

molecule MOL {
0 1

H	 -3.301617	 0.570527	 0.000000
C	 -2.250981	 0.344174	 0.000000
C	 -1.813665	 -0.976045	 0.000000
C	 -1.315303	 1.358057	 0.000000
H	 -2.528860	 -1.779366	 0.000000
C	 -0.467298	 -1.270142	 0.000000
H	 -1.635074	 2.385107	 0.000000
C	 0.047081	 1.078114	 0.000000
H	 -0.115948	 -2.285222	 0.000000
C	 0.472063	 -0.241155	 0.000000
H	 0.749976	 1.888426	 0.000000
O	 1.765256	 -0.628444	 0.000000
C	 2.102966	 -1.920219	 0.415139
H	 1.816452	 -2.093472	 1.447237
H	 3.176690	 -1.994223	 0.328823
H	 1.642779	 -2.673383	 -0.215974

	symmetry c1
}
set optking {
	frozen_dihedral = ("
		13 12 10 8
	")
}

ee = optimize('scf')
oeprop('DIPOLE', 'QUADRUPOLE', 'MULLIKEN_CHARGES')
f=open( 'psi4out.xyz', 'w' )
f.write( "16  " )
f.write( str(ee) + "\n" )
f.write( MOL.save_string_xyz() )
f.close()
--------------------------------------------------------------------------

    Molecular point group: c1
  Charge       = 0
  Multiplicity = 1
  Basis Set: 6-31G*
  Basis Set:
  @DF-RHF Final Energy:  -344.57295524911859
    Total Energy =                       -344.5729552491186496
    Molecular point group: c1
  Basis Set: 6-31G*
  Basis Set:
  Basis Set: 6-31G*
  Basis Set:
  @DF-RHF Final Energy:  -344.57687661193290
    Total Energy =                       -344.5768766119330735
  Basis Set: 6-31G*
  Basis Set:
  Basis Set: 6-31G*
  Basis Set:
  @DF-RHF Final Energy:  -344.58161754446132
    Total Energy =                       -344.5816175444612668
  Basis Set: 6-31G*
  Basis Set:
  Basis Set: 6-31G*
  Basis Set:
  @DF-RHF Final Energy:  -344.58210943061380
    Total Energy =                       -344.5821094306140253
  Basis Set: 6-31G*
  Basis Set:
  Basis Set: 6-31G*
  Basis Set:
  @DF-RHF Final Energy:  -344.58218651786478
    Total Energy =                       -344.5821865178647840
  Basis Set: 6-31G*
  Basis Set:
  Basis Set: 6-31G*
  Basis Set:
  @DF-RHF Final Energy:  -344.58219087890768
    Total Energy =                       -344.5821908789076815
  Basis Set: 6-31G*
  Basis Set:
  Basis Set: 6-31G*
  Basis Set:
  @DF-RHF Final Energy:  -344.58219205661356
    Total Energy =                       -344.5821920566136214
  Basis Set: 6-31G*
  Basis Set:
  Charge       = 0
  Multiplicity = 1
  Basis Set: 6-31G*
  Basis Set:

    Orbital Energies (a.u.)
    -----------------------

    Doubly Occupied:

       1A    -20.583191     2A    -11.293021     3A    -11.279473
       4A    -11.232995     5A    -11.231466     6A    -11.224146
       7A    -11.220008     8A    -11.219586     9A     -1.412178
      10A     -1.145937    11A     -1.021112    12A     -1.012863
      13A     -0.940675    14A     -0.830779    15A     -0.804758
      16A     -0.720511    17A     -0.664163    18A     -0.661719
      19A     -0.654067    20A     -0.616231    21A     -0.587460
      22A     -0.577049    23A     -0.525608    24A     -0.517643
      25A     -0.507906    26A     -0.477583    27A     -0.458092
      28A     -0.334601    29A     -0.306369

  @DF-RHF Final Energy:  -344.58219222328290

   => Energetics <=

    Nuclear Repulsion Energy =            348.0919511059807405
    One-Electron Energy =               -1157.2259072264353108
    Two-Electron Energy =                 464.5517638971715542
    DFT Exchange-Correlation Energy =       0.0000000000000000
    Empirical Dispersion Energy =           0.0000000000000000
    PCM Polarization Energy =               0.0000000000000000
    EFP Energy =                            0.0000000000000000
    Total Energy =                       -344.5821922232829593
    Molecular point group: c1
  Basis Set: 6-31G*
  Basis Set:

  -Total Gradient:
     Atom            X                  Y                   Z
    ------   -----------------  -----------------  -----------------
       1        0.000000099285     0.000001365648    -0.000003038442
       2        0.000003752413     0.000021087733    -0.000000743498
       3        0.000015138033    -0.000011694626     0.000009613321
       4       -0.000024832325    -0.000004280985    -0.000000162925
       5       -0.000002141488     0.000002713151    -0.000002836719
       6       -0.000014684904    -0.000017231195    -0.000012259567
       7       -0.000003005960     0.000000403819     0.000002579012
       8        0.000037948591    -0.000012272482     0.001360174169
       9       -0.000000111138     0.000009138408     0.000004850900
      10        0.000009652670     0.000276993224    -0.001311421737
      11       -0.000006274009     0.000002079787     0.000000845518
      12       -0.000154054005    -0.000733262879    -0.001361603691
      13        0.000138287338     0.000466702662     0.001307962824
      14       -0.000007608663    -0.000001273551     0.000001371338
      15       -0.000000432959    -0.000010409344    -0.000007309124
      16        0.000008267122     0.000009940629     0.000011978622

  **** Optimization is complete! (in 8 steps) ****
    Final optimized geometry and variables:
    Molecular point group: c1

    Geometry (in Angstrom), charge = 0, multiplicity = 1:

    H           -3.194476134655     1.002308895577    -0.052417013866
    C           -2.157212863363     0.720757872283    -0.054683380454
    C           -1.792347337913    -0.610663698999    -0.042066276656
    C           -1.163406504714     1.692528622123    -0.068029035879
    H           -2.548447643096    -1.375678271061    -0.031251068971
    C           -0.454098642889    -0.986278138981    -0.044838710132
    H           -1.430409321413     2.734439264672    -0.073572403463
    C            0.168637108054     1.335093508853    -0.066368160560
    H           -0.197743740303    -2.028290581527    -0.039782159977
    C            0.529142179393    -0.009459550303    -0.061033947934
    H            0.946990271810     2.075325722618    -0.071878341247
    O            1.855347645587    -0.268892546048    -0.075026030872
    C            2.316690985045    -1.521664816698     0.345171886429
    H            1.903057695900    -1.789771697338     1.311606377736
    H            3.390503239759    -1.438717035757     0.425038426694
    H            2.078124377327    -2.298066587128    -0.374095192184

  Mulliken Charges: (a.u.)
   Center  Symbol    Alpha    Beta     Spin     Total
       1     H     0.40110  0.40110  0.00000  0.19780
       2     C     3.11139  3.11139  0.00000 -0.22278
       3     C     3.09165  3.09165  0.00000 -0.18329
       4     C     3.09242  3.09242  0.00000 -0.18483
       5     H     0.39952  0.39952  0.00000  0.20096
       6     C     3.14177  3.14177  0.00000 -0.28353
       7     H     0.39874  0.39874  0.00000  0.20252
       8     C     3.12504  3.12504  0.00000 -0.25009
       9     H     0.39745  0.39745  0.00000  0.20509
      10     C     2.78429  2.78429  0.00000  0.43142
      11     H     0.39298  0.39298  0.00000  0.21405
      12     O     4.32708  4.32708  0.00000 -0.65417
      13     C     3.09128  3.09128  0.00000 -0.18256
      14     H     0.41902  0.41902  0.00000  0.16196
      15     H     0.40543  0.40543  0.00000  0.18913
      16     H     0.42084  0.42084  0.00000  0.15832

   Total alpha = 29.00000, Total beta = 29.00000, Total charge =  0.00000
