                              Psi4 1.0.54 Driver

  ==> Input File <==

--------------------------------------------------------------------------
set {
	reference rhf
	basis cc-pvtz
}

set_num_threads( 4 )
memory 2 gb

molecule MOL {
0 1

H	 2.190573	 -0.629143	 -0.208718
O	 1.355408	 -0.529451	 0.208662
C	 0.700177	 0.619554	 -0.266242
C	 -0.713111	 0.588314	 0.266177
H	 0.678680	 0.627133	 -1.351786
H	 1.199747	 1.521489	 0.077736
O	 -1.421673	 -0.521378	 -0.196983
H	 -1.244794	 1.469161	 -0.069059
H	 -0.685100	 0.604721	 1.352683
H	 -1.090373	 -0.754715	 -1.046581

	symmetry c1
}
set optking {
	frozen_dihedral = ("
		10 7 4 3
	")
}

ee,wfn = optimize('scf', return_wfn=True)
oeprop( wfn, 'DIPOLE', 'QUADRUPOLE', 'MULLIKEN_CHARGES')
f=open( 'psi4out.xyz', 'w' )
f.write( "10  " )
f.write( str(ee) + "\n" )
f.write( MOL.save_string_xyz() )
f.close()
--------------------------------------------------------------------------

    Molecular point group: c1
  Charge       = 0
  Multiplicity = 1
  Basis Set: CC-PVTZ
  Basis Set:
  @DF-RHF Final Energy:  -229.02136429688062
    Total Energy =                       -229.0213642968805914
    Molecular point group: c1
  Basis Set: CC-PVTZ
  Basis Set:
  Basis Set: CC-PVTZ
  Basis Set:
  @DF-RHF Final Energy:  -229.02281805614180
    Total Energy =                       -229.0228180561417730
  Basis Set: CC-PVTZ
  Basis Set:
  Basis Set: CC-PVTZ
  Basis Set:
  @DF-RHF Final Energy:  -229.02308678642135
    Total Energy =                       -229.0230867864214019
  Basis Set: CC-PVTZ
  Basis Set:
  Basis Set: CC-PVTZ
  Basis Set:
  @DF-RHF Final Energy:  -229.02310019101603
    Total Energy =                       -229.0231001910159705
  Basis Set: CC-PVTZ
  Basis Set:
  Basis Set: CC-PVTZ
  Basis Set:
  @DF-RHF Final Energy:  -229.02310156598739
    Total Energy =                       -229.0231015659875311
  Basis Set: CC-PVTZ
  Basis Set:
  Charge       = 0
  Multiplicity = 1
  Basis Set: CC-PVTZ
  Basis Set:

    Orbital Energies (a.u.)
    -----------------------

    Doubly Occupied:

       1A    -20.556518     2A    -20.543951     3A    -11.278804
       4A    -11.268214     5A     -1.382424     6A     -1.357370
       7A     -1.005757     8A     -0.850285     9A     -0.723268
      10A     -0.676438    11A     -0.662251    12A     -0.601798
      13A     -0.575037    14A     -0.553294    15A     -0.473665
      16A     -0.453762    17A     -0.441866

  @DF-RHF Final Energy:  -229.02310162469541

   => Energetics <=

    Nuclear Repulsion Energy =            133.7784528873821728
    One-Electron Energy =                -578.7937060898782420
    Two-Electron Energy =                 215.9921515778005983
    DFT Exchange-Correlation Energy =       0.0000000000000000
    Empirical Dispersion Energy =           0.0000000000000000
    PCM Polarization Energy =               0.0000000000000000
    EFP Energy =                            0.0000000000000000
    Total Energy =                       -229.0231016246954709
    Molecular point group: c1
  Basis Set: CC-PVTZ
  Basis Set:

  -Total Gradient:
     Atom            X                  Y                   Z
    ------   -----------------  -----------------  -----------------
       1       -0.000007539802     0.000002599798    -0.000000831235
       2       -0.000016495760     0.000010613798    -0.000006467251
       3       -0.000009400412     0.000062281652    -0.000123747261
       4        0.000096683227    -0.000182309745     0.000217847818
       5        0.000001849233     0.000004353367    -0.000009027436
       6       -0.000002975387     0.000012992034    -0.000005365119
       7       -0.000218391972     0.000245040103    -0.000199676287
       8        0.000001640562     0.000000991015     0.000001766094
       9       -0.000009263506     0.000003123333     0.000008110065
      10        0.000163893814    -0.000159685356     0.000117390611

  **** Optimization is complete! (in 6 steps) ****
    Final optimized geometry and variables:
    Molecular point group: c1

    Geometry (in Angstrom), charge = 0, multiplicity = 1:

    H            2.272428296076    -0.558616116217    -0.016769472261
    O            1.377559877021    -0.546739899445     0.268480627841
    C            0.723786165539     0.581042977422    -0.236732499747
    C           -0.712186232552     0.589355931234     0.234538914919
    H            0.748642654814     0.584860620518    -1.326895060223
    H            1.199238504442     1.498006640767     0.103276423646
    O           -1.460166438530    -0.508019159135    -0.200379388564
    H           -1.169335166185     1.517919979064    -0.101048722090
    H           -0.734102963714     0.578313509723     1.316274308279
    H           -1.143963662988    -0.816432251346    -1.029534925772

  Mulliken Charges: (a.u.)
   Center  Symbol    Alpha    Beta     Spin     Total
       1     H     0.39460  0.39460  0.00000  0.21080
       2     O     4.19314  4.19314  0.00000 -0.38627
       3     C     2.97629  2.97629  0.00000  0.04741
       4     C     2.95222  2.95222  0.00000  0.09557
       5     H     0.47920  0.47920  0.00000  0.04159
       6     H     0.47083  0.47083  0.00000  0.05833
       7     O     4.20061  4.20061  0.00000 -0.40123
       8     H     0.47734  0.47734  0.00000  0.04532
       9     H     0.46233  0.46233  0.00000  0.07535
      10     H     0.39344  0.39344  0.00000  0.21312

   Total alpha = 17.00000, Total beta = 17.00000, Total charge =  0.00000

*** Psi4 exiting successfully. Buy a developer a beer!
