  ==> Input File <==

--------------------------------------------------------------------------
set {
	reference rhf
	basis 6-31G*
}

set_num_threads( 1 )
memory 2 gb

molecule MOL {
0 1

H	 -1.836216	 1.387520	 -0.000064
C	 -1.301823	 0.443321	 -0.000031
O	 -0.003969	 0.658512	 0.000451
O	 -1.829879	 -0.616434	 -0.000857
C	 0.448461	 1.941224	 -0.432150
C	 1.959147	 1.943967	 -0.341921
H	 0.006744	 2.698414	 0.200990
H	 0.105858	 2.109230	 -1.443927
H	 2.284150	 1.766288	 0.676822
H	 2.345242	 2.905774	 -0.663000
H	 2.383904	 1.174292	 -0.976010

	symmetry c1
}
set optking {
	frozen_dihedral = ("
		7 5 3 2
	")
}

ee = energy('scf')
oeprop('DIPOLE', 'QUADRUPOLE', 'MULLIKEN_CHARGES')
f=open( 'psi4out.xyz', 'w' )
f.write( "11  " )
f.write( str(ee) + "\n" )
f.write( MOL.save_string_xyz() )
f.close()
--------------------------------------------------------------------------

    Molecular point group: c1

    Geometry (in Angstrom), charge = 0, multiplicity = 1:

       Center              X                  Y                   Z               Mass
    ------------   -----------------  -----------------  -----------------  -----------------
           H         -1.691264418686     0.512942232314     0.155509523030     1.007825032070
           C         -1.156871418686    -0.431256767686     0.155542523030    12.000000000000
           O          0.140982581314    -0.216065767686     0.156024523030    15.994914619560
           O         -1.684927418686    -1.491011767686     0.154716523030    15.994914619560
           C          0.593412581314     1.066646232314    -0.276576476970    12.000000000000
           C          2.104098581314     1.069389232314    -0.186347476970    12.000000000000
           H          0.151695581314     1.823836232314     0.356563523030     1.007825032070
           H          0.250809581314     1.234652232314    -1.288353476970     1.007825032070
           H          2.429101581314     0.891710232314     0.832395523030     1.007825032070
           H          2.490193581314     2.031196232314    -0.507426476970     1.007825032070
           H          2.528855581314     0.299714232314    -0.820436476970     1.007825032070

  Charge       = 0
  Multiplicity = 1
  Basis Set: 6-31G*
  Basis Set:

    Orbital Energies (a.u.)
    -----------------------

    Doubly Occupied:

       1A    -20.611530     2A    -20.556912     3A    -11.379504
       4A    -11.309203     5A    -11.235903     6A     -1.472769
       7A     -1.378851     8A     -1.058002     9A     -0.890719
      10A     -0.850614    11A     -0.736397    12A     -0.696671
      13A     -0.667063    14A     -0.603714    15A     -0.573024
      16A     -0.564199    17A     -0.533187    18A     -0.523477
      19A     -0.457979    20A     -0.449371

  @DF-RHF Final Energy:  -266.81730584932018

   => Energetics <=

    Nuclear Repulsion Energy =            176.1771516037669585
    One-Electron Energy =                -712.8907537256579872
    Two-Electron Energy =                 269.8962962725705665
    DFT Exchange-Correlation Energy =       0.0000000000000000
    Empirical Dispersion Energy =           0.0000000000000000
    PCM Polarization Energy =               0.0000000000000000
    EFP Energy =                            0.0000000000000000
    Total Energy =                       -266.8173058493204053

  Mulliken Charges: (a.u.)
   Center  Symbol    Alpha    Beta     Spin     Total
       1     H     0.43708  0.43708  0.00000  0.12583
       2     C     2.71380  2.71380  0.00000  0.57241
       3     O     4.28538  4.28538  0.00000 -0.57076
       4     O     4.25208  4.25208  0.00000 -0.50416
       5     C     3.01186  3.01186  0.00000 -0.02372
       6     C     3.24744  3.24744  0.00000 -0.49488
       7     H     0.41489  0.41489  0.00000  0.17021
       8     H     0.41206  0.41206  0.00000  0.17589
       9     H     0.40595  0.40595  0.00000  0.18810
      10     H     0.41514  0.41514  0.00000  0.16972
      11     H     0.40432  0.40432  0.00000  0.19135

   Total alpha = 20.00000, Total beta = 20.00000, Total charge =  0.00000
