  ==> Input File <==

--------------------------------------------------------------------------
set {
	reference rhf
	basis 6-31G*
}

set_num_threads( 1 )
memory 2 gb

molecule MOL {
0 1

H	 -3.161837	 0.500524	 -0.000234
C	 -2.367097	 -0.232926	 -0.000000
O	 -1.158440	 0.455814	 -0.000122
H	 -2.468853	 -0.861886	 -0.882833
H	 -2.468942	 -0.861421	 0.883154
C	 -0.029776	 -0.365156	 0.000148
C	 0.670248	 -0.236556	 -1.341527
H	 -0.319517	 -1.401605	 0.178256
H	 0.644071	 -0.076648	 0.807985
C	 1.923844	 -1.105541	 -1.432300
H	 -0.031911	 -0.508556	 -2.123607
H	 0.925011	 0.807098	 -1.498316
H	 1.687016	 -2.157877	 -1.302204
H	 2.403139	 -0.993981	 -2.399087
H	 2.650576	 -0.833340	 -0.671924

	symmetry c1
}
set optking {
	frozen_dihedral = ("
		6 3 2 4,
		11 7 6 8
	")
}

ee = energy('scf')
oeprop('DIPOLE', 'QUADRUPOLE', 'MULLIKEN_CHARGES')
f=open( 'psi4out.xyz', 'w' )
f.write( "15  " )
f.write( str(ee) + "\n" )
f.write( MOL.save_string_xyz() )
f.close()
--------------------------------------------------------------------------

    Molecular point group: c1

    Geometry (in Angstrom), charge = 0, multiplicity = 1:

       Center              X                  Y                   Z               Mass
    ------------   -----------------  -----------------  -----------------  -----------------
           H         -2.941718510837     0.803320807730     0.544494358443     1.007825032070
           C         -2.146978510837     0.069870807730     0.544728358443    12.000000000000
           O         -0.938321510837     0.758610807730     0.544606358443    15.994914619560
           H         -2.248734510837    -0.559089192270    -0.338104641557     1.007825032070
           H         -2.248823510837    -0.558624192270     1.427882358443     1.007825032070
           C          0.190342489163    -0.062359192270     0.544876358443    12.000000000000
           C          0.890366489163     0.066240807730    -0.796798641557    12.000000000000
           H         -0.099398510837    -1.098808192270     0.722984358443     1.007825032070
           H          0.864189489163     0.226148807730     1.352713358443     1.007825032070
           C          2.143962489163    -0.802744192270    -0.887571641557    12.000000000000
           H          0.188207489163    -0.205759192270    -1.578878641557     1.007825032070
           H          1.145129489163     1.109894807730    -0.953587641557     1.007825032070
           H          1.907134489163    -1.855080192270    -0.757475641557     1.007825032070
           H          2.623257489163    -0.691184192270    -1.854358641557     1.007825032070
           H          2.870694489163    -0.530543192270    -0.127195641557     1.007825032070

  Charge       = 0
  Multiplicity = 1
  Basis Set: 6-31G*
  Basis Set:

    Orbital Energies (a.u.)
    -----------------------

    Doubly Occupied:

       1A    -20.551097     2A    -11.265810     3A    -11.265276
       4A    -11.213008     5A    -11.212184     6A     -1.378090
       7A     -1.055847     8A     -0.956203     9A     -0.880350
      10A     -0.808476    11A     -0.671697    12A     -0.653763
      13A     -0.636992    14A     -0.598958    15A     -0.568988
      16A     -0.536343    17A     -0.507250    18A     -0.494415
      19A     -0.482751    20A     -0.463390    21A     -0.403761

  @DF-RHF Final Energy:  -232.13504577982090

   => Energetics <=

    Nuclear Repulsion Energy =            191.2271390982225228
    One-Electron Energy =                -693.5151065599451385
    Two-Electron Energy =                 270.1529216819009775
    DFT Exchange-Correlation Energy =       0.0000000000000000
    Empirical Dispersion Energy =           0.0000000000000000
    PCM Polarization Energy =               0.0000000000000000
    EFP Energy =                            0.0000000000000000
    Total Energy =                       -232.1350457798216098

  Mulliken Charges: (a.u.)
   Center  Symbol    Alpha    Beta     Spin     Total
       1     H     0.41259  0.41259  0.00000  0.17481
       2     C     3.08101  3.08101  0.00000 -0.16203
       3     O     4.30497  4.30497  0.00000 -0.60995
       4     H     0.43099  0.43099  0.00000  0.13802
       5     H     0.42891  0.42891  0.00000  0.14218
       6     C     2.99001  2.99001  0.00000  0.01999
       7     C     3.15592  3.15592  0.00000 -0.31183
       8     H     0.43206  0.43206  0.00000  0.13588
       9     H     0.42146  0.42146  0.00000  0.15708
      10     C     3.24912  3.24912  0.00000 -0.49825
      11     H     0.42068  0.42068  0.00000  0.15864
      12     H     0.41378  0.41378  0.00000  0.17244
      13     H     0.42194  0.42194  0.00000  0.15612
      14     H     0.41611  0.41611  0.00000  0.16779
      15     H     0.42045  0.42045  0.00000  0.15909

   Total alpha = 21.00000, Total beta = 21.00000, Total charge =  0.00000
