  ==> Input File <==

--------------------------------------------------------------------------
set {
	reference rhf
	basis 6-31G*
}

set_num_threads( 4 )
memory 2 gb

molecule MOL {
0 1

O	 3.749173	 0.512564	 1.824227
C	 2.980675	 -0.187454	 1.247646
C	 1.488609	 -0.229733	 1.472899
O	 3.347903	 -1.046386	 0.304773
C	 1.015327	 0.752272	 2.542379
H	 1.016559	 -0.045113	 0.513589
H	 1.230879	 -1.251790	 1.738742
C	 -0.480817	 0.647976	 2.857289
H	 1.256113	 1.764475	 2.231595
H	 1.582477	 0.575010	 3.449760
C	 -1.411442	 1.055987	 1.711612
H	 -0.689122	 1.281459	 3.716377
H	 -0.715760	 -0.368814	 3.168656
C	 -2.888489	 1.039953	 2.110452
H	 -1.142078	 2.054358	 1.370266
H	 -1.270466	 0.393726	 0.860431
C	 -3.828152	 1.440945	 0.971870
H	 -3.040637	 1.711093	 2.954049
H	 -3.155768	 0.044632	 2.462015
C	 -5.301017	 1.426077	 1.379483
H	 -3.561817	 2.434915	 0.618695
H	 -3.680635	 0.768550	 0.129312
H	 -5.941585	 1.714501	 0.551781
H	 -5.488174	 2.115245	 2.198150
H	 -5.607638	 0.436161	 1.705557
C	 4.728119	 -1.109107	 -0.004993
H	 4.882018	 -1.033965	 -1.071845
H	 5.068212	 -2.067527	 0.355250
H	 5.265056	 -0.311663	 0.488280

	symmetry c1
}
set optking {
	frozen_dihedral = ("
		2 4 26 27
	")
}

ee = optimize('scf')
oeprop('DIPOLE', 'QUADRUPOLE', 'MULLIKEN_CHARGES')
f=open( 'psi4out.xyz', 'w' )
f.write( "29  " )
f.write( str(ee) + "\n" )
f.write( MOL.save_string_xyz() )
f.close()
--------------------------------------------------------------------------

    Molecular point group: c1
  Charge       = 0
  Multiplicity = 1
  Basis Set: 6-31G*
  Basis Set:
  @DF-RHF Final Energy:  -501.04089532611647
    Total Energy =                       -501.0408953261170382
    Molecular point group: c1
  Basis Set: 6-31G*
  Basis Set:
  Basis Set: 6-31G*
  Basis Set:
  @DF-RHF Final Energy:  -501.04149684799302
    Total Energy =                       -501.0414968479922209
  Basis Set: 6-31G*
  Basis Set:
  Basis Set: 6-31G*
  Basis Set:
  @DF-RHF Final Energy:  -501.04181720825159
    Total Energy =                       -501.0418172082511319
  Basis Set: 6-31G*
  Basis Set:
  Basis Set: 6-31G*
  Basis Set:
  @DF-RHF Final Energy:  -501.04196946439276
    Total Energy =                       -501.0419694643928779
  Basis Set: 6-31G*
  Basis Set:
  @DF-RHF Final Energy:  -501.04207113868358
    Total Energy =                       -501.0420711386839230
  Basis Set: 6-31G*
  Basis Set:
  @DF-RHF Final Energy:  -501.04206993052162
    Total Energy =                       -501.0420699305211656
  Basis Set: 6-31G*
  Basis Set:
  Basis Set: 6-31G*
  Basis Set:
  @DF-RHF Final Energy:  -501.04207600479378
    Total Energy =                       -501.0420760047935573
  Basis Set: 6-31G*
  Basis Set:
  Basis Set: 6-31G*
  Basis Set:
  @DF-RHF Final Energy:  -501.04207332845886
    Total Energy =                       -501.0420733284586277
  Basis Set: 6-31G*
  Basis Set:
  Charge       = 0
  Multiplicity = 1
  Basis Set: 6-31G*
  Basis Set:

    Orbital Energies (a.u.)
    -----------------------

    Doubly Occupied:

       1A    -20.602291     2A    -20.544473     3A    -11.373438
       4A    -11.279165     5A    -11.234082     6A    -11.218552
       7A    -11.217290     8A    -11.215777     9A    -11.215661
      10A    -11.214261    11A    -11.208950    12A     -1.466247
      13A     -1.363007    14A     -1.097699    15A     -1.066507
      16A     -1.019562    17A     -0.977798    18A     -0.928419
      19A     -0.861262    20A     -0.798918    21A     -0.790175
      22A     -0.762866    23A     -0.701609    24A     -0.680208
      25A     -0.672026    26A     -0.650650    27A     -0.628822
      28A     -0.604855    29A     -0.595151    30A     -0.580353
      31A     -0.568249    32A     -0.550163    33A     -0.533891
      34A     -0.526798    35A     -0.515046    36A     -0.511480
      37A     -0.496176    38A     -0.477572    39A     -0.469852
      40A     -0.462132    41A     -0.458408    42A     -0.452072
      43A     -0.441229    44A     -0.435229

  @DF-RHF Final Energy:  -501.04207637712477

   => Energetics <=

    Nuclear Repulsion Energy =            609.7145425255076816
    One-Electron Energy =               -1890.5764998634572294
    Two-Electron Energy =                 779.8198809608251167
    DFT Exchange-Correlation Energy =       0.0000000000000000
    Empirical Dispersion Energy =           0.0000000000000000
    PCM Polarization Energy =               0.0000000000000000
    EFP Energy =                            0.0000000000000000
    Total Energy =                       -501.0420763771245447
    Molecular point group: c1
  Basis Set: 6-31G*
  Basis Set:

  -Total Gradient:
     Atom            X                  Y                   Z
    ------   -----------------  -----------------  -----------------
       1        0.000000788651     0.000001029769     0.000005502079
       2       -0.000078337212     0.000419481957    -0.000429744403
       3       -0.000001511854     0.000005710749    -0.000006191432
       4        0.000134424071    -0.000462534694     0.000622960518
       5        0.000001162918    -0.000001644967     0.000002907707
       6        0.000002337924    -0.000003386001     0.000001474147
       7       -0.000000040346    -0.000001499402     0.000003884715
       8       -0.000000384091     0.000001107016     0.000000805443
       9       -0.000000054279     0.000000217066    -0.000000032755
      10        0.000001003928     0.000000265014    -0.000000588031
      11       -0.000000815055    -0.000000827161    -0.000000434394
      12       -0.000001064339    -0.000000295802     0.000000116398
      13       -0.000000535672     0.000000349005     0.000000187656
      14        0.000000595465    -0.000000142312    -0.000000575340
      15        0.000000188546    -0.000000551562    -0.000000120833
      16       -0.000000144898    -0.000000146430     0.000000056852
      17        0.000000025929     0.000000608165     0.000000176024
      18        0.000000108931    -0.000000271619     0.000000364986
      19       -0.000000138017    -0.000000092370    -0.000000317878
      20        0.000000120541     0.000000155882     0.000000091415
      21        0.000000036778     0.000000095782    -0.000000233994
      22        0.000000005773    -0.000000049576     0.000000207369
      23        0.000000043630    -0.000000008789    -0.000000005261
      24       -0.000000063510     0.000000022922     0.000000005183
      25        0.000000036961    -0.000000004948     0.000000023571
      26       -0.000123029605    -0.000630062176    -0.000243540236
      27        0.000062778940     0.000671515522     0.000043853134
      28        0.000001043803    -0.000000056773    -0.000000342918
      29        0.000001416089     0.000001015735    -0.000000489722

  **** Optimization is complete! (in 9 steps) ****
    Final optimized geometry and variables:
    Molecular point group: c1

    Geometry (in Angstrom), charge = 0, multiplicity = 1:

    O            3.397697752859     0.155114183619     0.377508569869
    C            2.640627057670    -0.550792969825    -0.206288463696
    C            1.147134547639    -0.598867515429     0.011067421857
    O            3.004490028743    -1.413662751634    -1.148634078282
    C            0.663652319052     0.378669362369     1.079962378051
    H            0.679874012443    -0.414182124551    -0.950515361645
    H            0.892082932369    -1.622539692317     0.273066460094
    C           -0.834144342112     0.268146315966     1.384867148430
    H            0.902742000871     1.392553887313     0.773458325875
    H            1.225467847817     0.201050603712     1.990573585696
    C           -1.758823203171     0.676393133553     0.234446883669
    H           -1.050297531855     0.898292500346     2.244483212585
    H           -1.067574548065    -0.750398210473     1.691630869395
    C           -3.238334871645     0.654265257539     0.623760110783
    H           -1.490642645010     1.676661557988    -0.102243278649
    H           -1.610176736111     0.017127259843    -0.617739704987
    C           -4.172064103657     1.055306450129    -0.519669741697
    H           -3.398156478652     1.322490348063     1.468251506376
    H           -3.504483994721    -0.342939275335     0.970809324395
    C           -5.647483346797     1.033875350118    -0.121680420698
    H           -3.907068080525     2.051296384578    -0.868130156382
    H           -4.016649961651     0.386002412105    -1.363269426716
    H           -6.283732874896     1.322347639935    -0.952698747980
    H           -5.842473164733     1.719978091063     0.697731225960
    H           -5.952569144622     0.041906747776     0.199560936909
    C            4.371427034232    -1.512936722130    -1.510827940702
    H            4.425285914564    -1.446803536237    -2.587961525186
    H            4.744348992460    -2.474557687114    -1.185890453753
    H            4.946589740761    -0.722093779854    -1.059542474867

  Mulliken Charges: (a.u.)
   Center  Symbol    Alpha    Beta     Spin     Total
       1     O     4.28538  4.28538  0.00000 -0.57076
       2     C     2.60449  2.60449  0.00000  0.79102
       3     C     3.21020  3.21020  0.00000 -0.42040
       4     O     4.30960  4.30960  0.00000 -0.61921
       5     C     3.15374  3.15374  0.00000 -0.30749
       6     H     0.39897  0.39897  0.00000  0.20207
       7     H     0.40132  0.40132  0.00000  0.19736
       8     C     3.15658  3.15658  0.00000 -0.31317
       9     H     0.41316  0.41316  0.00000  0.17367
      10     H     0.40885  0.40885  0.00000  0.18229
      11     C     3.15503  3.15503  0.00000 -0.31005
      12     H     0.41832  0.41832  0.00000  0.16335
      13     H     0.42392  0.42392  0.00000  0.15215
      14     C     3.15028  3.15028  0.00000 -0.30056
      15     H     0.42265  0.42265  0.00000  0.15469
      16     H     0.42361  0.42361  0.00000  0.15278
      17     C     3.15144  3.15144  0.00000 -0.30289
      18     H     0.42335  0.42335  0.00000  0.15331
      19     H     0.42399  0.42399  0.00000  0.15201
      20     C     3.23934  3.23934  0.00000 -0.47868
      21     H     0.42282  0.42282  0.00000  0.15436
      22     H     0.42345  0.42345  0.00000  0.15310
      23     H     0.41926  0.41926  0.00000  0.16148
      24     H     0.42156  0.42156  0.00000  0.15689
      25     H     0.42184  0.42184  0.00000  0.15632
      26     C     3.09836  3.09836  0.00000 -0.19673
      27     H     0.41161  0.41161  0.00000  0.17678
      28     H     0.41291  0.41291  0.00000  0.17418
      29     H     0.39394  0.39394  0.00000  0.21212

   Total alpha = 44.00000, Total beta = 44.00000, Total charge =  0.00000
