  ==> Input File <==

--------------------------------------------------------------------------
set {
	reference rhf
	basis 6-31G*
}

set_num_threads( 4 )
memory 2 gb

molecule MOL {
0 1

H	 -2.499100	 -0.730091	 -0.745082
O	 -2.347518	 -0.290803	 0.079804
C	 -1.184022	 0.487508	 -0.006784
C	 0.062599	 -0.378592	 0.031606
H	 -1.176523	 1.099369	 -0.904519
H	 -1.187323	 1.153111	 0.844927
O	 1.171513	 0.459272	 -0.058250
H	 0.050699	 -1.089204	 -0.797170
H	 0.078739	 -0.954914	 0.954740
C	 2.359013	 -0.103263	 0.402770
H	 2.626109	 -0.991314	 -0.167016
H	 3.138527	 0.636495	 0.284373
H	 2.287576	 -0.375970	 1.453636

	symmetry c1
}
set optking {
	frozen_dihedral = ("
		10 7 4 8
	")
}

ee = optimize('scf')
oeprop('DIPOLE', 'QUADRUPOLE', 'MULLIKEN_CHARGES')
f=open( 'psi4out.xyz', 'w' )
f.write( "13  " )
f.write( str(ee) + "\n" )
f.write( MOL.save_string_xyz() )
f.close()
--------------------------------------------------------------------------

    Molecular point group: c1
  Charge       = 0
  Multiplicity = 1
  Basis Set: 6-31G*
  Basis Set:
  @DF-RHF Final Energy:  -267.94983181494098
    Total Energy =                       -267.9498318149410352
    Molecular point group: c1
  Basis Set: 6-31G*
  Basis Set:
  Basis Set: 6-31G*
  Basis Set:
  @DF-RHF Final Energy:  -267.94987108578721
    Total Energy =                       -267.9498710857871515
  Basis Set: 6-31G*
  Basis Set:
  Basis Set: 6-31G*
  Basis Set:
  @DF-RHF Final Energy:  -267.94988432226324
    Total Energy =                       -267.9498843222629603
  Basis Set: 6-31G*
  Basis Set:
  Charge       = 0
  Multiplicity = 1
  Basis Set: 6-31G*
  Basis Set:

    Orbital Energies (a.u.)
    -----------------------

    Doubly Occupied:

       1A    -20.561792     2A    -20.559878     3A    -11.270767
       4A    -11.270304     5A    -11.268596     6A     -1.387687
       7A     -1.364787     8A     -1.018329     9A     -0.913758
      10A     -0.841195    11A     -0.708851    12A     -0.675195
      13A     -0.659295    14A     -0.634643    15A     -0.598953
      16A     -0.571936    17A     -0.540085    18A     -0.488999
      19A     -0.484086    20A     -0.441136    21A     -0.418251

  @DF-RHF Final Energy:  -267.94988450544105

   => Energetics <=

    Nuclear Repulsion Energy =            190.2212034074178177
    One-Electron Energy =                -742.9851369150792380
    Two-Electron Energy =                 284.8140490022202584
    DFT Exchange-Correlation Energy =       0.0000000000000000
    Empirical Dispersion Energy =           0.0000000000000000
    PCM Polarization Energy =               0.0000000000000000
    EFP Energy =                            0.0000000000000000
    Total Energy =                       -267.9498845054412186
    Molecular point group: c1
  Basis Set: 6-31G*
  Basis Set:

  -Total Gradient:
     Atom            X                  Y                   Z
    ------   -----------------  -----------------  -----------------
       1       -0.000021756160    -0.000018523555    -0.000001277843
       2       -0.000010093570    -0.000020602236    -0.000036388016
       3       -0.000003084247     0.000024941864     0.000035944302
       4        0.001361545986    -0.001491224987     0.002177350526
       5       -0.000005360861     0.000002584123    -0.000001526074
       6        0.000027531659     0.000014375401    -0.000001140023
       7        0.000117522938    -0.000537844803    -0.002593469129
       8       -0.001139169637     0.001400284001    -0.001166611545
       9        0.000001047265     0.000000928516    -0.000001660061
      10       -0.000305701435     0.000616805495     0.001596972324
      11       -0.000009149087     0.000005653695    -0.000000512475
      12       -0.000000549555     0.000003085389    -0.000002847596
      13       -0.000012783291    -0.000000462904    -0.000004834389

  **** Optimization is complete! (in 4 steps) ****
    Final optimized geometry and variables:
    Molecular point group: c1

    Geometry (in Angstrom), charge = 0, multiplicity = 1:

    H           -2.482343925683    -0.738095502890    -0.858419570036
    O           -2.344015349121    -0.308159949797    -0.026274962041
    C           -1.177277129708     0.468332512771    -0.084024267290
    C            0.067844070728    -0.400996359976    -0.032935742450
    H           -1.152181471356     1.088414924850    -0.975764960411
    H           -1.194663793925     1.126512823868     0.773364435391
    O            1.179457434866     0.434515711288    -0.137344501963
    H            0.048667106496    -1.113663605756    -0.858873815212
    H            0.079242845588    -0.964783196064     0.896619419431
    C            2.375511900374    -0.120309861142     0.312548520091
    H            2.643318872373    -1.009033765103    -0.255735195338
    H            3.149032177769     0.623728216079     0.181516974310
    H            2.316323522280    -0.387688653931     1.365213456088

  Mulliken Charges: (a.u.)
   Center  Symbol    Alpha    Beta     Spin     Total
       1     H     0.28115  0.28115  0.00000  0.43769
       2     O     4.37104  4.37104  0.00000 -0.74207
       3     C     3.00461  3.00461  0.00000 -0.00923
       4     C     2.99662  2.99662  0.00000  0.00677
       5     H     0.42166  0.42166  0.00000  0.15667
       6     H     0.40992  0.40992  0.00000  0.18017
       7     O     4.30827  4.30827  0.00000 -0.61653
       8     H     0.43550  0.43550  0.00000  0.12899
       9     H     0.42363  0.42363  0.00000  0.15273
      10     C     3.08011  3.08011  0.00000 -0.16022
      11     H     0.42902  0.42902  0.00000  0.14195
      12     H     0.41116  0.41116  0.00000  0.17768
      13     H     0.42731  0.42731  0.00000  0.14538

   Total alpha = 21.00000, Total beta = 21.00000, Total charge = -0.00000
