  ==> Input File <==

--------------------------------------------------------------------------
set {
	reference rhf
	basis cc-pvtz
}

set_num_threads( 4 )
memory 2 gb

molecule MOL {
0 1

H	 -3.436473	 1.252944	 -1.023892
O	 -3.458596	 0.315260	 -0.960865
C	 -3.176635	 -0.080824	 0.355601
C	 -1.763371	 0.265266	 0.799691
H	 -3.321825	 -1.153438	 0.379502
H	 -3.895468	 0.357385	 1.043382
C	 -0.673390	 -0.426948	 -0.013392
H	 -1.631049	 1.344913	 0.747560
H	 -1.664587	 -0.001624	 1.849167
C	 0.737842	 -0.043159	 0.423759
H	 -0.806103	 -0.190518	 -1.063345
H	 -0.797221	 -1.503753	 0.074146
C	 1.824000	 -0.743224	 -0.390623
H	 0.850588	 1.033777	 0.343840
H	 0.868587	 -0.286314	 1.476203
C	 3.255957	 -0.453067	 0.062319
H	 1.718250	 -0.470599	 -1.438164
H	 1.658105	 -1.815850	 -0.339904
C	 4.214412	 -0.064555	 -1.060876
H	 3.644005	 -1.336856	 0.559422
H	 3.242248	 0.333683	 0.812157
H	 4.244349	 -0.830650	 -1.829171
H	 5.221973	 0.059763	 -0.680603
H	 3.928812	 0.867144	 -1.534137

	symmetry c1
}
set optking {
	frozen_dihedral = ("
		20 16 13 17
	")
}

ee = optimize('scf')
oeprop('DIPOLE', 'QUADRUPOLE', 'MULLIKEN_CHARGES')
f=open( 'psi4out.xyz', 'w' )
f.write( "24  " )
f.write( str(ee) + "\n" )
f.write( MOL.save_string_xyz() )
f.close()
--------------------------------------------------------------------------

    Molecular point group: c1
  Charge       = 0
  Multiplicity = 1
  Basis Set: CC-PVTZ
  Basis Set:
  @DF-RHF Final Energy:  -349.37655939702262
    Total Energy =                       -349.3765593970229020
    Molecular point group: c1
  Basis Set: CC-PVTZ
  Basis Set:
  Basis Set: CC-PVTZ
  Basis Set:
  @DF-RHF Final Energy:  -349.37697692819052
    Total Energy =                       -349.3769769281905155
  Basis Set: CC-PVTZ
  Basis Set:
  Basis Set: CC-PVTZ
  Basis Set:
  @DF-RHF Final Energy:  -349.37702031472173
    Total Energy =                       -349.3770203147221309
  Basis Set: CC-PVTZ
  Basis Set:
  Charge       = 0
  Multiplicity = 1
  Basis Set: CC-PVTZ
  Basis Set:

    Orbital Energies (a.u.)
    -----------------------

    Doubly Occupied:

       1A    -20.546350     2A    -11.265588     3A    -11.215302
       4A    -11.211444     5A    -11.211175     6A    -11.208957
       7A    -11.208826     8A    -11.205616     9A     -1.364201
      10A     -1.088838    11A     -1.048854    12A     -0.988958
      13A     -0.914348    14A     -0.843630    15A     -0.798960
      16A     -0.788174    17A     -0.681857    18A     -0.655559
      19A     -0.628493    20A     -0.616559    21A     -0.597644
      22A     -0.585208    23A     -0.552939    24A     -0.538356
      25A     -0.531167    26A     -0.504666    27A     -0.494332
      28A     -0.472068    29A     -0.469376    30A     -0.459717
      31A     -0.456978    32A     -0.452849    33A     -0.420409

  @DF-RHF Final Energy:  -349.37702046576186

   => Energetics <=

    Nuclear Repulsion Energy =            381.4913696200456457
    One-Electron Energy =               -1229.6819725959762764
    Two-Electron Energy =                 498.8135825101685441
    DFT Exchange-Correlation Energy =       0.0000000000000000
    Empirical Dispersion Energy =           0.0000000000000000
    PCM Polarization Energy =               0.0000000000000000
    EFP Energy =                            0.0000000000000000
    Total Energy =                       -349.3770204657621434
    Molecular point group: c1
  Basis Set: CC-PVTZ
  Basis Set:

  -Total Gradient:
     Atom            X                  Y                   Z
    ------   -----------------  -----------------  -----------------
       1        0.000000246965    -0.000000281900    -0.000000246456
       2       -0.000006256824     0.000000557220    -0.000006966406
       3        0.000000861939     0.000015134237    -0.000004380695
       4       -0.000009574593     0.000035050005    -0.000043806870
       5        0.000003040184    -0.000001184621     0.000001799841
       6       -0.000001746002    -0.000001660502     0.000002390044
       7       -0.000024039142     0.000056887355     0.000000248142
       8       -0.000003461767     0.000011044158     0.000013697266
       9        0.000010810902    -0.000013529413    -0.000017959235
      10       -0.000023788773    -0.000065644350     0.000159721646
      11       -0.000012544961    -0.000020335579    -0.000012146722
      12        0.000035933564     0.000017102712     0.000032224994
      13       -0.000610446066     0.002627584361     0.000247088108
      14        0.000027876749     0.000033001042     0.000054750443
      15       -0.000029612943    -0.000026789105    -0.000018202548
      16       -0.001093909019     0.000604745550     0.002625472723
      17        0.000861175764    -0.002348880031    -0.000637616128
      18        0.000084536053    -0.000022397079     0.000017753716
      19        0.000059668273    -0.000022835581    -0.000095749153
      20        0.000798214400    -0.000908368596    -0.002183701764
      21       -0.000100045326    -0.000021738857    -0.000027189793
      22        0.000017340521     0.000036832287    -0.000034343841
      23        0.000028373236    -0.000005804461    -0.000032673088
      24       -0.000012653136     0.000021511149    -0.000040164228

  **** Optimization is complete! (in 4 steps) ****
    Final optimized geometry and variables:
    Molecular point group: c1

    Geometry (in Angstrom), charge = 0, multiplicity = 1:

    H           -3.467467359674     1.434459804107    -0.901362795230
    O           -3.505129012756     0.496403159207    -0.853284920126
    C           -3.241184900041     0.075532035571     0.459129030570
    C           -1.826309070243     0.391309877583     0.920389339573
    H           -3.404125489157    -0.994787333805     0.464772311538
    H           -3.958777268909     0.514693886479     1.147604553620
    C           -0.740667685775    -0.304397738409     0.104395090662
    H           -1.676300534572     1.469414267329     0.887792666235
    H           -1.740443185993     0.105108063373     1.965874676226
    C            0.672115004109     0.048930688250     0.558707422450
    H           -0.861094848893    -0.048813666631    -0.942574841720
    H           -0.881695508308    -1.380502497599     0.173202428398
    C            1.761915185950    -0.640739640802    -0.257244157119
    H            0.811195576400     1.126185966611     0.498385496046
    H            0.792051232395    -0.212665050013     1.607781966834
    C            3.193556768509    -0.299072487905     0.199225600401
    H            1.643796492813    -0.390033701050    -1.307410668187
    H            1.613206776958    -1.715418313105    -0.203725661731
    C            4.119478966565     0.082574629608    -0.953652194753
    H            3.625399213730    -1.150846879813     0.713791821837
    H            3.167691613299     0.515426048677     0.915670596195
    H            4.189773744018    -0.720532916087    -1.679941170458
    H            5.121885735779     0.297446081751    -0.600386089174
    H            3.753986518657     0.962763633565    -1.472570995006

  Mulliken Charges: (a.u.)
   Center  Symbol    Alpha    Beta     Spin     Total
       1     H     0.39530  0.39530  0.00000  0.20940
       2     O     4.20365  4.20365  0.00000 -0.40730
       3     C     2.97778  2.97778  0.00000  0.04443
       4     C     3.10206  3.10206  0.00000 -0.20413
       5     H     0.45890  0.45890  0.00000  0.08221
       6     H     0.46025  0.46025  0.00000  0.07950
       7     C     3.08865  3.08865  0.00000 -0.17730
       8     H     0.45908  0.45908  0.00000  0.08184
       9     H     0.45331  0.45331  0.00000  0.09338
      10     C     3.08966  3.08966  0.00000 -0.17932
      11     H     0.44610  0.44610  0.00000  0.10779
      12     H     0.45535  0.45535  0.00000  0.08930
      13     C     3.09227  3.09227  0.00000 -0.18455
      14     H     0.45520  0.45520  0.00000  0.08960
      15     H     0.45451  0.45451  0.00000  0.09098
      16     C     3.08751  3.08751  0.00000 -0.17503
      17     H     0.45375  0.45375  0.00000  0.09250
      18     H     0.45197  0.45197  0.00000  0.09606
      19     C     3.14780  3.14780  0.00000 -0.29561
      20     H     0.45167  0.45167  0.00000  0.09666
      21     H     0.45476  0.45476  0.00000  0.09048
      22     H     0.45438  0.45438  0.00000  0.09124
      23     H     0.45011  0.45011  0.00000  0.09977
      24     H     0.45596  0.45596  0.00000  0.08808

   Total alpha = 33.00000, Total beta = 33.00000, Total charge =  0.00000
