  ==> Input File <==

--------------------------------------------------------------------------
set {
	reference rhf
	basis 6-31G*
}

set_num_threads( 1 )
memory 2 gb

molecule MOL {
0 1

O	 2.305749	 2.228690	 1.656467
C	 1.984792	 1.509000	 2.551894
C	 0.697214	 0.705116	 2.522713
C	 2.849657	 1.350593	 3.785617
C	 -0.132453	 0.905628	 1.257928
H	 0.957068	 -0.344936	 2.650215
H	 0.119671	 0.968645	 3.407811
C	 -1.420387	 0.080434	 1.264650
H	 0.468901	 0.644447	 0.392892
H	 -0.369666	 1.959445	 1.151405
C	 -2.259874	 0.272531	 0.000494
H	 -1.175360	 -0.974923	 1.375239
H	 -2.017893	 0.346181	 2.135531
C	 -3.549786	 -0.549746	 -0.000374
H	 -1.663800	 0.006494	 -0.870677
H	 -2.506142	 1.327047	 -0.110614
C	 -4.809590	 0.315458	 -0.000369
H	 -3.560515	 -1.202009	 -0.871156
H	 -3.561123	 -1.202955	 0.869711
H	 -4.844746	 0.956611	 -0.876632
H	 -5.706986	 -0.295590	 -0.001609
H	 -4.845960	 0.954827	 0.877144
H	 3.141639	 0.312261	 3.913018
H	 3.734046	 1.965437	 3.692568
H	 2.297889	 1.641498	 4.674752

	symmetry c1
}
set optking {
	frozen_dihedral = ("
		9 5 8 12,
		15 11 8 12,
		1 2 3 6,
		9 5 3 6
	")
}

ee = energy('scf')
oeprop('DIPOLE', 'QUADRUPOLE', 'MULLIKEN_CHARGES')
f=open( 'psi4out.xyz', 'w' )
f.write( "25  " )
f.write( str(ee) + "\n" )
f.write( MOL.save_string_xyz() )
f.close()
--------------------------------------------------------------------------

    Molecular point group: c1

    Geometry (in Angstrom), charge = 0, multiplicity = 1:

       Center              X                  Y                   Z               Mass
    ------------   -----------------  -----------------  -----------------  -----------------
           O          2.793499801017     1.465081426166     0.207275061124    15.994914619560
           C          2.472542801017     0.745391426166     1.102702061124    12.000000000000
           C          1.184964801017    -0.058492573834     1.073521061124    12.000000000000
           C          3.337407801017     0.586984426166     2.336425061124    12.000000000000
           C          0.355297801017     0.142019426166    -0.191263938876    12.000000000000
           H          1.444818801017    -1.108544573834     1.201023061124     1.007825032070
           H          0.607421801017     0.205036426166     1.958619061124     1.007825032070
           C         -0.932636198983    -0.683174573834    -0.184541938876    12.000000000000
           H          0.956651801017    -0.119161573834    -1.056299938876     1.007825032070
           H          0.118084801017     1.195836426166    -0.297786938876     1.007825032070
           C         -1.772123198983    -0.491077573834    -1.448697938876    12.000000000000
           H         -0.687609198983    -1.738531573834    -0.073952938876     1.007825032070
           H         -1.530142198983    -0.417427573834     0.686339061124     1.007825032070
           C         -3.062035198983    -1.313354573834    -1.449565938876    12.000000000000
           H         -1.176049198983    -0.757114573834    -2.319868938876     1.007825032070
           H         -2.018391198983     0.563438426166    -1.559805938876     1.007825032070
           C         -4.321839198983    -0.448150573834    -1.449560938876    12.000000000000
           H         -3.072764198983    -1.965617573834    -2.320347938876     1.007825032070
           H         -3.073372198983    -1.966563573834    -0.579480938876     1.007825032070
           H         -4.356995198983     0.193002426166    -2.325823938876     1.007825032070
           H         -5.219235198983    -1.059198573834    -1.450800938876     1.007825032070
           H         -4.358209198983     0.191218426166    -0.572047938876     1.007825032070
           H          3.629389801017    -0.451347573834     2.463826061124     1.007825032070
           H          4.221796801017     1.201828426166     2.243376061124     1.007825032070
           H          2.785639801017     0.877889426166     3.225560061124     1.007825032070

  Charge       = 0
  Multiplicity = 1
  Basis Set: 6-31G*
  Basis Set:

    Orbital Energies (a.u.)
    -----------------------

    Doubly Occupied:

       1A    -20.550413     2A    -11.326243     3A    -11.231820
       4A    -11.228319     5A    -11.217342     6A    -11.216235
       7A    -11.213688     8A    -11.211854     9A    -11.208760
      10A     -1.395708    11A     -1.093770    12A     -1.056286
      13A     -1.014113    14A     -0.968392    15A     -0.891731
      16A     -0.816821    17A     -0.788628    18A     -0.729774
      19A     -0.658416    20A     -0.652874    21A     -0.625867
      22A     -0.622510    23A     -0.604116    24A     -0.587789
      25A     -0.569385    26A     -0.557720    27A     -0.531647
      28A     -0.530596    29A     -0.516008    30A     -0.490550
      31A     -0.485052    32A     -0.477808    33A     -0.464736
      34A     -0.453735    35A     -0.449150    36A     -0.399259

  @DF-RHF Final Energy:  -387.13068919341384

   => Energetics <=

    Nuclear Repulsion Energy =            440.1090512492795028
    One-Electron Energy =               -1396.8048432475318350
    Two-Electron Energy =                 569.5651028048388298
    DFT Exchange-Correlation Energy =       0.0000000000000000
    Empirical Dispersion Energy =           0.0000000000000000
    PCM Polarization Energy =               0.0000000000000000
    EFP Energy =                            0.0000000000000000
    Total Energy =                       -387.1306891934135592

  Mulliken Charges: (a.u.)
   Center  Symbol    Alpha    Beta     Spin     Total
       1     O     4.26114  4.26114  0.00000 -0.52228
       2     C     2.73569  2.73569  0.00000  0.52862
       3     C     3.21084  3.21084  0.00000 -0.42168
       4     C     3.28664  3.28664  0.00000 -0.57328
       5     C     3.14856  3.14856  0.00000 -0.29713
       6     H     0.41006  0.41006  0.00000  0.17989
       7     H     0.41011  0.41011  0.00000  0.17977
       8     C     3.15628  3.15628  0.00000 -0.31255
       9     H     0.41211  0.41211  0.00000  0.17578
      10     H     0.41212  0.41212  0.00000  0.17576
      11     C     3.15451  3.15451  0.00000 -0.30902
      12     H     0.42418  0.42418  0.00000  0.15164
      13     H     0.42474  0.42474  0.00000  0.15052
      14     C     3.15465  3.15465  0.00000 -0.30929
      15     H     0.41982  0.41982  0.00000  0.16036
      16     H     0.41940  0.41940  0.00000  0.16120
      17     C     3.24032  3.24032  0.00000 -0.48064
      18     H     0.42018  0.42018  0.00000  0.15964
      19     H     0.42099  0.42099  0.00000  0.15801
      20     H     0.42067  0.42067  0.00000  0.15865
      21     H     0.42067  0.42067  0.00000  0.15867
      22     H     0.42239  0.42239  0.00000  0.15521
      23     H     0.40875  0.40875  0.00000  0.18250
      24     H     0.39647  0.39647  0.00000  0.20707
      25     H     0.40871  0.40871  0.00000  0.18258

   Total alpha = 36.00000, Total beta = 36.00000, Total charge = -0.00000
