                              Psi4 1.0.54 Driver

  ==> Input File <==

--------------------------------------------------------------------------
set {
	reference rhf
	basis cc-pvtz
}

set_num_threads( 4 )
memory 2 gb

molecule MOL {
0 1

H	 -4.231198	 0.342116	 0.282318
O	 -3.515113	 -0.019339	 -0.206321
C	 -2.302264	 0.528872	 0.237390
C	 -1.175688	 -0.398187	 -0.171891
H	 -2.148018	 1.514076	 -0.197759
H	 -2.310727	 0.646384	 1.319032
C	 0.196029	 0.106276	 0.266738
H	 -1.201873	 -0.515469	 -1.250677
H	 -1.365975	 -1.378728	 0.252664
C	 1.330220	 -0.826136	 -0.155230
H	 0.359542	 1.097229	 -0.145561
H	 0.212134	 0.218135	 1.348778
C	 2.719700	 -0.407669	 0.328325
H	 1.339388	 -0.911200	 -1.239363
H	 1.119001	 -1.821953	 0.224128
C	 3.241564	 0.893452	 -0.276737
H	 3.418299	 -1.204729	 0.093035
H	 2.711776	 -0.323368	 1.411960
H	 3.254204	 0.841071	 -1.360784
H	 2.634460	 1.745075	 0.005842
H	 4.254264	 1.092401	 0.054971

	symmetry c1
}
set optking {
	frozen_dihedral = ("
		1 2 3 5
	")
}

ee,wfn = optimize('scf', return_wfn=True)
oeprop( wfn, 'DIPOLE', 'QUADRUPOLE', 'MULLIKEN_CHARGES')
f=open( 'psi4out.xyz', 'w' )
f.write( "21  " )
f.write( str(ee) + "\n" )
f.write( MOL.save_string_xyz() )
f.close()
--------------------------------------------------------------------------

    Molecular point group: c1
  Charge       = 0
  Multiplicity = 1
  Basis Set: CC-PVTZ
  Basis Set:
  @DF-RHF Final Energy:  -310.33258952891197
    Total Energy =                       -310.3325895289118534
    Molecular point group: c1
  Basis Set: CC-PVTZ
  Basis Set:
  Basis Set: CC-PVTZ
  Basis Set:
  @DF-RHF Final Energy:  -310.33261102743012
    Total Energy =                       -310.3326110274301755
  Basis Set: CC-PVTZ
  Basis Set:
  Basis Set: CC-PVTZ
  Basis Set:
  @DF-RHF Final Energy:  -310.33261611373149
    Total Energy =                       -310.3326161137315466
  Basis Set: CC-PVTZ
  Basis Set:
  Charge       = 0
  Multiplicity = 1
  Basis Set: CC-PVTZ
  Basis Set:

    Orbital Energies (a.u.)
    -----------------------

    Doubly Occupied:

       1A    -20.545074     2A    -11.265073     3A    -11.213161
       4A    -11.213063     5A    -11.211290     6A    -11.208768
       7A    -11.206025     8A     -1.362877     9A     -1.087393
      10A     -1.034381    11A     -0.955519    12A     -0.876490
      13A     -0.807723    14A     -0.779298    15A     -0.697956
      16A     -0.660804    17A     -0.621930    18A     -0.609791
      19A     -0.588401    20A     -0.569342    21A     -0.539935
      22A     -0.521397    23A     -0.509224    24A     -0.490959
      25A     -0.477442    26A     -0.460639    27A     -0.456161
      28A     -0.449293    29A     -0.432939

  @DF-RHF Final Energy:  -310.33261600775370

   => Energetics <=

    Nuclear Repulsion Energy =            312.8567595735484019
    One-Electron Energy =               -1040.6740545466079766
    Two-Electron Energy =                 417.4846789653057613
    DFT Exchange-Correlation Energy =       0.0000000000000000
    Empirical Dispersion Energy =           0.0000000000000000
    PCM Polarization Energy =               0.0000000000000000
    EFP Energy =                            0.0000000000000000
    Total Energy =                       -310.3326160077538134
    Molecular point group: c1
  Basis Set: CC-PVTZ
  Basis Set:

  -Total Gradient:
     Atom            X                  Y                   Z
    ------   -----------------  -----------------  -----------------
       1        0.000161486625    -0.001056278928     0.000830297717
       2       -0.000024335591     0.001146285739    -0.001203723151
       3       -0.000675234596     0.000579386506     0.001356007980
       4        0.000060830408    -0.000046823457     0.000069730720
       5        0.000589505779    -0.000444251166    -0.000945127084
       6       -0.000048655284    -0.000129755472    -0.000097439482
       7       -0.000054398651     0.000011422691     0.000015040388
       8       -0.000051354971     0.000018147471    -0.000014871551
       9        0.000077412248    -0.000071612120    -0.000015800131
      10       -0.000019045633     0.000008262924    -0.000039967849
      11       -0.000065321449    -0.000069919119    -0.000009120113
      12        0.000023643030     0.000035353289     0.000039669857
      13       -0.000062961346     0.000044010319     0.000055888870
      14       -0.000007596818     0.000023873602    -0.000013499791
      15        0.000017313365    -0.000022120713    -0.000017954434
      16        0.000038400071    -0.000002173614    -0.000029181761
      17        0.000013910845    -0.000041747734     0.000005853606
      18       -0.000014197884     0.000014876436     0.000038721547
      19       -0.000003468434     0.000014126004    -0.000026075442
      20        0.000031782710     0.000002506548     0.000015435157
      21        0.000012285568    -0.000013569205    -0.000013885051

  **** Optimization is complete! (in 4 steps) ****
    Final optimized geometry and variables:
    Molecular point group: c1

    Geometry (in Angstrom), charge = 0, multiplicity = 1:

    H           -4.235595943864     0.371784237875     0.269553564383
    O           -3.516774580700     0.010941112660    -0.214318440259
    C           -2.301519627420     0.530366122512     0.259044819036
    C           -1.178148766601    -0.397061474773    -0.161285633776
    H           -2.130287558619     1.521466218378    -0.155510959146
    H           -2.319903941490     0.621897740998     1.342096157039
    C            0.197386832353     0.107007474876     0.265013286188
    H           -1.214563781788    -0.509914196584    -1.240406054946
    H           -1.363587834559    -1.379713000668     0.260558114064
    C            1.326940487719    -0.829098753662    -0.160890167269
    H            0.358973708788     1.095693066953    -0.152980499725
    H            0.221955207022     0.223846652153     1.346564891027
    C            2.719688288257    -0.414858997945     0.316843584689
    H            1.331302612482    -0.914691826635    -1.244982404237
    H            1.114198584789    -1.824076015241     0.219852470105
    C            3.246795002441     0.880025661856    -0.297002194401
    H            3.413633339700    -1.216791266335     0.084161979486
    H            2.715041499361    -0.324492114854     1.400053957176
    H            3.253073436139     0.822657954975    -1.380840493114
    H            2.646919317432     1.736925236803    -0.014960056784
    H            4.262622809969     1.073685685085     0.028202463519

  Mulliken Charges: (a.u.)
   Center  Symbol    Alpha    Beta     Spin     Total
       1     H     0.39536  0.39536  0.00000  0.20927
       2     O     4.19716  4.19716  0.00000 -0.39432
       3     C     2.96422  2.96422  0.00000  0.07156
       4     C     3.08285  3.08285  0.00000 -0.16571
       5     H     0.47347  0.47347  0.00000  0.05306
       6     H     0.47512  0.47512  0.00000  0.04976
       7     C     3.10329  3.10329  0.00000 -0.20659
       8     H     0.45035  0.45035  0.00000  0.09931
       9     H     0.45194  0.45194  0.00000  0.09612
      10     C     3.09407  3.09407  0.00000 -0.18813
      11     H     0.45302  0.45302  0.00000  0.09395
      12     H     0.45607  0.45607  0.00000  0.08787
      13     C     3.08989  3.08989  0.00000 -0.17977
      14     H     0.45299  0.45299  0.00000  0.09401
      15     H     0.44898  0.44898  0.00000  0.10204
      16     C     3.15227  3.15227  0.00000 -0.30455
      17     H     0.44848  0.44848  0.00000  0.10304
      18     H     0.45514  0.45514  0.00000  0.08971
      19     H     0.45459  0.45459  0.00000  0.09083
      20     H     0.45420  0.45420  0.00000  0.09159
      21     H     0.44653  0.44653  0.00000  0.10693

   Total alpha = 29.00000, Total beta = 29.00000, Total charge = -0.00000

*** Psi4 exiting successfully. Buy a developer a beer!
