  ==> Input File <==

--------------------------------------------------------------------------
set {
	reference rhf
	basis 6-31G*
}

set_num_threads( 1 )
memory 2 gb

molecule MOL {
0 1

H	 -3.420663	 1.227371	 -1.044276
O	 -3.452007	 0.283848	 -0.965577
C	 -3.181085	 -0.079926	 0.364119
C	 -1.765924	 0.277073	 0.805136
H	 -3.327791	 -1.152017	 0.410903
H	 -3.905698	 0.375695	 1.036898
C	 -0.677594	 -0.417312	 -0.014550
H	 -1.637766	 1.358238	 0.744969
H	 -1.659588	 0.017670	 1.857098
C	 0.738335	 -0.034840	 0.421385
H	 -0.814977	 -0.178223	 -1.064632
H	 -0.802730	 -1.495410	 0.071702
C	 1.822265	 -0.738362	 -0.399735
H	 0.853533	 1.043532	 0.342250
H	 0.871597	 -0.279636	 1.474438
C	 1.449537	 -1.000471	 -1.863473
H	 2.080346	 -1.681808	 0.078802
H	 2.724770	 -0.131079	 -0.377191
C	 0.302867	 -1.993997	 -2.059579
H	 2.328782	 -1.377387	 -2.380341
H	 1.196701	 -0.057679	 -2.344534
H	 0.522495	 -2.943065	 -1.577737
H	 0.139241	 -2.190444	 -3.114791
H	 -0.630848	 -1.623201	 -1.649881

	symmetry c1
}
set optking {
	frozen_dihedral = ("
		20 16 13 17,
		13 10 7 11,
		11 7 4 3,
		1 2 3 5,
		7 4 3 2
	")
}

ee = energy('scf')
oeprop('DIPOLE', 'QUADRUPOLE', 'MULLIKEN_CHARGES')
f=open( 'psi4out.xyz', 'w' )
f.write( "24  " )
f.write( str(ee) + "\n" )
f.write( MOL.save_string_xyz() )
f.close()
--------------------------------------------------------------------------

    Molecular point group: c1

    Geometry (in Angstrom), charge = 0, multiplicity = 1:

       Center              X                  Y                   Z               Mass
    ------------   -----------------  -----------------  -----------------  -----------------
           H         -2.762041170068     1.679251778348    -0.562016913546     1.007825032070
           O         -2.793385170068     0.735728778348    -0.483317913546    15.994914619560
           C         -2.522463170068     0.371954778348     0.846378086454    12.000000000000
           C         -1.107302170068     0.728953778348     1.287395086454    12.000000000000
           H         -2.669169170068    -0.700136221652     0.893162086454     1.007825032070
           H         -3.247076170068     0.827575778348     1.519157086454     1.007825032070
           C         -0.018972170068     0.034568778348     0.467709086454    12.000000000000
           H         -0.979144170068     1.810118778348     1.227228086454     1.007825032070
           H         -1.000966170068     0.469550778348     2.339357086454     1.007825032070
           C          1.396956829932     0.417040778348     0.903644086454    12.000000000000
           H         -0.156355170068     0.273657778348    -0.582372913546     1.007825032070
           H         -0.144108170068    -1.043529221652     0.553961086454     1.007825032070
           C          2.480886829932    -0.286481221652     0.082524086454    12.000000000000
           H          1.512154829932     1.495412778348     0.824509086454     1.007825032070
           H          1.530218829932     0.172244778348     1.956697086454     1.007825032070
           C          2.108158829932    -0.548590221652    -1.381213913546    12.000000000000
           H          2.738967829932    -1.229927221652     0.561061086454     1.007825032070
           H          3.383391829932     0.320801778348     0.105068086454     1.007825032070
           C          0.961488829932    -1.542116221652    -1.577319913546    12.000000000000
           H          2.987403829932    -0.925506221652    -1.898081913546     1.007825032070
           H          1.855322829932     0.394201778348    -1.862274913546     1.007825032070
           H          1.181116829932    -2.491184221652    -1.095477913546     1.007825032070
           H          0.797862829932    -1.738563221652    -2.632531913546     1.007825032070
           H          0.027773829932    -1.171320221652    -1.167621913546     1.007825032070

  Charge       = 0
  Multiplicity = 1
  Basis Set: 6-31G*
  Basis Set:

    Orbital Energies (a.u.)
    -----------------------

    Doubly Occupied:

       1A    -20.554854     2A    -11.268241     3A    -11.216194
       4A    -11.213150     5A    -11.211628     6A    -11.210823
       7A    -11.209109     8A    -11.192863     9A     -1.361358
      10A     -1.095451    11A     -1.041617    12A     -0.980650
      13A     -0.927796    14A     -0.847883    15A     -0.802980
      16A     -0.772548    17A     -0.683123    18A     -0.658205
      19A     -0.624242    20A     -0.611857    21A     -0.604801
      22A     -0.585493    23A     -0.556770    24A     -0.540366
      25A     -0.521263    26A     -0.505295    27A     -0.496911
      28A     -0.474488    29A     -0.471417    30A     -0.458301
      31A     -0.450833    32A     -0.426353    33A     -0.418752

  @DF-RHF Final Energy:  -349.21554955736741

   => Energetics <=

    Nuclear Repulsion Energy =            404.5834764744777772
    One-Electron Energy =               -1275.6067181536961925
    Two-Electron Energy =                 521.8076921218510051
    DFT Exchange-Correlation Energy =       0.0000000000000000
    Empirical Dispersion Energy =           0.0000000000000000
    PCM Polarization Energy =               0.0000000000000000
    EFP Energy =                            0.0000000000000000
    Total Energy =                       -349.2155495573674671

  Mulliken Charges: (a.u.)
   Center  Symbol    Alpha    Beta     Spin     Total
       1     H     0.28311  0.28311  0.00000  0.43378
       2     O     4.36872  4.36872  0.00000 -0.73744
       3     C     2.99693  2.99693  0.00000  0.00613
       4     C     3.16540  3.16540  0.00000 -0.33080
       5     H     0.41671  0.41671  0.00000  0.16657
       6     H     0.42777  0.42777  0.00000  0.14446
       7     C     3.17342  3.17342  0.00000 -0.34684
       8     H     0.42909  0.42909  0.00000  0.14181
       9     H     0.42302  0.42302  0.00000  0.15395
      10     C     3.14869  3.14869  0.00000 -0.29739
      11     H     0.40399  0.40399  0.00000  0.19201
      12     H     0.41646  0.41646  0.00000  0.16708
      13     C     3.15371  3.15371  0.00000 -0.30741
      14     H     0.42383  0.42383  0.00000  0.15233
      15     H     0.42244  0.42244  0.00000  0.15513
      16     C     3.15950  3.15950  0.00000 -0.31900
      17     H     0.42337  0.42337  0.00000  0.15326
      18     H     0.42086  0.42086  0.00000  0.15828
      19     C     3.24648  3.24648  0.00000 -0.49295
      20     H     0.41949  0.41949  0.00000  0.16103
      21     H     0.42376  0.42376  0.00000  0.15249
      22     H     0.42540  0.42540  0.00000  0.14919
      23     H     0.42163  0.42163  0.00000  0.15675
      24     H     0.40621  0.40621  0.00000  0.18757

   Total alpha = 33.00000, Total beta = 33.00000, Total charge =  0.00000
