  ==> Input File <==

--------------------------------------------------------------------------
set {
	reference rhf
	basis cc-pvtz
}

set_num_threads( 4 )
memory 2 gb

molecule MOL {
0 1

O	 0.395927	 1.296676	 -0.000076
C	 0.503051	 0.114301	 -0.000074
C	 -0.701422	 -0.805636	 -0.000109
C	 1.858118	 -0.556123	 0.000212
C	 -2.001852	 -0.124323	 -0.396055
H	 -0.479933	 -1.635461	 -0.666269
H	 -0.779370	 -1.243523	 0.991667
H	 -1.934217	 0.291418	 -1.392455
H	 -2.819831	 -0.834506	 -0.375908
H	 -2.236325	 0.686832	 0.280171
H	 1.961106	 -1.191101	 -0.872843
H	 2.636688	 0.191085	 -0.000109
H	 1.961070	 -1.190284	 0.873873

	symmetry c1
}
set optking {
	frozen_dihedral = ("
		6 3 2 1
	")
}

ee = optimize('scf')
oeprop('DIPOLE', 'QUADRUPOLE', 'MULLIKEN_CHARGES')
f=open( 'psi4out.xyz', 'w' )
f.write( "13  " )
f.write( str(ee) + "\n" )
f.write( MOL.save_string_xyz() )
f.close()
--------------------------------------------------------------------------

    Molecular point group: c1
  Charge       = 0
  Multiplicity = 1
  Basis Set: CC-PVTZ
  Basis Set:
  @DF-RHF Final Energy:  -231.08315337815034
    Total Energy =                       -231.0831533781504277
    Molecular point group: c1
  Basis Set: CC-PVTZ
  Basis Set:
  Basis Set: CC-PVTZ
  Basis Set:
  @DF-RHF Final Energy:  -231.08211856339460
    Total Energy =                       -231.0821185633946584
  Basis Set: CC-PVTZ
  Basis Set:
  Basis Set: CC-PVTZ
  Basis Set:
  @DF-RHF Final Energy:  -231.08331662693885
    Total Energy =                       -231.0833166269389949
  Basis Set: CC-PVTZ
  Basis Set:
  Basis Set: CC-PVTZ
  Basis Set:
  @DF-RHF Final Energy:  -231.08337587392396
    Total Energy =                       -231.0833758739238419
  Basis Set: CC-PVTZ
  Basis Set:
  Basis Set: CC-PVTZ
  Basis Set:
  @DF-RHF Final Energy:  -231.08339667218095
    Total Energy =                       -231.0833966721809247
  Basis Set: CC-PVTZ
  Basis Set:
  Basis Set: CC-PVTZ
  Basis Set:
  @DF-RHF Final Energy:  -231.08340964839081
    Total Energy =                       -231.0834096483911253
  Basis Set: CC-PVTZ
  Basis Set:
  Charge       = 0
  Multiplicity = 1
  Basis Set: CC-PVTZ
  Basis Set:

    Orbital Energies (a.u.)
    -----------------------

    Doubly Occupied:

       1A    -20.539366     2A    -11.321341     3A    -11.233674
       4A    -11.227700     5A    -11.213225     6A     -1.399740
       7A     -1.063015     8A     -1.001433     9A     -0.879521
      10A     -0.731222    11A     -0.660794    12A     -0.641994
      13A     -0.623518    14A     -0.584558    15A     -0.572016
      16A     -0.523461    17A     -0.515776    18A     -0.508570
      19A     -0.487688    20A     -0.404716

  @DF-RHF Final Energy:  -231.08341055327855

   => Energetics <=

    Nuclear Repulsion Energy =            177.2787801942791930
    One-Electron Energy =                -664.4577284979429805
    Two-Electron Energy =                 256.0955377503852901
    DFT Exchange-Correlation Energy =       0.0000000000000000
    Empirical Dispersion Energy =           0.0000000000000000
    PCM Polarization Energy =               0.0000000000000000
    EFP Energy =                            0.0000000000000000
    Total Energy =                       -231.0834105532784974
    Molecular point group: c1
  Basis Set: CC-PVTZ
  Basis Set:

  -Total Gradient:
     Atom            X                  Y                   Z
    ------   -----------------  -----------------  -----------------
       1       -0.000010004426     0.000020384159     0.000876580079
       2        0.000105665064    -0.000115799492    -0.001086440014
       3       -0.000408231619     0.000498925024    -0.000451520151
       4       -0.000006079264     0.000028142534     0.000012912267
       5       -0.000002030390    -0.000000831272    -0.000001805628
       6        0.000331522542    -0.000408796917     0.000673543490
       7       -0.000000686005     0.000004695317    -0.000004023999
       8       -0.000003580311     0.000002497903    -0.000005629051
       9        0.000000902362    -0.000000532280    -0.000000794360
      10        0.000001188438    -0.000000704814    -0.000000250073
      11       -0.000006885746    -0.000008635745    -0.000006291072
      12        0.000002053995    -0.000010442687    -0.000002494499
      13       -0.000003834641    -0.000008901731    -0.000003786992

  **** Optimization is complete! (in 7 steps) ****
    Final optimized geometry and variables:
    Molecular point group: c1

    Geometry (in Angstrom), charge = 0, multiplicity = 1:

    O            0.391176759429     1.305421681315     0.018625705400
    C            0.497951137448     0.123872845251     0.064860807034
    C           -0.707818196340    -0.793607249206     0.100367125209
    C            1.851370139421    -0.546570838643     0.111861023224
    C           -2.014653035736    -0.117210371222    -0.283491438631
    H           -0.507120805845    -1.656421509733    -0.527444277705
    H           -0.764115261998    -1.183272473353     1.114890820218
    H           -1.974293557998     0.257943215078    -1.298358752329
    H           -2.837045515005    -0.818909544179    -0.213176590263
    H           -2.220781506204     0.721171400109     0.366842974695
    H            2.029694487793    -1.059360878516    -0.827721599197
    H            2.623229058394     0.191299795342     0.267861409567
    H            1.885206648723    -1.292497447595     0.897735824172

  Mulliken Charges: (a.u.)
   Center  Symbol    Alpha    Beta     Spin     Total
       1     O     4.17082  4.17082  0.00000 -0.34164
       2     C     2.86189  2.86189  0.00000  0.27622
       3     C     3.10119  3.10119  0.00000 -0.20237
       4     C     3.15034  3.15034  0.00000 -0.30068
       5     C     3.14178  3.14178  0.00000 -0.28356
       6     H     0.44679  0.44679  0.00000  0.10642
       7     H     0.44586  0.44586  0.00000  0.10829
       8     H     0.45087  0.45087  0.00000  0.09826
       9     H     0.45052  0.45052  0.00000  0.09895
      10     H     0.44413  0.44413  0.00000  0.11173
      11     H     0.44885  0.44885  0.00000  0.10229
      12     H     0.43583  0.43583  0.00000  0.12835
      13     H     0.45113  0.45113  0.00000  0.09774

   Total alpha = 20.00000, Total beta = 20.00000, Total charge = -0.00000
