  ==> Input File <==

--------------------------------------------------------------------------
set {
	reference rhf
	basis 6-31G*
}

set_num_threads( 1 )
memory 2 gb

molecule MOL {
0 1

H	 2.844210	 0.348434	 0.596724
C	 1.951159	 -0.223429	 0.317018
C	 0.692068	 0.589600	 0.160137
O	 2.020525	 -1.399254	 0.159687
C	 -0.558097	 -0.297372	 0.091132
H	 0.791645	 1.202255	 -0.728243
H	 0.616171	 1.253469	 1.020572
C	 -1.850991	 0.512573	 -0.019058
H	 -0.476753	 -0.965681	 -0.762987
H	 -0.604799	 -0.930658	 0.975228
C	 -3.096943	 -0.368295	 -0.099594
H	 -1.800724	 1.150330	 -0.898172
H	 -1.931651	 1.177355	 0.838044
H	 -3.060452	 -1.020287	 -0.967456
H	 -3.996858	 0.233488	 -0.175704
H	 -3.191959	 -0.995686	 0.782074

	symmetry c1
}
set optking {
	frozen_dihedral = ("
		9 5 8 12,
		6 3 5 9
	")
}

ee = energy('scf')
oeprop('DIPOLE', 'QUADRUPOLE', 'MULLIKEN_CHARGES')
f=open( 'psi4out.xyz', 'w' )
f.write( "16  " )
f.write( str(ee) + "\n" )
f.write( MOL.save_string_xyz() )
f.close()
--------------------------------------------------------------------------

    Molecular point group: c1

    Geometry (in Angstrom), charge = 0, multiplicity = 1:

       Center              X                  Y                   Z               Mass
    ------------   -----------------  -----------------  -----------------  -----------------
           H          2.994446033487     0.561736663537     0.496400030449     1.007825032070
           C          2.101395033487    -0.010126336463     0.216694030449    12.000000000000
           C          0.842304033487     0.802902663537     0.059813030449    12.000000000000
           O          2.170761033487    -1.185951336463     0.059363030449    15.994914619560
           C         -0.407860966513    -0.084069336463    -0.009191969551    12.000000000000
           H          0.941881033487     1.415557663537    -0.828566969551     1.007825032070
           H          0.766407033487     1.466771663537     0.920248030449     1.007825032070
           C         -1.700754966513     0.725875663537    -0.119381969551    12.000000000000
           H         -0.326516966513    -0.752378336463    -0.863310969551     1.007825032070
           H         -0.454562966513    -0.717355336463     0.874904030449     1.007825032070
           C         -2.946706966513    -0.154992336463    -0.199917969551    12.000000000000
           H         -1.650487966513     1.363632663537    -0.998495969551     1.007825032070
           H         -1.781414966513     1.390657663537     0.737720030449     1.007825032070
           H         -2.910215966513    -0.806984336463    -1.067779969551     1.007825032070
           H         -3.846621966513     0.446790663537    -0.276027969551     1.007825032070
           H         -3.041722966513    -0.782383336463     0.681750030449     1.007825032070

  Charge       = 0
  Multiplicity = 1
  Basis Set: 6-31G*
  Basis Set:

    Orbital Energies (a.u.)
    -----------------------

    Doubly Occupied:

       1A    -20.564276     2A    -11.328357     3A    -11.237216
       4A    -11.222016     5A    -11.221155     6A    -11.211897
       7A     -1.404603     8A     -1.087581     9A     -1.014878
      10A     -0.907073    11A     -0.812802    12A     -0.771044
      13A     -0.674901    14A     -0.657465    15A     -0.628681
      16A     -0.600212    17A     -0.582755    18A     -0.534057
      19A     -0.527323    20A     -0.498860    21A     -0.481841
      22A     -0.475594    23A     -0.471827    24A     -0.411170

  @DF-RHF Final Energy:  -270.02055207358899

   => Energetics <=

    Nuclear Repulsion Energy =            232.1671476992748921
    One-Electron Energy =                -825.7202199142996051
    Two-Electron Energy =                 323.5325201414356115
    DFT Exchange-Correlation Energy =       0.0000000000000000
    Empirical Dispersion Energy =           0.0000000000000000
    PCM Polarization Energy =               0.0000000000000000
    EFP Energy =                            0.0000000000000000
    Total Energy =                       -270.0205520735891014

  Mulliken Charges: (a.u.)
   Center  Symbol    Alpha    Beta     Spin     Total
       1     H     0.42752  0.42752  0.00000  0.14495
       2     C     2.83595  2.83595  0.00000  0.32811
       3     C     3.21360  3.21360  0.00000 -0.42719
       4     O     4.23658  4.23658  0.00000 -0.47315
       5     C     3.14980  3.14980  0.00000 -0.29961
       6     H     0.40346  0.40346  0.00000  0.19308
       7     H     0.41037  0.41037  0.00000  0.17925
       8     C     3.15297  3.15297  0.00000 -0.30593
       9     H     0.41008  0.41008  0.00000  0.17984
      10     H     0.41439  0.41439  0.00000  0.17123
      11     C     3.23948  3.23948  0.00000 -0.47897
      12     H     0.42351  0.42351  0.00000  0.15299
      13     H     0.42397  0.42397  0.00000  0.15207
      14     H     0.41957  0.41957  0.00000  0.16086
      15     H     0.41869  0.41869  0.00000  0.16263
      16     H     0.42008  0.42008  0.00000  0.15985

   Total alpha = 24.00000, Total beta = 24.00000, Total charge = -0.00000
