  ==> Input File <==

--------------------------------------------------------------------------
set {
	reference rhf
	basis 6-31G*
}

set_num_threads( 4 )
memory 2 gb

molecule MOL {
0 1

H	 1.727797	 0.821594	 -1.175899
O	 0.939148	 0.291321	 -1.235679
C	 0.489431	 0.077273	 0.000046
C	 -0.764129	 -0.759190	 0.000191
O	 1.040069	 0.511321	 0.958673
C	 -2.038368	 0.075731	 -0.000248
H	 -0.717284	 -1.412404	 -0.866059
H	 -0.717458	 -1.411724	 0.866967
H	 -2.086483	 0.712501	 -0.875098
H	 -2.908485	 -0.571682	 -0.000042
H	 -2.086576	 0.713280	 0.874068

	symmetry c1
}
set optking {
	frozen_dihedral = ("
		2 3 4 7
	")
}

ee = optimize('scf')
oeprop('DIPOLE', 'QUADRUPOLE', 'MULLIKEN_CHARGES')
f=open( 'psi4out.xyz', 'w' )
f.write( "11  " )
f.write( str(ee) + "\n" )
f.write( MOL.save_string_xyz() )
f.close()
--------------------------------------------------------------------------

    Molecular point group: c1
  Charge       = 0
  Multiplicity = 1
  Basis Set: 6-31G*
  Basis Set:
  @DF-RHF Final Energy:  -266.84343358070942
    Total Energy =                       -266.8434335807093021
    Molecular point group: c1
  Basis Set: 6-31G*
  Basis Set:
  Basis Set: 6-31G*
  Basis Set:
  @DF-RHF Final Energy:  -266.84367607670350
    Total Energy =                       -266.8436760767035594
  Basis Set: 6-31G*
  Basis Set:
  Basis Set: 6-31G*
  Basis Set:
  @DF-RHF Final Energy:  -266.84335622152520
    Total Energy =                       -266.8433562215254824
  Basis Set: 6-31G*
  Basis Set:
  Basis Set: 6-31G*
  Basis Set:
  @DF-RHF Final Energy:  -266.84417188044404
    Total Energy =                       -266.8441718804439233
  Basis Set: 6-31G*
  Basis Set:
  Basis Set: 6-31G*
  Basis Set:
  @DF-RHF Final Energy:  -266.84417506336536
    Total Energy =                       -266.8441750633655829
  Basis Set: 6-31G*
  Basis Set:
  Charge       = 0
  Multiplicity = 1
  Basis Set: 6-31G*
  Basis Set:

    Orbital Energies (a.u.)
    -----------------------

    Doubly Occupied:

       1A    -20.614772     2A    -20.549980     3A    -11.380987
       4A    -11.242551     5A    -11.231179     6A     -1.475196
       7A     -1.365417     8A     -1.067756     9A     -0.913355
      10A     -0.814200    11A     -0.702557    12A     -0.686257
      13A     -0.640578    14A     -0.617618    15A     -0.592314
      16A     -0.542082    17A     -0.526808    18A     -0.513224
      19A     -0.475079    20A     -0.441105

  @DF-RHF Final Energy:  -266.84417521560101

   => Energetics <=

    Nuclear Repulsion Energy =            179.9476033542439666
    One-Electron Energy =                -720.7975271763574483
    Two-Electron Energy =                 274.0057486065124976
    DFT Exchange-Correlation Energy =       0.0000000000000000
    Empirical Dispersion Energy =           0.0000000000000000
    PCM Polarization Energy =               0.0000000000000000
    EFP Energy =                            0.0000000000000000
    Total Energy =                       -266.8441752156010125
    Molecular point group: c1
  Basis Set: 6-31G*
  Basis Set:

  -Total Gradient:
     Atom            X                  Y                   Z
    ------   -----------------  -----------------  -----------------
       1       -0.000002004242     0.000000025094     0.000001072925
       2        0.000244398812    -0.000350856885    -0.000015327763
       3       -0.000381647575     0.000565947117    -0.000044530163
       4        0.000382405635    -0.000554037598     0.000341443042
       5       -0.000008703931    -0.000014218280    -0.000009045881
       6        0.000009480388    -0.000003098243    -0.000006047434
       7       -0.000247251503     0.000364680929    -0.000257989278
       8        0.000000980098    -0.000005775288    -0.000004170939
       9       -0.000003399827     0.000005654357    -0.000003407109
      10        0.000000697473    -0.000005877601     0.000002041848
      11        0.000005044666    -0.000002443603    -0.000004039251

  **** Optimization is complete! (in 6 steps) ****
    Final optimized geometry and variables:
    Molecular point group: c1

    Geometry (in Angstrom), charge = 0, multiplicity = 1:

    H            1.728617177340     0.831832517581    -1.085574127127
    O            0.968650474684     0.262229712858    -1.157459622509
    C            0.528059285331     0.003329082193     0.072477386589
    C           -0.712679001136    -0.851185128312     0.074632450306
    O            1.059599521473     0.440779776605     1.041066997026
    C           -1.970809906668     0.028136052816     0.067676514775
    H           -0.705654470244    -1.497980599388    -0.793476133084
    H           -0.687457736620    -1.459315646363     0.969398301640
    H           -2.012389065208     0.642700520423    -0.824897704884
    H           -2.858831070903    -0.593074563488     0.090037070100
    H           -1.989752883595     0.678832540890     0.934323730871

  Mulliken Charges: (a.u.)
   Center  Symbol    Alpha    Beta     Spin     Total
       1     H     0.26792  0.26792  0.00000  0.46416
       2     O     4.34717  4.34717  0.00000 -0.69433
       3     C     2.63258  2.63258  0.00000  0.73483
       4     C     3.19784  3.19784  0.00000 -0.39568
       5     O     4.27865  4.27865  0.00000 -0.55729
       6     C     3.25192  3.25192  0.00000 -0.50383
       7     H     0.40098  0.40098  0.00000  0.19804
       8     H     0.39745  0.39745  0.00000  0.20509
       9     H     0.40951  0.40951  0.00000  0.18098
      10     H     0.41024  0.41024  0.00000  0.17951
      11     H     0.40574  0.40574  0.00000  0.18851

   Total alpha = 20.00000, Total beta = 20.00000, Total charge = -0.00000
