  ==> Input File <==

--------------------------------------------------------------------------
set {
	reference rhf
	basis 6-31G*
}

set_num_threads( 4 )
memory 2 gb

molecule MOL {
0 1

O	 -2.821601	 1.309235	 -0.001213
C	 -2.668563	 0.129746	 -0.000350
C	 -3.801572	 -0.864014	 -0.000442
O	 -1.481751	 -0.454642	 0.000584
H	 -4.417280	 -0.689587	 -0.874708
H	 -3.443784	 -1.883046	 -0.000565
H	 -4.417179	 -0.689832	 0.873954
C	 -0.334255	 0.388708	 0.000906
C	 0.891947	 -0.504646	 0.000751
H	 -0.365390	 1.025305	 -0.873475
H	 -0.365484	 1.024911	 0.875569
C	 2.191998	 0.301789	 0.000897
H	 0.855148	 -1.151283	 -0.871571
H	 0.855132	 -1.151660	 0.872805
C	 3.441114	 -0.581407	 0.000108
H	 2.215074	 0.954890	 -0.869742
H	 2.215465	 0.953923	 0.872248
C	 4.599914	 0.025880	 0.789570
H	 3.755873	 -0.757551	 -1.026038
H	 3.192466	 -1.555674	 0.414896
H	 4.894313	 0.986862	 0.377434
H	 5.470181	 -0.622584	 0.770445
H	 4.326803	 0.182423	 1.829241

	symmetry c1
}
set optking {
	frozen_dihedral = ("
		19 15 12 16
	")
}

ee = optimize('scf')
oeprop('DIPOLE', 'QUADRUPOLE', 'MULLIKEN_CHARGES')
f=open( 'psi4out.xyz', 'w' )
f.write( "23  " )
f.write( str(ee) + "\n" )
f.write( MOL.save_string_xyz() )
f.close()
--------------------------------------------------------------------------

    Molecular point group: c1
  Charge       = 0
  Multiplicity = 1
  Basis Set: 6-31G*
  Basis Set:
  @DF-RHF Final Energy:  -422.97596762523420
    Total Energy =                       -422.9759676252340341
    Molecular point group: c1
  Basis Set: 6-31G*
  Basis Set:
  Basis Set: 6-31G*
  Basis Set:
  @DF-RHF Final Energy:  -422.97623408109115
    Total Energy =                       -422.9762340810910928
  Basis Set: 6-31G*
  Basis Set:
  Basis Set: 6-31G*
  Basis Set:
  @DF-RHF Final Energy:  -422.97631475214627
    Total Energy =                       -422.9763147521466635
  Basis Set: 6-31G*
  Basis Set:
  Basis Set: 6-31G*
  Basis Set:
  @DF-RHF Final Energy:  -422.97614609801707
    Total Energy =                       -422.9761460980167840
  Basis Set: 6-31G*
  Basis Set:
  Basis Set: 6-31G*
  Basis Set:
  @DF-RHF Final Energy:  -422.97631968505686
    Total Energy =                       -422.9763196850564100
  Basis Set: 6-31G*
  Basis Set:
  Charge       = 0
  Multiplicity = 1
  Basis Set: 6-31G*
  Basis Set:

    Orbital Energies (a.u.)
    -----------------------

    Doubly Occupied:

       1A    -20.602948     2A    -20.540492     3A    -11.374037
       4A    -11.281262     5A    -11.232351     6A    -11.224362
       7A    -11.223756     8A    -11.221628     9A    -11.212860
      10A     -1.467898    11A     -1.360685    12A     -1.093172
      13A     -1.041584    14A     -1.003272    15A     -0.930480
      16A     -0.841641    17A     -0.802360    18A     -0.774304
      19A     -0.691822    20A     -0.685045    21A     -0.668424
      22A     -0.643681    23A     -0.608063    24A     -0.589977
      25A     -0.582161    26A     -0.570073    27A     -0.554328
      28A     -0.535184    29A     -0.524597    30A     -0.503842
      31A     -0.494601    32A     -0.476204    33A     -0.468690
      34A     -0.464360    35A     -0.451238    36A     -0.435098

  @DF-RHF Final Energy:  -422.97631948972759

   => Energetics <=

    Nuclear Repulsion Energy =            449.7349657210118608
    One-Electron Energy =               -1467.0696140251884572
    Two-Electron Energy =                 594.3583288144488961
    DFT Exchange-Correlation Energy =       0.0000000000000000
    Empirical Dispersion Energy =           0.0000000000000000
    PCM Polarization Energy =               0.0000000000000000
    EFP Energy =                            0.0000000000000000
    Total Energy =                       -422.9763194897277572
    Molecular point group: c1
  Basis Set: 6-31G*
  Basis Set:

  -Total Gradient:
     Atom            X                  Y                   Z
    ------   -----------------  -----------------  -----------------
       1       -0.000000526816    -0.000002261057    -0.000002517579
       2       -0.000005394282     0.000006769404     0.000004473042
       3        0.000001694342     0.000000118458     0.000002175373
       4        0.000013951318    -0.000001667174    -0.000016210372
       5        0.000001324751    -0.000001036153    -0.000001137179
       6        0.000000465587     0.000000024327    -0.000000517429
       7       -0.000000162822     0.000001655015    -0.000000967878
       8       -0.000003983651     0.000004187469     0.000004509435
       9        0.000027016779    -0.000050493851     0.000049322550
      10       -0.000005632325     0.000006755182    -0.000004042383
      11        0.000000722463    -0.000003587869    -0.000003178295
      12        0.003343350131     0.004458478018     0.002772678907
      13        0.000010348162    -0.000015331680     0.000013247689
      14       -0.000045573581    -0.000000947199     0.000010807944
      15       -0.003655454196    -0.005014667076    -0.000734881029
      16       -0.002165104024    -0.002955432808    -0.002282104761
      17        0.000049775901    -0.000049119325     0.000009776516
      18       -0.000032814447     0.000036038090     0.000047633005
      19        0.002493898627     0.003533540619     0.000105761361
      20       -0.000049282803     0.000044271059     0.000011075287
      21       -0.000006815866     0.000005818974     0.000014023642
      22       -0.000005433058    -0.000001447558    -0.000019423106
      23        0.000033629816    -0.000001664865     0.000019495260

  **** Optimization is complete! (in 6 steps) ****
    Final optimized geometry and variables:
    Molecular point group: c1

    Geometry (in Angstrom), charge = 0, multiplicity = 1:

    O           -2.810296047776     1.333525834638    -0.136467143395
    C           -2.657768979919     0.154160483269    -0.114635219498
    C           -3.791131811171    -0.839201267004    -0.117960424903
    O           -1.471479564751    -0.430478689549    -0.084646754508
    H           -4.392477401670    -0.678008030891    -1.004667721480
    H           -3.433895113291    -1.858208027986    -0.096662260597
    H           -4.420769814684    -0.651500735141     0.743555861183
    C           -0.323593384027     0.412388804608    -0.078337373782
    C            0.902059203947    -0.480686644766    -0.044072115116
    H           -0.340104508824     1.035627260436    -0.962720610186
    H           -0.368981227683     1.062227723961     0.785781102574
    C            2.204478257077     0.325576971951    -0.024311307146
    H            0.884303950217    -1.136054338919    -0.910861058052
    H            0.847437135840    -1.119584821301     0.832946580281
    C            3.454988698243    -0.569048171046    -0.071817298627
    H            2.205516833056     0.987898624239    -0.886947852460
    H            2.226500139920     0.952675533074     0.863519066119
    C            4.653231304021     0.049479248345     0.651237700162
    H            3.737502844949    -0.734347436032    -1.107912289387
    H            3.237069549532    -1.540954507405     0.361877464836
    H            4.898389729671     1.024134594177     0.238377883556
    H            5.534105820002    -0.578580495177     0.560901532001
    H            4.447020301643     0.182363998347     1.709446736110

  Mulliken Charges: (a.u.)
   Center  Symbol    Alpha    Beta     Spin     Total
       1     O     4.28393  4.28393  0.00000 -0.56786
       2     C     2.61532  2.61532  0.00000  0.76935
       3     C     3.28774  3.28774  0.00000 -0.57547
       4     O     4.31259  4.31259  0.00000 -0.62518
       5     H     0.39751  0.39751  0.00000  0.20498
       6     H     0.39987  0.39987  0.00000  0.20027
       7     H     0.39752  0.39752  0.00000  0.20497
       8     C     2.99599  2.99599  0.00000  0.00802
       9     C     3.16651  3.16651  0.00000 -0.33301
      10     H     0.41079  0.41079  0.00000  0.17842
      11     H     0.41079  0.41079  0.00000  0.17843
      12     C     3.16154  3.16154  0.00000 -0.32309
      13     H     0.41420  0.41420  0.00000  0.17161
      14     H     0.41426  0.41426  0.00000  0.17148
      15     C     3.15284  3.15284  0.00000 -0.30567
      16     H     0.41920  0.41920  0.00000  0.16160
      17     H     0.41894  0.41894  0.00000  0.16213
      18     C     3.24052  3.24052  0.00000 -0.48105
      19     H     0.41945  0.41945  0.00000  0.16109
      20     H     0.41959  0.41959  0.00000  0.16083
      21     H     0.42075  0.42075  0.00000  0.15849
      22     H     0.41897  0.41897  0.00000  0.16206
      23     H     0.42120  0.42120  0.00000  0.15761

   Total alpha = 36.00000, Total beta = 36.00000, Total charge = -0.00000
