  ==> Input File <==

--------------------------------------------------------------------------
set {
	reference rhf
	basis 6-31G*
}

set_num_threads( 4 )
memory 2 gb

molecule MOL {
0 1

H	 1.983640	 0.438563	 1.052291
O	 1.208143	 -0.111401	 1.105909
C	 0.489431	 0.077273	 0.000046
C	 -0.764129	 -0.759190	 0.000191
O	 0.831262	 0.823933	 -0.857984
C	 -2.038368	 0.075731	 -0.000248
H	 -0.717284	 -1.412404	 -0.866059
H	 -0.717458	 -1.411724	 0.866967
H	 -2.086483	 0.712501	 -0.875098
H	 -2.908485	 -0.571682	 -0.000042
H	 -2.086576	 0.713280	 0.874068

	symmetry c1
}
set optking {
	frozen_dihedral = ("
		2 3 4 7
	")
}

ee = optimize('scf')
oeprop('DIPOLE', 'QUADRUPOLE', 'MULLIKEN_CHARGES')
f=open( 'psi4out.xyz', 'w' )
f.write( "11  " )
f.write( str(ee) + "\n" )
f.write( MOL.save_string_xyz() )
f.close()
--------------------------------------------------------------------------

    Molecular point group: c1
  Charge       = 0
  Multiplicity = 1
  Basis Set: 6-31G*
  Basis Set:
  @DF-RHF Final Energy:  -266.84346103709697
    Total Energy =                       -266.8434610370968016
    Molecular point group: c1
  Basis Set: 6-31G*
  Basis Set:
  Basis Set: 6-31G*
  Basis Set:
  @DF-RHF Final Energy:  -266.84412732290474
    Total Energy =                       -266.8441273229049102
  Basis Set: 6-31G*
  Basis Set:
  Basis Set: 6-31G*
  Basis Set:
  @DF-RHF Final Energy:  -266.84321723413962
    Total Energy =                       -266.8432172341397290
  Basis Set: 6-31G*
  Basis Set:
  Basis Set: 6-31G*
  Basis Set:
  @DF-RHF Final Energy:  -266.84419962348659
    Total Energy =                       -266.8441996234861335
  Basis Set: 6-31G*
  Basis Set:
  Basis Set: 6-31G*
  Basis Set:
  @DF-RHF Final Energy:  -266.84420354623768
    Total Energy =                       -266.8442035462376225
  Basis Set: 6-31G*
  Basis Set:
  Charge       = 0
  Multiplicity = 1
  Basis Set: 6-31G*
  Basis Set:

    Orbital Energies (a.u.)
    -----------------------

    Doubly Occupied:

       1A    -20.616079     2A    -20.549615     3A    -11.381830
       4A    -11.242915     5A    -11.227435     6A     -1.476224
       7A     -1.365863     8A     -1.065965     9A     -0.914754
      10A     -0.810043    11A     -0.703060    12A     -0.688539
      13A     -0.647874    14A     -0.610413    15A     -0.593229
      16A     -0.537192    17A     -0.526049    18A     -0.510978
      19A     -0.474317    20A     -0.442924

  @DF-RHF Final Energy:  -266.84420369341700

   => Energetics <=

    Nuclear Repulsion Energy =            179.7538252647481158
    One-Electron Energy =                -720.4254580787409168
    Two-Electron Energy =                 273.8274291205758004
    DFT Exchange-Correlation Energy =       0.0000000000000000
    Empirical Dispersion Energy =           0.0000000000000000
    PCM Polarization Energy =               0.0000000000000000
    EFP Energy =                            0.0000000000000000
    Total Energy =                       -266.8442036934170005
    Molecular point group: c1
  Basis Set: 6-31G*
  Basis Set:

  -Total Gradient:
     Atom            X                  Y                   Z
    ------   -----------------  -----------------  -----------------
       1       -0.000008212637    -0.000003329797    -0.000011676102
       2       -0.000275191996     0.000378064419     0.000310148089
       3        0.000298218651    -0.000401309863    -0.000505930396
       4        0.000287713969    -0.000422013444     0.000527555127
       5       -0.000009657544    -0.000006826110     0.000013884715
       6        0.000023520304     0.000004217634    -0.000006754875
       7       -0.000317051469     0.000462167619    -0.000329058547
       8       -0.000003352414    -0.000011682444     0.000004764911
       9       -0.000002695669     0.000009120256     0.000000091525
      10        0.000007717853    -0.000005719585    -0.000001049124
      11       -0.000001009051    -0.000002688687    -0.000001975324

  **** Optimization is complete! (in 6 steps) ****
    Final optimized geometry and variables:
    Molecular point group: c1

    Geometry (in Angstrom), charge = 0, multiplicity = 1:

    H            2.037581131672     0.422904059717     0.932716793590
    O            1.281107258951    -0.150658584020     1.012184105073
    C            0.508446571154     0.036591274651    -0.054281247409
    C           -0.733722033203    -0.819596583420    -0.044101781792
    O            0.786551151605     0.814075970080    -0.909468983001
    C           -1.998955026989     0.043114366287    -0.084141813770
    H           -0.693330787722    -1.441792888272    -0.932066188725
    H           -0.726161019709    -1.465338369020     0.823545829717
    H           -1.992752437589     0.687908306402    -0.953753621240
    H           -2.879319056725    -0.587965642655    -0.128734572056
    H           -2.077725882168     0.665123883668     0.801420268678

  Mulliken Charges: (a.u.)
   Center  Symbol    Alpha    Beta     Spin     Total
       1     H     0.26821  0.26821  0.00000  0.46358
       2     O     4.34726  4.34726  0.00000 -0.69453
       3     C     2.62707  2.62707  0.00000  0.74587
       4     C     3.20484  3.20484  0.00000 -0.40967
       5     O     4.27981  4.27981  0.00000 -0.55962
       6     C     3.24852  3.24852  0.00000 -0.49705
       7     H     0.39792  0.39792  0.00000  0.20417
       8     H     0.39875  0.39875  0.00000  0.20249
       9     H     0.40166  0.40166  0.00000  0.19669
      10     H     0.41256  0.41256  0.00000  0.17487
      11     H     0.41340  0.41340  0.00000  0.17320

   Total alpha = 20.00000, Total beta = 20.00000, Total charge =  0.00000
