  ==> Input File <==

--------------------------------------------------------------------------
set {
	reference rhf
	basis cc-pvtz
}

set_num_threads( 4 )
memory 2 gb

molecule MOL {
0 1

H	 1.482612	 1.219582	 -0.439866
C	 0.848385	 0.440008	 0.000011
C	 -0.623497	 0.751021	 0.000090
O	 1.333591	 -0.549653	 0.427084
C	 -1.523725	 -0.474323	 -0.000013
H	 -0.813143	 1.382932	 -0.864897
H	 -0.813071	 1.382716	 0.865253
H	 -1.342980	 -1.087348	 -0.873016
H	 -2.565269	 -0.177464	 0.000070
H	 -1.342898	 -1.087564	 0.872820

	symmetry c1
}
set optking {
	frozen_dihedral = ("
		4 2 3 6
	")
}

ee = optimize('scf')
oeprop('DIPOLE', 'QUADRUPOLE', 'MULLIKEN_CHARGES')
f=open( 'psi4out.xyz', 'w' )
f.write( "10  " )
f.write( str(ee) + "\n" )
f.write( MOL.save_string_xyz() )
f.close()
--------------------------------------------------------------------------

    Molecular point group: c1
  Charge       = 0
  Multiplicity = 1
  Basis Set: CC-PVTZ
  Basis Set:
  @DF-RHF Final Energy:  -192.02336682879087
    Total Energy =                       -192.0233668287908984
    Molecular point group: c1
  Basis Set: CC-PVTZ
  Basis Set:
  Basis Set: CC-PVTZ
  Basis Set:
  @DF-RHF Final Energy:  -192.02206015467146
    Total Energy =                       -192.0220601546715216
  Basis Set: CC-PVTZ
  Basis Set:
  Basis Set: CC-PVTZ
  Basis Set:
  @DF-RHF Final Energy:  -192.02362080905675
    Total Energy =                       -192.0236208090566947
  Basis Set: CC-PVTZ
  Basis Set:
  Charge       = 0
  Multiplicity = 1
  Basis Set: CC-PVTZ
  Basis Set:

    Orbital Energies (a.u.)
    -----------------------

    Doubly Occupied:

       1A    -20.553319     2A    -11.323588     3A    -11.239406
       4A    -11.219434     5A     -1.409036     6A     -1.061440
       7A     -0.911074     8A     -0.775893     9A     -0.686244
      10A     -0.638714    11A     -0.627822    12A     -0.549798
      13A     -0.536363    14A     -0.518987    15A     -0.494010
      16A     -0.416028

  @DF-RHF Final Energy:  -192.02367863813043

   => Energetics <=

    Nuclear Repulsion Energy =            119.2210099567112565
    One-Electron Energy =                -496.5670625310875721
    Two-Electron Energy =                 185.3223739362458673
    DFT Exchange-Correlation Energy =       0.0000000000000000
    Empirical Dispersion Energy =           0.0000000000000000
    PCM Polarization Energy =               0.0000000000000000
    EFP Energy =                            0.0000000000000000
    Total Energy =                       -192.0236786381304341
    Molecular point group: c1
  Basis Set: CC-PVTZ
  Basis Set:

  -Total Gradient:
     Atom            X                  Y                   Z
    ------   -----------------  -----------------  -----------------
       1        0.000043674378     0.000033245866    -0.000009223136
       2       -0.000062366987    -0.001076039732    -0.002982606423
       3       -0.000406973831    -0.001815858621    -0.000578684498
       4        0.000069276192     0.001077640737     0.002278080771
       5       -0.000032716319    -0.000069793955    -0.000094838867
       6        0.000356518569     0.001855990562     0.001433557857
       7        0.000050655165     0.000013484639    -0.000031337800
       8       -0.000032295328    -0.000078776894    -0.000022349334
       9       -0.000005336787    -0.000002045312     0.000017082133
      10        0.000019564948     0.000062152709    -0.000009680701

  **** Optimization is complete! (in 4 steps) ****
    Final optimized geometry and variables:
    Molecular point group: c1

    Geometry (in Angstrom), charge = 0, multiplicity = 1:

    H            1.500993202025     1.215853042757    -0.481103824386
    C            0.848287241571     0.417047702944    -0.108504544861
    C           -0.625902020374     0.727563738171    -0.133270030559
    O            1.317699194474    -0.579864873318     0.319717612858
    C           -1.526085224199    -0.498854432639    -0.100038236428
    H           -0.830798753038     1.367572139780    -0.985410860858
    H           -0.802315620870     1.354339218400     0.740244410651
    H           -1.372210810016    -1.117627221457    -0.975617752357
    H           -2.567330465762    -0.202609311343    -0.073654931678
    H           -1.318247408717    -1.103569602225     0.771299021791

  Mulliken Charges: (a.u.)
   Center  Symbol    Alpha    Beta     Spin     Total
       1     H     0.45377  0.45377  0.00000  0.09245
       2     C     2.91606  2.91606  0.00000  0.16788
       3     C     3.08330  3.08330  0.00000 -0.16659
       4     O     4.16564  4.16564  0.00000 -0.33128
       5     C     3.14128  3.14128  0.00000 -0.28255
       6     H     0.44849  0.44849  0.00000  0.10301
       7     H     0.44795  0.44795  0.00000  0.10411
       8     H     0.45106  0.45106  0.00000  0.09788
       9     H     0.44922  0.44922  0.00000  0.10156
      10     H     0.44324  0.44324  0.00000  0.11353

   Total alpha = 16.00000, Total beta = 16.00000, Total charge = -0.00000
