  ==> Input File <==

--------------------------------------------------------------------------
set {
	reference rhf
	basis 6-31G*
}

set_num_threads( 4 )
memory 2 gb

molecule MOL {
0 1

H	 2.178968	 -0.896894	 -0.518057
C	 1.951159	 -0.223429	 0.317018
C	 0.692068	 0.589600	 0.160137
O	 2.675573	 -0.172956	 1.257660
C	 -0.558097	 -0.297372	 0.091132
H	 0.791645	 1.202255	 -0.728243
H	 0.616171	 1.253469	 1.020572
C	 -1.850991	 0.512573	 -0.019058
H	 -0.476753	 -0.965681	 -0.762987
H	 -0.604799	 -0.930658	 0.975228
C	 -3.096943	 -0.368295	 -0.099594
H	 -1.800724	 1.150330	 -0.898172
H	 -1.931651	 1.177355	 0.838044
H	 -3.060452	 -1.020287	 -0.967456
H	 -3.996858	 0.233488	 -0.175704
H	 -3.191959	 -0.995686	 0.782074

	symmetry c1
}
set optking {
	frozen_dihedral = ("
		4 2 3 6
	")
}

ee = optimize('scf')
oeprop('DIPOLE', 'QUADRUPOLE', 'MULLIKEN_CHARGES')
f=open( 'psi4out.xyz', 'w' )
f.write( "16  " )
f.write( str(ee) + "\n" )
f.write( MOL.save_string_xyz() )
f.close()
--------------------------------------------------------------------------

    Molecular point group: c1
  Charge       = 0
  Multiplicity = 1
  Basis Set: 6-31G*
  Basis Set:
  @DF-RHF Final Energy:  -270.01957493955024
    Total Energy =                       -270.0195749395502958
    Molecular point group: c1
  Basis Set: 6-31G*
  Basis Set:
  Basis Set: 6-31G*
  Basis Set:
  @DF-RHF Final Energy:  -270.01975097394666
    Total Energy =                       -270.0197509739466568
  Basis Set: 6-31G*
  Basis Set:
  Basis Set: 6-31G*
  Basis Set:
  @DF-RHF Final Energy:  -270.01979031240876
    Total Energy =                       -270.0197903124086451
  Basis Set: 6-31G*
  Basis Set:
  Basis Set: 6-31G*
  Basis Set:
  @DF-RHF Final Energy:  -270.01987760881434
    Total Energy =                       -270.0198776088142267
  Basis Set: 6-31G*
  Basis Set:
  @DF-RHF Final Energy:  -270.01989867819930
    Total Energy =                       -270.0198986781992403
  Basis Set: 6-31G*
  Basis Set:
  @DF-RHF Final Energy:  -270.01990697764165
    Total Energy =                       -270.0199069776414262
  Basis Set: 6-31G*
  Basis Set:
  Basis Set: 6-31G*
  Basis Set:
  @DF-RHF Final Energy:  -270.01991218601006
    Total Energy =                       -270.0199121860100604
  Basis Set: 6-31G*
  Basis Set:
  Basis Set: 6-31G*
  Basis Set:
  @DF-RHF Final Energy:  -270.01991518510090
    Total Energy =                       -270.0199151851007855
  Basis Set: 6-31G*
  Basis Set:
  Charge       = 0
  Multiplicity = 1
  Basis Set: 6-31G*
  Basis Set:

    Orbital Energies (a.u.)
    -----------------------

    Doubly Occupied:

       1A    -20.562497     2A    -11.326495     3A    -11.236751
       4A    -11.235195     5A    -11.229345     6A    -11.218421
       7A     -1.402259     8A     -1.096510     9A     -1.018895
      10A     -0.906019    11A     -0.812177    12A     -0.793215
      13A     -0.678671    14A     -0.647076    15A     -0.630143
      16A     -0.602881    17A     -0.581382    18A     -0.550861
      19A     -0.527147    20A     -0.509875    21A     -0.487863
      22A     -0.481608    23A     -0.478423    24A     -0.408993

  @DF-RHF Final Energy:  -270.01991480811341

   => Energetics <=

    Nuclear Repulsion Energy =            228.9618274302449379
    One-Electron Energy =                -819.1180760557168696
    Two-Electron Energy =                 320.1363338173583202
    DFT Exchange-Correlation Energy =       0.0000000000000000
    Empirical Dispersion Energy =           0.0000000000000000
    PCM Polarization Energy =               0.0000000000000000
    EFP Energy =                            0.0000000000000000
    Total Energy =                       -270.0199148081135831
    Molecular point group: c1
  Basis Set: 6-31G*
  Basis Set:

  -Total Gradient:
     Atom            X                  Y                   Z
    ------   -----------------  -----------------  -----------------
       1        0.000000613235     0.000008620224    -0.000003713061
       2        0.000111870564     0.000170297716    -0.000119674459
       3        0.000052164708     0.000101245886     0.000177654570
       4       -0.000082848233    -0.000142460707     0.000086168548
       5       -0.000001214655     0.000004485952    -0.000011585162
       6       -0.000077334717    -0.000146922684    -0.000092592666
       7        0.000005917000     0.000011619572    -0.000001621827
       8        0.000002130337    -0.000008680091    -0.000035904978
       9        0.000012252351     0.000020682880    -0.000012694391
      10       -0.000012608702    -0.000020627809    -0.000013159522
      11       -0.000008513713     0.000004974533     0.000043890141
      12       -0.000011608526    -0.000013919715    -0.000014016780
      13        0.000013246404     0.000011935485    -0.000015181385
      14        0.000003504473     0.000014768656    -0.000001213652
      15       -0.000004070718    -0.000001155879     0.000014459932
      16       -0.000003499814    -0.000014864021    -0.000000815311

  **** Optimization is complete! (in 9 steps) ****
    Final optimized geometry and variables:
    Molecular point group: c1

    Geometry (in Angstrom), charge = 0, multiplicity = 1:

    H            2.160985163873    -0.893551932220    -0.836054107042
    C            1.979483151701    -0.221578392527     0.011311407691
    C            0.717463980542     0.596480692946    -0.077900312522
    O            2.747146907254    -0.183245844087     0.917657377508
    C           -0.529462118311    -0.293763223389    -0.172668586500
    H            0.783373580660     1.219131458971    -0.969069277305
    H            0.671198810438     1.247248246794     0.787338233478
    C           -1.820569481491     0.513456026930    -0.317388262652
    H           -0.430948533293    -0.969395411866    -1.020397358094
    H           -0.591044950178    -0.919085901197     0.714915420867
    C           -3.065345103888    -0.369327482778    -0.393622307436
    H           -1.759098719395     1.131955269051    -1.210041476596
    H           -1.911932146523     1.196734729548     0.523391819552
    H           -3.018978549004    -1.040909728546    -1.246122629852
    H           -3.964170445904     0.230551036102    -0.493761811480
    H           -3.170723988289    -0.976656216137     0.500591688772

  Mulliken Charges: (a.u.)
   Center  Symbol    Alpha    Beta     Spin     Total
       1     H     0.43202  0.43202  0.00000  0.13595
       2     C     2.83037  2.83037  0.00000  0.33926
       3     C     3.20733  3.20733  0.00000 -0.41467
       4     O     4.23686  4.23686  0.00000 -0.47373
       5     C     3.16442  3.16442  0.00000 -0.32885
       6     H     0.41061  0.41061  0.00000  0.17878
       7     H     0.39941  0.39941  0.00000  0.20118
       8     C     3.15151  3.15151  0.00000 -0.30303
       9     H     0.41926  0.41926  0.00000  0.16148
      10     H     0.41230  0.41230  0.00000  0.17539
      11     C     3.24051  3.24051  0.00000 -0.48103
      12     H     0.42089  0.42089  0.00000  0.15821
      13     H     0.41833  0.41833  0.00000  0.16335
      14     H     0.42055  0.42055  0.00000  0.15890
      15     H     0.41642  0.41642  0.00000  0.16717
      16     H     0.41919  0.41919  0.00000  0.16163

   Total alpha = 24.00000, Total beta = 24.00000, Total charge = -0.00000
