  ==> Input File <==

--------------------------------------------------------------------------
set {
	reference rhf
	basis cc-pvtz
}

set_num_threads( 4 )
memory 2 gb

molecule MOL {
0 1

H	 2.190573	 -0.629143	 -0.208718
O	 1.355408	 -0.529451	 0.208662
C	 0.700177	 0.619554	 -0.266242
C	 -0.713111	 0.588314	 0.266177
H	 0.678680	 0.627133	 -1.351786
H	 1.199747	 1.521489	 0.077736
O	 -1.421673	 -0.521378	 -0.196983
H	 -1.244794	 1.469161	 -0.069059
H	 -0.685100	 0.604721	 1.352683
H	 -1.970324	 -0.249125	 -0.911745

	symmetry c1
}
set optking {
	frozen_dihedral = ("
		10 7 4 3
	")
}

ee = optimize('scf')
oeprop('DIPOLE', 'QUADRUPOLE', 'MULLIKEN_CHARGES')
f=open( 'psi4out.xyz', 'w' )
f.write( "10  " )
f.write( str(ee) + "\n" )
f.write( MOL.save_string_xyz() )
f.close()
--------------------------------------------------------------------------

    Molecular point group: c1
  Charge       = 0
  Multiplicity = 1
  Basis Set: CC-PVTZ
  Basis Set:
  @DF-RHF Final Energy:  -229.02063934271240
    Total Energy =                       -229.0206393427123430
    Molecular point group: c1
  Basis Set: CC-PVTZ
  Basis Set:
  Basis Set: CC-PVTZ
  Basis Set:
  @DF-RHF Final Energy:  -229.02217300831023
    Total Energy =                       -229.0221730083102898
  Basis Set: CC-PVTZ
  Basis Set:
  Basis Set: CC-PVTZ
  Basis Set:
  @DF-RHF Final Energy:  -229.02236999274402
    Total Energy =                       -229.0223699927440748
  Basis Set: CC-PVTZ
  Basis Set:
  Basis Set: CC-PVTZ
  Basis Set:
  @DF-RHF Final Energy:  -229.02237817801117
    Total Energy =                       -229.0223781780110244
  Basis Set: CC-PVTZ
  Basis Set:
  Charge       = 0
  Multiplicity = 1
  Basis Set: CC-PVTZ
  Basis Set:

    Orbital Energies (a.u.)
    -----------------------

    Doubly Occupied:

       1A    -20.547308     2A    -20.545974     3A    -11.269433
       4A    -11.268620     5A     -1.375615     6A     -1.356260
       7A     -1.002826     8A     -0.839688     9A     -0.724720
      10A     -0.686159    11A     -0.648857    12A     -0.598605
      13A     -0.575439    14A     -0.525298    15A     -0.493274
      16A     -0.446779    17A     -0.434597

  @DF-RHF Final Energy:  -229.02237893406547

   => Energetics <=

    Nuclear Repulsion Energy =            133.2550022997890267
    One-Electron Energy =                -577.8758553361342365
    Two-Electron Energy =                 215.5984741022797095
    DFT Exchange-Correlation Energy =       0.0000000000000000
    Empirical Dispersion Energy =           0.0000000000000000
    PCM Polarization Energy =               0.0000000000000000
    EFP Energy =                            0.0000000000000000
    Total Energy =                       -229.0223789340655287
    Molecular point group: c1
  Basis Set: CC-PVTZ
  Basis Set:

  -Total Gradient:
     Atom            X                  Y                   Z
    ------   -----------------  -----------------  -----------------
       1        0.000014363933     0.000025357832    -0.000000055019
       2       -0.000047053832     0.000007082617     0.000006835784
       3        0.000201758406    -0.000395007088     0.000565098070
       4       -0.000525636093     0.000596870548    -0.000670713278
       5       -0.000007839523    -0.000012664863    -0.000008090490
       6        0.000021103985    -0.000018804455     0.000017038443
       7        0.001179715040    -0.000456953569    -0.000695950706
       8        0.000009287432    -0.000009672164    -0.000013565105
       9        0.000010486118    -0.000003528517     0.000020991338
      10       -0.000856185460     0.000267319660     0.000778410964

  **** Optimization is complete! (in 5 steps) ****
    Final optimized geometry and variables:
    Molecular point group: c1

    Geometry (in Angstrom), charge = 0, multiplicity = 1:

    H            2.253830943183    -0.602855382913    -0.143449077534
    O            1.417120149330    -0.516243568594     0.273814040518
    C            0.716242987925     0.566167340065    -0.265256117815
    C           -0.697755918455     0.554958358647     0.270532836623
    H            0.690436547070     0.513491435154    -1.351401788678
    H            1.185904454308     1.507808090919     0.015205461763
    O           -1.449638011175    -0.523057239698    -0.213589977928
    H           -1.171940522497     1.502240493858     0.029389901135
    H           -0.658501779824     0.469430105305     1.349093810722
    H           -2.003769946172    -0.244708340165    -0.917466871090

  Mulliken Charges: (a.u.)
   Center  Symbol    Alpha    Beta     Spin     Total
       1     H     0.39564  0.39564  0.00000  0.20872
       2     O     4.19272  4.19272  0.00000 -0.38545
       3     C     2.95470  2.95470  0.00000  0.09060
       4     C     2.97176  2.97176  0.00000  0.05648
       5     H     0.48115  0.48115  0.00000  0.03769
       6     H     0.47895  0.47895  0.00000  0.04210
       7     O     4.19856  4.19856  0.00000 -0.39713
       8     H     0.47311  0.47311  0.00000  0.05378
       9     H     0.45885  0.45885  0.00000  0.08231
      10     H     0.39456  0.39456  0.00000  0.21089

   Total alpha = 17.00000, Total beta = 17.00000, Total charge = -0.00000
