  ==> Input File <==

--------------------------------------------------------------------------
set {
	reference rhf
	basis 6-31G*
}

set_num_threads( 1 )
memory 2 gb

molecule MOL {
0 1

H	 2.591676	 2.013956	 0.335017
O	 3.341076	 1.666752	 -0.126416
C	 3.569581	 0.339145	 0.272707
C	 4.410819	 -0.451622	 -0.723152
H	 4.088357	 0.401957	 1.220653
H	 2.624920	 -0.172041	 0.454598
C	 3.744958	 -0.640708	 -2.088342
H	 5.363753	 0.055762	 -0.849022
H	 4.625309	 -1.426007	 -0.287336
C	 4.590444	 -1.483986	 -3.046910
H	 3.556508	 0.333111	 -2.531657
H	 2.773931	 -1.117747	 -1.954626
C	 3.931495	 -1.775806	 -4.400043
H	 5.545972	 -0.989206	 -3.211247
H	 4.819444	 -2.431674	 -2.564056
C	 3.720998	 -0.549337	 -5.292200
H	 4.552352	 -2.491297	 -4.935230
H	 2.975384	 -2.270224	 -4.235003
C	 3.159042	 -0.904186	 -6.670505
H	 4.669215	 -0.027956	 -5.415308
H	 3.047143	 0.153906	 -4.808805
C	 2.941943	 0.318911	 -7.560766
H	 3.835253	 -1.596414	 -7.167543
H	 2.216339	 -1.433798	 -6.549236
H	 3.873419	 0.852401	 -7.727995
H	 2.545236	 0.034634	 -8.530532
H	 2.240815	 1.014449	 -7.107984

	symmetry c1
}
set optking {
	frozen_dihedral = ("
		14 10 7 4,
		14 10 13 16,
		10 7 4 8,
		8 4 3 2,
		10 13 16 20,
		20 16 19 22
	")
}

ee = energy('scf')
oeprop('DIPOLE', 'QUADRUPOLE', 'MULLIKEN_CHARGES')
f=open( 'psi4out.xyz', 'w' )
f.write( "27  " )
f.write( str(ee) + "\n" )
f.write( MOL.save_string_xyz() )
f.close()
--------------------------------------------------------------------------

    Molecular point group: c1

    Geometry (in Angstrom), charge = 0, multiplicity = 1:

       Center              X                  Y                   Z               Mass
    ------------   -----------------  -----------------  -----------------  -----------------
           H         -1.102409423586     2.354207413313     3.581728268545     1.007825032070
           O         -0.353009423586     2.007003413313     3.120295268545    15.994914619560
           C         -0.124504423586     0.679396413313     3.519418268545    12.000000000000
           C          0.716733576414    -0.111370586687     2.523559268545    12.000000000000
           H          0.394271576414     0.742208413313     4.467364268545     1.007825032070
           H         -1.069165423586     0.168210413313     3.701309268545     1.007825032070
           C          0.050872576414    -0.300456586687     1.158369268545    12.000000000000
           H          1.669667576414     0.396013413313     2.397689268545     1.007825032070
           H          0.931223576414    -1.085755586687     2.959375268545     1.007825032070
           C          0.896358576414    -1.143734586687     0.199801268545    12.000000000000
           H         -0.137577423586     0.673362413313     0.715054268545     1.007825032070
           H         -0.920154423586    -0.777495586687     1.292085268545     1.007825032070
           C          0.237409576414    -1.435554586687    -1.153331731455    12.000000000000
           H          1.851886576414    -0.648954586687     0.035464268545     1.007825032070
           H          1.125358576414    -2.091422586687     0.682655268545     1.007825032070
           C          0.026912576414    -0.209085586687    -2.045488731455    12.000000000000
           H          0.858266576414    -2.151045586687    -1.688518731455     1.007825032070
           H         -0.718701423586    -1.929972586687    -0.988291731455     1.007825032070
           C         -0.535043423586    -0.563934586687    -3.423793731455    12.000000000000
           H          0.975129576414     0.312295413313    -2.168596731455     1.007825032070
           H         -0.646942423586     0.494157413313    -1.562093731455     1.007825032070
           C         -0.752142423586     0.659162413313    -4.314054731455    12.000000000000
           H          0.141167576414    -1.256162586687    -3.920831731455     1.007825032070
           H         -1.477746423586    -1.093546586687    -3.302524731455     1.007825032070
           H          0.179333576414     1.192652413313    -4.481283731455     1.007825032070
           H         -1.148849423586     0.374885413313    -5.283820731455     1.007825032070
           H         -1.453270423586     1.354700413313    -3.861272731455     1.007825032070

  Charge       = 0
  Multiplicity = 1
  Basis Set: 6-31G*
  Basis Set:

    Orbital Energies (a.u.)
    -----------------------

    Doubly Occupied:

       1A    -20.550591     2A    -11.267331     3A    -11.214960
       4A    -11.211431     5A    -11.210347     6A    -11.209781
       7A    -11.208303     8A    -11.208285     9A    -11.205285
      10A     -1.358139    11A     -1.088882    12A     -1.056712
      13A     -1.008084    14A     -0.943389    15A     -0.880350
      16A     -0.812461    17A     -0.795051    18A     -0.771277
      19A     -0.702614    20A     -0.644203    21A     -0.633902
      22A     -0.621037    23A     -0.588207    24A     -0.578494
      25A     -0.574686    26A     -0.547039    27A     -0.538107
      28A     -0.517344    29A     -0.507255    30A     -0.488079
      31A     -0.476000    32A     -0.475288    33A     -0.460102
      34A     -0.453700    35A     -0.445591    36A     -0.439345
      37A     -0.419658

  @DF-RHF Final Energy:  -388.28021901103631

   => Energetics <=

    Nuclear Repulsion Energy =            458.4707135190328131
    One-Electron Energy =               -1435.2791789358873302
    Two-Electron Energy =                 588.5282464058170717
    DFT Exchange-Correlation Energy =       0.0000000000000000
    Empirical Dispersion Energy =           0.0000000000000000
    PCM Polarization Energy =               0.0000000000000000
    EFP Energy =                            0.0000000000000000
    Total Energy =                       -388.2802190110373886

  Mulliken Charges: (a.u.)
   Center  Symbol    Alpha    Beta     Spin     Total
       1     H     0.27990  0.27990  0.00000  0.44020
       2     O     4.37220  4.37220  0.00000 -0.74440
       3     C     2.99427  2.99427  0.00000  0.01147
       4     C     3.16139  3.16139  0.00000 -0.32277
       5     H     0.42780  0.42780  0.00000  0.14439
       6     H     0.43408  0.43408  0.00000  0.13185
       7     C     3.15672  3.15672  0.00000 -0.31343
       8     H     0.41473  0.41473  0.00000  0.17054
       9     H     0.42264  0.42264  0.00000  0.15472
      10     C     3.15342  3.15342  0.00000 -0.30684
      11     H     0.40763  0.40763  0.00000  0.18474
      12     H     0.42797  0.42797  0.00000  0.14407
      13     C     3.15273  3.15273  0.00000 -0.30547
      14     H     0.42322  0.42322  0.00000  0.15355
      15     H     0.42444  0.42444  0.00000  0.15111
      16     C     3.15284  3.15284  0.00000 -0.30567
      17     H     0.42271  0.42271  0.00000  0.15459
      18     H     0.42485  0.42485  0.00000  0.15030
      19     C     3.15103  3.15103  0.00000 -0.30207
      20     H     0.42424  0.42424  0.00000  0.15152
      21     H     0.42085  0.42085  0.00000  0.15829
      22     C     3.23903  3.23903  0.00000 -0.47806
      23     H     0.42376  0.42376  0.00000  0.15247
      24     H     0.42377  0.42377  0.00000  0.15246
      25     H     0.42180  0.42180  0.00000  0.15640
      26     H     0.42018  0.42018  0.00000  0.15964
      27     H     0.42180  0.42180  0.00000  0.15640

   Total alpha = 37.00000, Total beta = 37.00000, Total charge = -0.00000
