  ==> Input File <==

--------------------------------------------------------------------------
set {
	reference rhf
	basis 6-31G*
}

set_num_threads( 4 )
memory 2 gb

molecule MOL {
0 1

H	 2.506245	 2.314633	 1.744492
O	 1.566291	 2.240076	 1.831300
C	 1.061824	 1.383609	 0.916767
C	 1.862786	 0.724974	 -0.007334
C	 -0.305913	 1.172184	 0.921907
H	 2.926973	 0.890921	 -0.009632
C	 1.296119	 -0.143811	 -0.924815
H	 -0.925731	 1.680289	 1.635161
C	 -0.865228	 0.300799	 0.000000
H	 1.926131	 -0.647773	 -1.635086
C	 -0.069869	 -0.361076	 -0.926875
C	 -2.333960	 0.069074	 0.000000
H	 -0.512136	 -1.035473	 -1.638629
O	 -2.847347	 -1.003763	 0.000000
H	 -2.943845	 0.977528	 0.000000

	symmetry c1
}
set optking {
	frozen_dihedral = ("
		11 9 12 14
	")
}

ee = optimize('scf')
oeprop('DIPOLE', 'QUADRUPOLE', 'MULLIKEN_CHARGES')
f=open( 'psi4out.xyz', 'w' )
f.write( "15  " )
f.write( str(ee) + "\n" )
f.write( MOL.save_string_xyz() )
f.close()
--------------------------------------------------------------------------

    Molecular point group: c1
  Charge       = 0
  Multiplicity = 1
  Basis Set: 6-31G*
  Basis Set:
  @DF-RHF Final Energy:  -418.27899098400718
    Total Energy =                       -418.2789909840067821
    Molecular point group: c1
  Basis Set: 6-31G*
  Basis Set:
  Basis Set: 6-31G*
  Basis Set:
  @DF-RHF Final Energy:  -418.27780626078390
    Total Energy =                       -418.2778062607839047
  Basis Set: 6-31G*
  Basis Set:
  Basis Set: 6-31G*
  Basis Set:
  @DF-RHF Final Energy:  -418.27937605953167
    Total Energy =                       -418.2793760595318417
  Basis Set: 6-31G*
  Basis Set:
  Basis Set: 6-31G*
  Basis Set:
  @DF-RHF Final Energy:  -418.27967500690687
    Total Energy =                       -418.2796750069067002
  Basis Set: 6-31G*
  Basis Set:
  Basis Set: 6-31G*
  Basis Set:
  @DF-RHF Final Energy:  -418.27967727792947
    Total Energy =                       -418.2796772779292951
  Basis Set: 6-31G*
  Basis Set:
  Charge       = 0
  Multiplicity = 1
  Basis Set: 6-31G*
  Basis Set:

    Orbital Energies (a.u.)
    -----------------------

    Doubly Occupied:

       1A    -20.604119     2A    -20.569229     3A    -11.334660
       4A    -11.314545     5A    -11.255108     6A    -11.251445
       7A    -11.245672     8A    -11.243501     9A    -11.239676
      10A     -1.423681    11A     -1.408774    12A     -1.168786
      13A     -1.049846    14A     -1.024066    15A     -0.900400
      16A     -0.844122    17A     -0.815273    18A     -0.738359
      19A     -0.700396    20A     -0.671908    21A     -0.666565
      22A     -0.632142    23A     -0.613170    24A     -0.602497
      25A     -0.581387    26A     -0.540826    27A     -0.537253
      28A     -0.514484    29A     -0.488788    30A     -0.423665
      31A     -0.354512    32A     -0.324285

  @DF-RHF Final Energy:  -418.27967777219601

   => Energetics <=

    Nuclear Repulsion Energy =            401.9326815401444719
    One-Electron Energy =               -1366.2584413524905358
    Two-Electron Energy =                 546.0460820401499404
    DFT Exchange-Correlation Energy =       0.0000000000000000
    Empirical Dispersion Energy =           0.0000000000000000
    PCM Polarization Energy =               0.0000000000000000
    EFP Energy =                            0.0000000000000000
    Total Energy =                       -418.2796777721961234
    Molecular point group: c1
  Basis Set: 6-31G*
  Basis Set:

  -Total Gradient:
     Atom            X                  Y                   Z
    ------   -----------------  -----------------  -----------------
       1       -0.000000422869    -0.000000646599    -0.000000630829
       2        0.000008619127    -0.000009865073    -0.000013882263
       3       -0.000110044813     0.000024186509     0.000038851139
       4        0.000012547769    -0.000071667431    -0.000082156189
       5        0.000061442926     0.000024390093     0.000025724666
       6       -0.000001465148     0.000008422439     0.000000157433
       7        0.000102999819     0.000046858521     0.000071028945
       8        0.000003287554    -0.000000432389     0.000001054266
       9        0.000731175358    -0.006787083705     0.008270707408
      10       -0.000004889696    -0.000000481938    -0.000005989908
      11       -0.000625279479     0.004546383144    -0.003518732583
      12       -0.000170840929     0.002448798767    -0.011837286934
      13       -0.000002234791     0.000000789517    -0.000000004781
      14       -0.000038607746    -0.000233766604     0.007045273184
      15        0.000033712926     0.000004114748     0.000005886442

  **** Optimization is complete! (in 6 steps) ****
    Final optimized geometry and variables:
    Molecular point group: c1

    Geometry (in Angstrom), charge = 0, multiplicity = 1:

    H            2.577189146677     1.814076635152     1.521562550876
    O            1.636229734332     1.738905914511     1.597802647123
    C            1.145917698920     0.875081285156     0.682605912119
    C            1.950440060988     0.224075826464    -0.238879159502
    C           -0.224787925710     0.662379157561     0.676810921729
    H            3.012822950323     0.400394200180    -0.245814682080
    C            1.383347167789    -0.646620368761    -1.157323213685
    H           -0.835435662255     1.196238016751     1.382793439512
    C           -0.775515363320    -0.238591305863    -0.218223268875
    H            2.014065995781    -1.137207634409    -1.876443941907
    C            0.022392744988    -0.885061302110    -1.155300097356
    C           -2.256947840836    -0.426672755047    -0.239608127074
    H           -0.420500360266    -1.567706844607    -1.855921327780
    O           -2.790775769702    -1.487632103838    -0.282337255891
    H           -2.846833178371     0.490653785059    -0.158286957191

  Mulliken Charges: (a.u.)
   Center  Symbol    Alpha    Beta     Spin     Total
       1     H     0.27004  0.27004  0.00000  0.45991
       2     O     4.37700  4.37700  0.00000 -0.75400
       3     C     2.79288  2.79288  0.00000  0.41425
       4     C     3.13874  3.13874  0.00000 -0.27748
       5     C     3.12993  3.12993  0.00000 -0.25986
       6     H     0.39985  0.39985  0.00000  0.20030
       7     C     3.09173  3.09173  0.00000 -0.18346
       8     H     0.38565  0.38565  0.00000  0.22870
       9     C     3.02824  3.02824  0.00000 -0.05648
      10     H     0.39293  0.39293  0.00000  0.21415
      11     C     3.10900  3.10900  0.00000 -0.21801
      12     C     2.84542  2.84542  0.00000  0.30917
      13     H     0.38522  0.38522  0.00000  0.22956
      14     O     4.23211  4.23211  0.00000 -0.46422
      15     H     0.42126  0.42126  0.00000  0.15748

   Total alpha = 32.00000, Total beta = 32.00000, Total charge = -0.00000
