  ==> Input File <==

--------------------------------------------------------------------------
set {
	reference rhf
	basis 6-31G*
}

set_num_threads( 1 )
memory 2 gb

molecule MOL {
0 1

H	 -4.135311	 -0.597295	 1.048720
O	 -3.456397	 -0.705634	 0.398148
C	 -2.241405	 -0.207013	 0.895906
C	 -1.177863	 -0.397191	 -0.171080
H	 -2.334323	 0.849032	 1.145792
H	 -1.955177	 -0.733318	 1.805530
C	 0.198102	 0.111031	 0.262842
H	 -1.500721	 0.118575	 -1.071345
H	 -1.126617	 -1.453973	 -0.418187
C	 1.331804	 -0.827780	 -0.158768
H	 0.361943	 1.100838	 -0.156218
H	 0.217265	 0.229072	 1.345532
C	 2.723619	 -0.410569	 0.329459
H	 1.342964	 -0.912588	 -1.244120
H	 1.116806	 -1.824343	 0.220779
C	 3.243875	 0.895854	 -0.272975
H	 3.424222	 -1.207124	 0.091250
H	 2.714788	 -0.329854	 1.414619
H	 3.251977	 0.848779	 -1.358681
H	 2.637085	 1.747371	 0.016682
H	 4.259473	 1.094070	 0.055697

	symmetry c1
}
set optking {
	frozen_dihedral = ("
		2 3 4 8,
		4 7 10 14,
		16 13 10 14,
		1 2 3 5
	")
}

ee = energy('scf')
oeprop('DIPOLE', 'QUADRUPOLE', 'MULLIKEN_CHARGES')
f=open( 'psi4out.xyz', 'w' )
f.write( "21  " )
f.write( str(ee) + "\n" )
f.write( MOL.save_string_xyz() )
f.close()
--------------------------------------------------------------------------

    Molecular point group: c1

    Geometry (in Angstrom), charge = 0, multiplicity = 1:

       Center              X                  Y                   Z               Mass
    ------------   -----------------  -----------------  -----------------  -----------------
           H         -4.154819748557    -0.377973462168     0.853707343730     1.007825032070
           O         -3.475905748557    -0.486312462168     0.203135343730    15.994914619560
           C         -2.260913748557     0.012308537832     0.700893343730    12.000000000000
           C         -1.197371748557    -0.177869462168    -0.366092656270    12.000000000000
           H         -2.353831748557     1.068353537832     0.950779343730     1.007825032070
           H         -1.974685748557    -0.513996462168     1.610517343730     1.007825032070
           C          0.178593251443     0.330352537832     0.067829343730    12.000000000000
           H         -1.520229748557     0.337896537832    -1.266357656270     1.007825032070
           H         -1.146125748557    -1.234651462168    -0.613199656270     1.007825032070
           C          1.312295251443    -0.608458462168    -0.353780656270    12.000000000000
           H          0.342434251443     1.320159537832    -0.351230656270     1.007825032070
           H          0.197756251443     0.448393537832     1.150519343730     1.007825032070
           C          2.704110251443    -0.191247462168     0.134446343730    12.000000000000
           H          1.323455251443    -0.693266462168    -1.439132656270     1.007825032070
           H          1.097297251443    -1.605021462168     0.025766343730     1.007825032070
           C          3.224366251443     1.115175537832    -0.467987656270    12.000000000000
           H          3.404713251443    -0.987802462168    -0.103762656270     1.007825032070
           H          2.695279251443    -0.110532462168     1.219606343730     1.007825032070
           H          3.232468251443     1.068100537832    -1.553693656270     1.007825032070
           H          2.617576251443     1.966692537832    -0.178330656270     1.007825032070
           H          4.239964251443     1.313391537832    -0.139315656270     1.007825032070

  Charge       = 0
  Multiplicity = 1
  Basis Set: 6-31G*
  Basis Set:

    Orbital Energies (a.u.)
    -----------------------

    Doubly Occupied:

       1A    -20.551724     2A    -11.267551     3A    -11.214931
       4A    -11.214722     5A    -11.213756     6A    -11.209354
       7A    -11.207981     8A     -1.358630     9A     -1.086378
      10A     -1.032971    11A     -0.953783    12A     -0.876387
      13A     -0.807286    14A     -0.779452    15A     -0.692975
      16A     -0.658104    17A     -0.621740    18A     -0.608762
      19A     -0.591555    20A     -0.557274    21A     -0.548536
      22A     -0.517027    23A     -0.505572    24A     -0.494304
      25A     -0.475761    26A     -0.458716    27A     -0.454839
      28A     -0.444553    29A     -0.432264

  @DF-RHF Final Energy:  -310.20882991927567

   => Energetics <=

    Nuclear Repulsion Energy =            312.8694370181686963
    One-Electron Energy =               -1040.4827444484378702
    Two-Electron Energy =                 417.4044775109934449
    DFT Exchange-Correlation Energy =       0.0000000000000000
    Empirical Dispersion Energy =           0.0000000000000000
    PCM Polarization Energy =               0.0000000000000000
    EFP Energy =                            0.0000000000000000
    Total Energy =                       -310.2088299192757290

  Mulliken Charges: (a.u.)
   Center  Symbol    Alpha    Beta     Spin     Total
       1     H     0.28127  0.28127  0.00000  0.43746
       2     O     4.37168  4.37168  0.00000 -0.74336
       3     C     2.99307  2.99307  0.00000  0.01385
       4     C     3.15968  3.15968  0.00000 -0.31936
       5     H     0.43250  0.43250  0.00000  0.13499
       6     H     0.43258  0.43258  0.00000  0.13484
       7     C     3.16363  3.16363  0.00000 -0.32726
       8     H     0.41298  0.41298  0.00000  0.17405
       9     H     0.41299  0.41299  0.00000  0.17402
      10     C     3.15389  3.15389  0.00000 -0.30779
      11     H     0.41746  0.41746  0.00000  0.16509
      12     H     0.42440  0.42440  0.00000  0.15120
      13     C     3.15289  3.15289  0.00000 -0.30577
      14     H     0.42227  0.42227  0.00000  0.15546
      15     H     0.42120  0.42120  0.00000  0.15759
      16     C     3.24118  3.24118  0.00000 -0.48235
      17     H     0.42082  0.42082  0.00000  0.15835
      18     H     0.42384  0.42384  0.00000  0.15232
      19     H     0.42189  0.42189  0.00000  0.15622
      20     H     0.42044  0.42044  0.00000  0.15911
      21     H     0.41933  0.41933  0.00000  0.16134

   Total alpha = 29.00000, Total beta = 29.00000, Total charge =  0.00000
