  ==> Input File <==

--------------------------------------------------------------------------
set {
	reference rhf
	basis 6-31G*
}

set_num_threads( 4 )
memory 2 gb

molecule MOL {
0 1

O	 -1.277674	 2.407430	 0.783041
C	 -1.394685	 1.628723	 -0.113819
C	 -0.174186	 1.001215	 -0.764144
C	 -2.753519	 1.204207	 -0.624438
C	 0.379448	 -0.143569	 0.099626
H	 0.578986	 1.775043	 -0.865264
H	 -0.416740	 0.633364	 -1.757058
C	 1.631333	 -0.777471	 -0.511575
H	 0.594120	 0.250787	 1.086431
H	 -0.384314	 -0.909302	 0.226384
C	 2.915987	 -0.544314	 0.291766
H	 1.766672	 -0.399098	 -1.523130
H	 1.471257	 -1.849544	 -0.605828
C	 3.373361	 0.914346	 0.347591
H	 3.708709	 -1.142521	 -0.150311
H	 2.780642	 -0.921148	 1.303579
H	 3.506512	 1.320010	 -0.651625
H	 4.322697	 0.999599	 0.867103
H	 2.660624	 1.545032	 0.868198
H	 -2.887618	 1.557744	 -1.643404
H	 -3.530602	 1.616776	 0.003823
H	 -2.834159	 0.121277	 -0.648205

	symmetry c1
}
set optking {
	frozen_dihedral = ("
		3 5 8 12
	")
}

ee = optimize('scf')
oeprop('DIPOLE', 'QUADRUPOLE', 'MULLIKEN_CHARGES')
f=open( 'psi4out.xyz', 'w' )
f.write( "22  " )
f.write( str(ee) + "\n" )
f.write( MOL.save_string_xyz() )
f.close()
--------------------------------------------------------------------------

    Molecular point group: c1
  Charge       = 0
  Multiplicity = 1
  Basis Set: 6-31G*
  Basis Set:
  @DF-RHF Final Energy:  -348.09292078942144
    Total Energy =                       -348.0929207894216120
    Molecular point group: c1
  Basis Set: 6-31G*
  Basis Set:
  Basis Set: 6-31G*
  Basis Set:
  @DF-RHF Final Energy:  -348.09314518453061
    Total Energy =                       -348.0931451845304991
  Basis Set: 6-31G*
  Basis Set:
  Basis Set: 6-31G*
  Basis Set:
  @DF-RHF Final Energy:  -348.09318713041313
    Total Energy =                       -348.0931871304130709
  Basis Set: 6-31G*
  Basis Set:
  Basis Set: 6-31G*
  Basis Set:
  @DF-RHF Final Energy:  -348.09325830799571
    Total Energy =                       -348.0932583079959386
  Basis Set: 6-31G*
  Basis Set:
  @DF-RHF Final Energy:  -348.09328626652717
    Total Energy =                       -348.0932862665271159
  @DF-RHF Final Energy:  -348.09329624304206
    Total Energy =                       -348.0932962430420048
  @DF-RHF Final Energy:  -348.09329812970185
    Total Energy =                       -348.0932981297016795
  @DF-RHF Final Energy:  -348.09319007352866
    Total Energy =                       -348.0931900735287172
  @DF-RHF Final Energy:  -348.09330115787503
    Total Energy =                       -348.0933011578750325
  Basis Set: 6-31G*
  Basis Set:
  @DF-RHF Final Energy:  -348.09329927563914
    Total Energy =                       -348.0932992756391968
  Basis Set: 6-31G*
  Basis Set:
  Basis Set: 6-31G*
  Basis Set:
  @DF-RHF Final Energy:  -348.09330053640173
    Total Energy =                       -348.0933005364021824
  Basis Set: 6-31G*
  Basis Set:
  Basis Set: 6-31G*
  Basis Set:
  @DF-RHF Final Energy:  -348.09330306610929
    Total Energy =                       -348.0933030661087741
  Basis Set: 6-31G*
  Basis Set:
  Charge       = 0
  Multiplicity = 1
  Basis Set: 6-31G*
  Basis Set:

    Orbital Energies (a.u.)
    -----------------------

    Doubly Occupied:

       1A    -20.547470     2A    -11.324301     3A    -11.229513
       4A    -11.228928     5A    -11.228221     6A    -11.221727
       7A    -11.219202     8A    -11.209659     9A     -1.393119
      10A     -1.093380    11A     -1.042659    12A     -0.998033
      13A     -0.938641    14A     -0.855975    15A     -0.785778
      16A     -0.733936    17A     -0.657484    18A     -0.648671
      19A     -0.626612    20A     -0.615023    21A     -0.598679
      22A     -0.577803    23A     -0.561013    24A     -0.548755
      25A     -0.530592    26A     -0.514459    27A     -0.504580
      28A     -0.486251    29A     -0.467080    30A     -0.463098
      31A     -0.456432    32A     -0.395799

  @DF-RHF Final Energy:  -348.09330310349094

   => Energetics <=

    Nuclear Repulsion Energy =            377.7764201882965835
    One-Electron Energy =               -1220.3337001257018528
    Two-Electron Energy =                 494.4639768339138755
    DFT Exchange-Correlation Energy =       0.0000000000000000
    Empirical Dispersion Energy =           0.0000000000000000
    PCM Polarization Energy =               0.0000000000000000
    EFP Energy =                            0.0000000000000000
    Total Energy =                       -348.0933031034913938
    Molecular point group: c1
  Basis Set: 6-31G*
  Basis Set:

  -Total Gradient:
     Atom            X                  Y                   Z
    ------   -----------------  -----------------  -----------------
       1       -0.000005123974     0.000004727713    -0.000002806017
       2        0.000012804736     0.000002957881    -0.000000796578
       3       -0.000357463039    -0.000404944828    -0.000319972992
       4       -0.000000584684    -0.000013668492     0.000003957699
       5        0.000609944086     0.000729375922     0.000516377562
       6       -0.000000309346    -0.000004200868     0.000005161123
       7       -0.000001468041    -0.000002204636    -0.000000632720
       8       -0.000740124879    -0.000976944667    -0.000513596711
       9        0.000001423562     0.000001519330     0.000001239575
      10        0.000000786315    -0.000001041563     0.000000988936
      11        0.000003735054    -0.000002061340    -0.000007400234
      12        0.000483877749     0.000659529109     0.000318168017
      13        0.000000230172    -0.000001154842     0.000000144380
      14       -0.000003375851     0.000002259564     0.000001711060
      15        0.000001277384    -0.000003169359     0.000001007557
      16       -0.000002480447     0.000001133071    -0.000002402102
      17       -0.000000996700    -0.000000919345     0.000001034475
      18       -0.000000088603    -0.000000450202    -0.000000378234
      19        0.000001030093     0.000002464402     0.000000193072
      20       -0.000001278379     0.000003304268    -0.000000267266
      21       -0.000000172103     0.000000046566     0.000000092664
      22       -0.000001643101     0.000003442311    -0.000001823266

  **** Optimization is complete! (in 13 steps) ****
    Final optimized geometry and variables:
    Molecular point group: c1

    Geometry (in Angstrom), charge = 0, multiplicity = 1:

    O           -1.605770929640     1.678612729362     0.848391676552
    C           -1.736666806298     0.906140114464    -0.052089836803
    C           -0.525534430331     0.278409653446    -0.719590661875
    C           -3.102998393822     0.496156891886    -0.554559930240
    C            0.038006826601    -0.869320699812     0.135380537361
    H            0.224932323057     1.052486628121    -0.834838290558
    H           -0.781775123570    -0.092136429030    -1.707980879733
    C            1.309138349276    -1.514339720445    -0.462901194309
    H            0.240152174602    -0.487550683459     1.130277889797
    H           -0.731925837992    -1.627332764995     0.254447981158
    C            2.584899275138    -1.268483146215     0.352036307174
    H            1.467773718145    -1.146527386980    -1.474360456275
    H            1.161230004628    -2.586305771197    -0.552761777667
    C            3.025033679639     0.195348960536     0.400239896886
    H            3.388456927263    -1.863903760153    -0.074526949709
    H            2.438118316096    -1.636563715635     1.365129276000
    H            3.210327146256     0.579322908471    -0.599408723755
    H            3.942771309350     0.303988984198     0.969689373742
    H            2.276900525110     0.829088201049     0.865657650352
    H           -3.242516224529     0.857622187603    -1.569986982821
    H           -3.871582595964     0.910510996353     0.082898746459
    H           -3.192337316993    -0.585926646711    -0.585002377933

  Mulliken Charges: (a.u.)
   Center  Symbol    Alpha    Beta     Spin     Total
       1     O     4.26277  4.26277  0.00000 -0.52553
       2     C     2.73782  2.73782  0.00000  0.52435
       3     C     3.20183  3.20183  0.00000 -0.40366
       4     C     3.28951  3.28951  0.00000 -0.57901
       5     C     3.16752  3.16752  0.00000 -0.33504
       6     H     0.39987  0.39987  0.00000  0.20026
       7     H     0.41643  0.41643  0.00000  0.16713
       8     C     3.15603  3.15603  0.00000 -0.31207
       9     H     0.40335  0.40335  0.00000  0.19330
      10     H     0.41808  0.41808  0.00000  0.16385
      11     C     3.15348  3.15348  0.00000 -0.30696
      12     H     0.42075  0.42075  0.00000  0.15850
      13     H     0.41743  0.41743  0.00000  0.16515
      14     C     3.24392  3.24392  0.00000 -0.48783
      15     H     0.42090  0.42090  0.00000  0.15821
      16     H     0.42134  0.42134  0.00000  0.15733
      17     H     0.42300  0.42300  0.00000  0.15400
      18     H     0.41776  0.41776  0.00000  0.16448
      19     H     0.41452  0.41452  0.00000  0.17097
      20     H     0.40687  0.40687  0.00000  0.18626
      21     H     0.39710  0.39710  0.00000  0.20579
      22     H     0.40973  0.40973  0.00000  0.18053

   Total alpha = 32.00000, Total beta = 32.00000, Total charge =  0.00000
