  ==> Input File <==

--------------------------------------------------------------------------
set {
	reference rhf
	basis 6-31G*
}

set_num_threads( 1 )
memory 2 gb

molecule MOL {
0 1

H	 -2.698709	 -0.000305	 0.034435
C	 -1.693833	 0.000034	 0.434417
O	 -0.828952	 -0.000968	 -0.659236
H	 -1.574200	 0.882896	 1.055746
H	 -1.574147	 -0.881698	 1.057355
C	 0.074373	 1.070079	 -0.805401
C	 -0.632441	 2.405231	 -1.030568
C	 1.092441	 1.136612	 0.331292
H	 0.608093	 0.819792	 -1.714539
H	 -1.381816	 2.307632	 -1.808681
H	 0.085652	 3.157383	 -1.341768
H	 -1.117652	 2.770274	 -0.130858
H	 1.536390	 0.160832	 0.496281
H	 1.885728	 1.833265	 0.078637
H	 0.647580	 1.472959	 1.262318

	symmetry c1
}
set optking {
	frozen_dihedral = ("
		9 6 3 2
	")
}

ee = energy('scf')
oeprop('DIPOLE', 'QUADRUPOLE', 'MULLIKEN_CHARGES')
f=open( 'psi4out.xyz', 'w' )
f.write( "15  " )
f.write( str(ee) + "\n" )
f.write( MOL.save_string_xyz() )
f.close()
--------------------------------------------------------------------------

    Molecular point group: c1

    Geometry (in Angstrom), charge = 0, multiplicity = 1:

       Center              X                  Y                   Z               Mass
    ------------   -----------------  -----------------  -----------------  -----------------
           H         -2.283124554374    -0.917627921045     0.363927188437     1.007825032070
           C         -1.278248554374    -0.917288921045     0.763909188437    12.000000000000
           O         -0.413367554374    -0.918290921045    -0.329743811563    15.994914619560
           H         -1.158615554374    -0.034426921045     1.385238188437     1.007825032070
           H         -1.158562554374    -1.799020921045     1.386847188437     1.007825032070
           C          0.489957445626     0.152756078955    -0.475908811563    12.000000000000
           C         -0.216856554374     1.487908078955    -0.701075811563    12.000000000000
           C          1.508025445626     0.219289078955     0.660784188437    12.000000000000
           H          1.023677445626    -0.097530921045    -1.385046811563     1.007825032070
           H         -0.966231554374     1.390309078955    -1.479188811563     1.007825032070
           H          0.501236445626     2.240060078955    -1.012275811563     1.007825032070
           H         -0.702067554374     1.852951078955     0.198634188437     1.007825032070
           H          1.951974445626    -0.756490921045     0.825773188437     1.007825032070
           H          2.301312445626     0.915942078955     0.408129188437     1.007825032070
           H          1.063164445626     0.555636078955     1.591810188437     1.007825032070

  Charge       = 0
  Multiplicity = 1
  Basis Set: 6-31G*
  Basis Set:

    Orbital Energies (a.u.)
    -----------------------

    Doubly Occupied:

       1A    -20.545807     2A    -11.275111     3A    -11.260825
       4A    -11.210734     5A    -11.210636     6A     -1.369446
       7A     -1.050573     8A     -0.939619     9A     -0.931216
      10A     -0.781556    11A     -0.676774    12A     -0.639165
      13A     -0.631973    14A     -0.570739    15A     -0.562632
      16A     -0.552084    17A     -0.538609    18A     -0.500816
      19A     -0.497469    20A     -0.442641    21A     -0.402390

  @DF-RHF Final Energy:  -232.13456680614749

   => Energetics <=

    Nuclear Repulsion Energy =            198.8150320350998470
    One-Electron Energy =                -708.7174806132935601
    Two-Electron Energy =                 277.7678817720471329
    DFT Exchange-Correlation Energy =       0.0000000000000000
    Empirical Dispersion Energy =           0.0000000000000000
    PCM Polarization Energy =               0.0000000000000000
    EFP Energy =                            0.0000000000000000
    Total Energy =                       -232.1345668061465517

  Mulliken Charges: (a.u.)
   Center  Symbol    Alpha    Beta     Spin     Total
       1     H     0.42019  0.42019  0.00000  0.15962
       2     C     3.07869  3.07869  0.00000 -0.15738
       3     O     4.31443  4.31443  0.00000 -0.62886
       4     H     0.43036  0.43036  0.00000  0.13927
       5     H     0.42087  0.42087  0.00000  0.15827
       6     C     2.91072  2.91072  0.00000  0.17856
       7     C     3.25182  3.25182  0.00000 -0.50364
       8     C     3.25159  3.25159  0.00000 -0.50318
       9     H     0.41531  0.41531  0.00000  0.16938
      10     H     0.41137  0.41137  0.00000  0.17725
      11     H     0.41953  0.41953  0.00000  0.16093
      12     H     0.42201  0.42201  0.00000  0.15597
      13     H     0.41128  0.41128  0.00000  0.17745
      14     H     0.41970  0.41970  0.00000  0.16060
      15     H     0.42212  0.42212  0.00000  0.15575

   Total alpha = 21.00000, Total beta = 21.00000, Total charge =  0.00000
