  ==> Input File <==

--------------------------------------------------------------------------
set {
	reference rhf
	basis cc-pvtz
}

set_num_threads( 4 )
memory 2 gb

molecule MOL {
0 1

H	 0.301609	 1.700568	 -1.711293
C	 0.532861	 1.852385	 -0.648689
C	 0.692262	 0.592428	 0.156232
O	 0.634863	 2.947997	 -0.216411
C	 -0.554654	 -0.292621	 0.086567
H	 0.925773	 0.864831	 1.177068
H	 1.542716	 0.050565	 -0.252413
C	 -1.846385	 0.513195	 -0.016346
H	 -0.473986	 -0.956115	 -0.769708
H	 -0.597929	 -0.929215	 0.966651
C	 -3.089953	 -0.365049	 -0.098564
H	 -1.798267	 1.154820	 -0.891143
H	 -1.925398	 1.173265	 0.842889
H	 -3.055079	 -1.012299	 -0.968245
H	 -3.988403	 0.236438	 -0.170014
H	 -3.183055	 -0.995885	 0.779079

	symmetry c1
}
set optking {
	frozen_dihedral = ("
		6 3 5 9
	")
}

ee = optimize('scf')
oeprop('DIPOLE', 'QUADRUPOLE', 'MULLIKEN_CHARGES')
f=open( 'psi4out.xyz', 'w' )
f.write( "16  " )
f.write( str(ee) + "\n" )
f.write( MOL.save_string_xyz() )
f.close()
--------------------------------------------------------------------------

    Molecular point group: c1
  Charge       = 0
  Multiplicity = 1
  Basis Set: CC-PVTZ
  Basis Set:
  @DF-RHF Final Energy:  -270.11342281621501
    Total Energy =                       -270.1134228162149498
    Molecular point group: c1
  Basis Set: CC-PVTZ
  Basis Set:
  Basis Set: CC-PVTZ
  Basis Set:
  @DF-RHF Final Energy:  -270.11507092906550
    Total Energy =                       -270.1150709290653822
  Basis Set: CC-PVTZ
  Basis Set:
  Basis Set: CC-PVTZ
  Basis Set:
  @DF-RHF Final Energy:  -270.11516501331448
    Total Energy =                       -270.1151650133145381
  Basis Set: CC-PVTZ
  Basis Set:
  Basis Set: CC-PVTZ
  Basis Set:
  @DF-RHF Final Energy:  -270.11524713331369
    Total Energy =                       -270.1152471333138010
  Basis Set: CC-PVTZ
  Basis Set:
  @DF-RHF Final Energy:  -270.11528242753957
    Total Energy =                       -270.1152824275393414
  @DF-RHF Final Energy:  -270.11531726700252
    Total Energy =                       -270.1153172670024105
  Basis Set: CC-PVTZ
  Basis Set:
  @DF-RHF Final Energy:  -270.11534272234809
    Total Energy =                       -270.1153427223483732
  Basis Set: CC-PVTZ
  Basis Set:
  Basis Set: CC-PVTZ
  Basis Set:
  @DF-RHF Final Energy:  -270.11535568436250
    Total Energy =                       -270.1153556843625552
  Basis Set: CC-PVTZ
  Basis Set:
  Basis Set: CC-PVTZ
  Basis Set:
  @DF-RHF Final Energy:  -270.11535725889928
    Total Energy =                       -270.1153572588993370
  Basis Set: CC-PVTZ
  Basis Set:
  Charge       = 0
  Multiplicity = 1
  Basis Set: CC-PVTZ
  Basis Set:

    Orbital Energies (a.u.)
    -----------------------

    Doubly Occupied:

       1A    -20.551087     2A    -11.321295     3A    -11.234394
       4A    -11.233773     5A    -11.226287     6A    -11.216136
       7A     -1.406051     8A     -1.095972     9A     -1.017994
      10A     -0.906229    11A     -0.828931    12A     -0.781317
      13A     -0.671381    14A     -0.652107    15A     -0.625926
      16A     -0.607977    17A     -0.588828    18A     -0.553971
      19A     -0.527050    20A     -0.514141    21A     -0.493253
      22A     -0.477963    23A     -0.469876    24A     -0.411680

  @DF-RHF Final Energy:  -270.11535719388439

   => Energetics <=

    Nuclear Repulsion Energy =            234.1188347654048414
    One-Electron Energy =                -829.6411464924451593
    Two-Electron Energy =                 325.4069545331560676
    DFT Exchange-Correlation Energy =       0.0000000000000000
    Empirical Dispersion Energy =           0.0000000000000000
    PCM Polarization Energy =               0.0000000000000000
    EFP Energy =                            0.0000000000000000
    Total Energy =                       -270.1153571938842788
    Molecular point group: c1
  Basis Set: CC-PVTZ
  Basis Set:

  -Total Gradient:
     Atom            X                  Y                   Z
    ------   -----------------  -----------------  -----------------
       1       -0.000024392289    -0.000010850204    -0.000003310936
       2        0.000013946895    -0.000034621741     0.000026310691
       3       -0.003493834176     0.004942154433     0.000055206393
       4       -0.000009328641     0.000004599261     0.000011116578
       5       -0.002040714847     0.003673065486    -0.003845604373
       6        0.003212838105    -0.004668285739     0.000557463800
       7        0.000026846103     0.000000336427    -0.000010941882
       8        0.000024892196    -0.000055430968    -0.000027619830
       9        0.002330028829    -0.003900280915     0.003212822064
      10       -0.000012185793     0.000010001683     0.000031027907
      11       -0.000019745762     0.000033100985     0.000000600006
      12        0.000006582778    -0.000003603579    -0.000008342330
      13       -0.000017336745    -0.000004738477     0.000004126551
      14        0.000009056352     0.000009801367     0.000001196843
      15       -0.000018090722    -0.000007633925    -0.000000316556
      16        0.000011437722     0.000012385911    -0.000003734927

  **** Optimization is complete! (in 10 steps) ****
    Final optimized geometry and variables:
    Molecular point group: c1

    Geometry (in Angstrom), charge = 0, multiplicity = 1:

    H            1.074649392196     0.825114720326    -1.601510838905
    C            1.247204981080     0.983852333674    -0.528971175139
    C            1.254649622077    -0.264656155052     0.306314537189
    O            1.427783069867     2.076443221475    -0.114805537181
    C           -0.000203821917    -1.142770840383     0.153296662174
    H            1.440000289084    -0.013998263970     1.342099187313
    H            2.116901203343    -0.842151525077    -0.022494390423
    C           -1.323058665682    -0.382181828078     0.107955572688
    H            0.105174178134    -1.794787238338    -0.708515101463
    H           -0.018507618028    -1.817649580197     1.003509339711
    C           -2.531914969553    -1.310723045986     0.077984101948
    H           -1.352141459128     0.265736815303    -0.762866030736
    H           -1.387908188376     0.271488095733     0.972823806568
    H           -2.506063051490    -1.959038489158    -0.791520772091
    H           -3.456418376014    -0.746920016854     0.042800368365
    H           -2.561856428906    -1.941896034678     0.959627116725

  Mulliken Charges: (a.u.)
   Center  Symbol    Alpha    Beta     Spin     Total
       1     H     0.46246  0.46246  0.00000  0.07507
       2     C     2.90263  2.90263  0.00000  0.19473
       3     C     3.09173  3.09173  0.00000 -0.18347
       4     O     4.16763  4.16763  0.00000 -0.33526
       5     C     3.10633  3.10633  0.00000 -0.21265
       6     H     0.44052  0.44052  0.00000  0.11896
       7     H     0.44461  0.44461  0.00000  0.11078
       8     C     3.08847  3.08847  0.00000 -0.17695
       9     H     0.44795  0.44795  0.00000  0.10409
      10     H     0.44670  0.44670  0.00000  0.10661
      11     C     3.15051  3.15051  0.00000 -0.30102
      12     H     0.45154  0.45154  0.00000  0.09692
      13     H     0.44485  0.44485  0.00000  0.11030
      14     H     0.45489  0.45489  0.00000  0.09021
      15     H     0.44563  0.44563  0.00000  0.10873
      16     H     0.45353  0.45353  0.00000  0.09294

   Total alpha = 24.00000, Total beta = 24.00000, Total charge = -0.00000
