  ==> Input File <==

--------------------------------------------------------------------------
set {
	reference rhf
	basis cc-pvtz
}

set_num_threads( 4 )
memory 2 gb

molecule MOL {
0 1

H	 2.753051	 0.243456	 0.842304
N	 2.326826	 -0.066186	 0.000000
C	 0.934676	 -0.005420	 0.000000
H	 2.757548	 0.346475	 -0.794489
C	 0.226436	 -0.001077	 -1.195129
C	 0.226436	 -0.001077	 1.195129
H	 0.759091	 -0.011439	 -2.128123
C	 -1.153391	 0.009141	 -1.189028
H	 0.759091	 -0.011439	 2.128123
C	 -1.153391	 0.009141	 1.189028
H	 -1.680905	 0.012964	 -2.124348
C	 -1.857876	 0.014675	 0.000000
H	 -1.680905	 0.012964	 2.124348
H	 -2.930222	 0.022904	 0.000000

	symmetry c1
}
set optking {
	frozen_dihedral = ("
		1 2 3 5
	")
}

ee = optimize('scf')
oeprop('DIPOLE', 'QUADRUPOLE', 'MULLIKEN_CHARGES')
f=open( 'psi4out.xyz', 'w' )
f.write( "14  " )
f.write( str(ee) + "\n" )
f.write( MOL.save_string_xyz() )
f.close()
--------------------------------------------------------------------------

    Molecular point group: c1
  Charge       = 0
  Multiplicity = 1
  Basis Set: CC-PVTZ
  Basis Set:
  @DF-RHF Final Energy:  -285.83369835705685
    Total Energy =                       -285.8336983570569032
    Molecular point group: c1
  Basis Set: CC-PVTZ
  Basis Set:
  Basis Set: CC-PVTZ
  Basis Set:
  @DF-RHF Final Energy:  -285.83370348935614
    Total Energy =                       -285.8337034893561963
  Basis Set: CC-PVTZ
  Basis Set:
  Basis Set: CC-PVTZ
  Basis Set:
  @DF-RHF Final Energy:  -285.83370499041928
    Total Energy =                       -285.8337049904193350
  Basis Set: CC-PVTZ
  Basis Set:
  Charge       = 0
  Multiplicity = 1
  Basis Set: CC-PVTZ
  Basis Set:

    Orbital Energies (a.u.)
    -----------------------

    Doubly Occupied:

       1A    -15.556080     2A    -11.271061     3A    -11.227090
       4A    -11.227035     5A    -11.215505     6A    -11.215322
       7A    -11.210808     8A     -1.227173     9A     -1.130507
      10A     -1.013375    11A     -0.987877    12A     -0.832897
      13A     -0.813653    14A     -0.708283    15A     -0.688293
      16A     -0.654987    17A     -0.598833    18A     -0.594591
      19A     -0.581541    20A     -0.535420    21A     -0.506448
      22A     -0.487216    23A     -0.448855    24A     -0.336211
      25A     -0.294171

  @DF-RHF Final Energy:  -285.83370530750886

   => Energetics <=

    Nuclear Repulsion Energy =            273.7503300184061459
    One-Electron Energy =                -928.4416042775812912
    Two-Electron Energy =                 368.8575689516662237
    DFT Exchange-Correlation Energy =       0.0000000000000000
    Empirical Dispersion Energy =           0.0000000000000000
    PCM Polarization Energy =               0.0000000000000000
    EFP Energy =                            0.0000000000000000
    Total Energy =                       -285.8337053075088647
    Molecular point group: c1
  Basis Set: CC-PVTZ
  Basis Set:

  -Total Gradient:
     Atom            X                  Y                   Z
    ------   -----------------  -----------------  -----------------
       1       -0.000017343470    -0.000455731704     0.000190404668
       2        0.000083149347     0.000388863200    -0.000239679655
       3       -0.000076277377     0.000436840639     0.000069020729
       4       -0.000021002168     0.000002964364     0.000000299557
       5        0.000014901141    -0.000368608514     0.000004472591
       6        0.000025277466     0.000001265552    -0.000021442333
       7       -0.000001915956    -0.000004666410     0.000006557017
       8       -0.000030044141    -0.000010107425     0.000004484500
       9        0.000000610541     0.000008573974     0.000005667072
      10        0.000010677225    -0.000013274248     0.000011857603
      11       -0.000000900464     0.000005029824    -0.000000417171
      12        0.000011723026     0.000011001808    -0.000028056582
      13        0.000002613056    -0.000004393241    -0.000004393309
      14       -0.000001468222     0.000002242181     0.000001225312

  **** Optimization is complete! (in 4 steps) ****
    Final optimized geometry and variables:
    Molecular point group: c1

    Geometry (in Angstrom), charge = 0, multiplicity = 1:

    H            2.756380452858     0.245437398200     0.838762334767
    N            2.326458814651    -0.064622699593    -0.001241149536
    C            0.934771799828    -0.003150182879     0.000848354750
    H            2.758940599304     0.335345434750    -0.801049843957
    C            0.227085903293    -0.000295832092    -1.195034267761
    C            0.225775100209    -0.001061478604     1.195248712342
    H            0.760749868186    -0.012201759373    -2.127354849751
    C           -1.152412035374     0.010069328212    -1.189795187935
    H            0.757405168395    -0.009676573483     2.128885745032
    C           -1.154373120757     0.006142437119     1.188219811912
    H           -1.679376795435     0.013975281280    -2.125427171097
    C           -1.857912900468     0.013219486649    -0.001001088681
    H           -1.682437449191     0.007906024445     2.123229855355
    H           -2.930255285605     0.020341696128    -0.001778149694

  Mulliken Charges: (a.u.)
   Center  Symbol    Alpha    Beta     Spin     Total
       1     H     0.42279  0.42279  0.00000  0.15442
       2     N     3.66782  3.66782  0.00000 -0.33564
       3     C     2.88888  2.88888  0.00000  0.22224
       4     H     0.42159  0.42159  0.00000  0.15682
       5     C     3.11700  3.11700  0.00000 -0.23401
       6     C     3.11787  3.11787  0.00000 -0.23575
       7     H     0.43365  0.43365  0.00000  0.13270
       8     C     3.05782  3.05782  0.00000 -0.11564
       9     H     0.43452  0.43452  0.00000  0.13095
      10     C     3.05790  3.05790  0.00000 -0.11580
      11     H     0.42474  0.42474  0.00000  0.15052
      12     C     3.10525  3.10525  0.00000 -0.21050
      13     H     0.42476  0.42476  0.00000  0.15047
      14     H     0.42540  0.42540  0.00000  0.14921

   Total alpha = 25.00000, Total beta = 25.00000, Total charge = -0.00000
