                              Psi4 1.0.54 Driver

  ==> Input File <==

--------------------------------------------------------------------------
set {
	reference rhf
	basis cc-pvtz
}

set_num_threads( 4 )
memory 2 gb

molecule MOL {
0 1

H	 -4.340537	 -0.784487	 0.000000
O	 -3.958786	 0.074640	 0.000000
C	 -2.613554	 0.009900	 0.000000
C	 -1.914415	 1.205467	 0.000000
C	 -1.925892	 -1.188435	 0.000000
H	 -2.458132	 2.129173	 0.000000
C	 -0.537232	 1.197572	 0.000000
H	 -2.461311	 -2.120043	 0.000000
C	 -0.542895	 -1.194582	 0.000000
H	 0.001796	 2.123432	 0.000000
C	 0.145801	 -0.003712	 0.000000
H	 -0.013882	 -2.126166	 0.000000
Br	 2.044181	 -0.009176	 0.000000

	symmetry c1
}
set optking {
	frozen_dihedral = ("
		4 3 2 1
	")
}

ee,wfn = optimize('scf', return_wfn=True)
oeprop( wfn, 'DIPOLE', 'QUADRUPOLE', 'MULLIKEN_CHARGES')
f=open( 'psi4out.xyz', 'w' )
f.write( "13  " )
f.write( str(ee) + "\n" )
f.write( MOL.save_string_xyz() )
f.close()
--------------------------------------------------------------------------

    Molecular point group: c1
  Charge       = 0
  Multiplicity = 1
  Basis Set: CC-PVTZ
  Basis Set:

    Orbital Energies (a.u.)
    -----------------------

    Doubly Occupied:

       1A   -490.018352     2A    -65.158671     3A    -58.513898
       4A    -58.512529     5A    -58.512526     6A    -20.597056
       7A    -11.312209     8A    -11.287564     9A    -11.254088
      10A    -11.252332    11A    -11.242803    12A    -11.237389
      13A     -9.832464    14A     -7.444082    15A     -7.437336
      16A     -7.437261    17A     -3.187771    18A     -3.184215
      19A     -3.184122    20A     -3.175468    21A     -3.175464
      22A     -1.428623    23A     -1.179873    24A     -1.066690
      25A     -1.042266    26A     -0.970513    27A     -0.870166
      28A     -0.828201    29A     -0.758469    30A     -0.690147
      31A     -0.653954    32A     -0.626038    33A     -0.610298
      34A     -0.609189    35A     -0.582388    36A     -0.521870
      37A     -0.514699    38A     -0.501389    39A     -0.427668
      40A     -0.413539    41A     -0.360483    42A     -0.317134

  @DF-RHF Final Energy: -2877.54704404958193

   => Energetics <=

    Nuclear Repulsion Energy =            525.5149888053608720
    One-Electron Energy =               -5042.2616841412927897
    Two-Electron Energy =                1639.1996512863488533
    DFT Exchange-Correlation Energy =       0.0000000000000000
    Empirical Dispersion Energy =           0.0000000000000000
    PCM Polarization Energy =               0.0000000000000000
    EFP Energy =                            0.0000000000000000
    Total Energy =                      -2877.5470440495828370
    Molecular point group: c1
  Basis Set: CC-PVTZ
  Basis Set:

  -Total Gradient:
     Atom            X                  Y                   Z
    ------   -----------------  -----------------  -----------------
       1       -0.000015161927     0.000061165233    -0.000000003404
       2       -0.000214049308    -0.000085187446     0.000000011753
       3        0.000263354213    -0.000030282480     0.000000007484
       4        0.000064932355     0.000051592813    -0.000000021291
       5       -0.000069701922     0.000013745730    -0.000000034800
       6       -0.000013059178    -0.000028753788     0.000000011952
       7       -0.000054106836     0.000063045966    -0.000000011424
       8        0.000005062025     0.000015950755     0.000000005919
       9        0.000036151555    -0.000006515176    -0.000000003664
      10        0.000015019818    -0.000016413711     0.000000020181
      11       -0.000112056715    -0.000050756826     0.000000102406
      12        0.000011966138     0.000012371829     0.000000025738
      13        0.000081649907     0.000000037101    -0.000000110850

  **** Optimization is complete! (in 1 steps) ****
    Final optimized geometry and variables:
    Molecular point group: c1

    Geometry (in Angstrom), charge = 0, multiplicity = 1:

    H           -4.340537331161    -0.784487268557     0.000000000000
    O           -3.958786331161     0.074639731443     0.000000000000
    C           -2.613554331161     0.009899731443     0.000000000000
    C           -1.914415331161     1.205466731443     0.000000000000
    C           -1.925892331161    -1.188435268557     0.000000000000
    H           -2.458132331161     2.129172731443     0.000000000000
    C           -0.537232331161     1.197571731443     0.000000000000
    H           -2.461311331161    -2.120043268557     0.000000000000
    C           -0.542895331161    -1.194582268557     0.000000000000
    H            0.001795668839     2.123431731443     0.000000000000
    C            0.145800668839    -0.003712268557     0.000000000000
    H           -0.013882331161    -2.126166268557     0.000000000000
    BR           2.044180668839    -0.009176268557     0.000000000000

  Mulliken Charges: (a.u.)
   Center  Symbol    Alpha    Beta     Spin     Total
       1     H     0.38657  0.38657  0.00000  0.22686
       2     O     4.17042  4.17042  0.00000 -0.34083
       3     C     2.85781  2.85781  0.00000  0.28437
       4     C     3.09367  3.09367  0.00000 -0.18735
       5     C     3.11923  3.11923  0.00000 -0.23845
       6     H     0.41603  0.41603  0.00000  0.16794
       7     C     3.07663  3.07663  0.00000 -0.15325
       8     H     0.43094  0.43094  0.00000  0.13813
       9     C     3.08425  3.08425  0.00000 -0.16851
      10     H     0.41065  0.41065  0.00000  0.17870
      11     C     2.97618  2.97618  0.00000  0.04763
      12     H     0.41056  0.41056  0.00000  0.17889
      13    BR    17.56706 17.56706  0.00000 -0.13412

   Total alpha = 42.00000, Total beta = 42.00000, Total charge = -0.00000

*** Psi4 exiting successfully. Buy a developer a beer!
