                              Psi4 1.0.54 Driver

  ==> Input File <==

--------------------------------------------------------------------------
set {
	reference rhf
	basis cc-pvtz
}

set_num_threads( 4 )
memory 2 gb

molecule MOL {
0 1

H	 -3.436473	 1.252944	 -1.023892
O	 -3.458596	 0.315260	 -0.960865
C	 -3.176635	 -0.080824	 0.355601
C	 -1.763371	 0.265266	 0.799691
H	 -3.321825	 -1.153438	 0.379502
H	 -3.895468	 0.357385	 1.043382
C	 -1.582025	 0.296488	 2.314439
H	 -1.069912	 -0.450798	 0.361248
H	 -1.505025	 1.233899	 0.378508
C	 -0.151243	 0.612643	 2.742083
H	 -1.883561	 -0.658536	 2.730274
H	 -2.256153	 1.038431	 2.735840
C	 0.022348	 0.647339	 4.259222
H	 0.516936	 -0.125621	 2.309193
H	 0.145791	 1.573539	 2.326987
C	 1.421107	 1.039446	 4.738360
H	 -0.237454	 -0.324764	 4.671980
H	 -0.693178	 1.352080	 4.673932
C	 2.518012	 0.033710	 4.397129
H	 1.390912	 1.167624	 5.816059
H	 1.682124	 2.010619	 4.325912
H	 2.281205	 -0.949165	 4.792040
H	 3.466500	 0.339973	 4.823528
H	 2.659711	 -0.065165	 3.327666

	symmetry c1
}
set optking {
	frozen_dihedral = ("
		7 4 3 2
	")
}

ee,wfn = optimize('scf', return_wfn=True)
oeprop( wfn, 'DIPOLE', 'QUADRUPOLE', 'MULLIKEN_CHARGES')
f=open( 'psi4out.xyz', 'w' )
f.write( "24  " )
f.write( str(ee) + "\n" )
f.write( MOL.save_string_xyz() )
f.close()
--------------------------------------------------------------------------

    Molecular point group: c1
  Charge       = 0
  Multiplicity = 1
  Basis Set: CC-PVTZ
  Basis Set:
  @DF-RHF Final Energy:  -349.37864570411040
    Total Energy =                       -349.3786457041102267
    Molecular point group: c1
  Basis Set: CC-PVTZ
  Basis Set:
  Basis Set: CC-PVTZ
  Basis Set:
  @DF-RHF Final Energy:  -349.37883308213901
    Total Energy =                       -349.3788330821386694
  Basis Set: CC-PVTZ
  Basis Set:
  Basis Set: CC-PVTZ
  Basis Set:
  @DF-RHF Final Energy:  -349.37885221687043
    Total Energy =                       -349.3788522168703139
  Basis Set: CC-PVTZ
  Basis Set:
  Charge       = 0
  Multiplicity = 1
  Basis Set: CC-PVTZ
  Basis Set:

    Orbital Energies (a.u.)
    -----------------------

    Doubly Occupied:

       1A    -20.544808     2A    -11.264899     3A    -11.217330
       4A    -11.214890     5A    -11.214655     6A    -11.213979
       7A    -11.212990     8A    -11.207112     9A     -1.363166
      10A     -1.094093    11A     -1.052428    12A     -0.987454
      13A     -0.915649    14A     -0.852454    15A     -0.805627
      16A     -0.779944    17A     -0.692428    18A     -0.655500
      19A     -0.625350    20A     -0.611633    21A     -0.604038
      22A     -0.587988    23A     -0.558505    24A     -0.540927
      25A     -0.530117    26A     -0.511974    27A     -0.490528
      28A     -0.485073    29A     -0.473179    30A     -0.462209
      31A     -0.456507    32A     -0.450519    33A     -0.423804

  @DF-RHF Final Energy:  -349.37885319858390

   => Energetics <=

    Nuclear Repulsion Energy =            380.4690519253771299
    One-Electron Energy =               -1227.4922946555757335
    Two-Electron Energy =                 497.6443895316146495
    DFT Exchange-Correlation Energy =       0.0000000000000000
    Empirical Dispersion Energy =           0.0000000000000000
    PCM Polarization Energy =               0.0000000000000000
    EFP Energy =                            0.0000000000000000
    Total Energy =                       -349.3788531985839541
    Molecular point group: c1
  Basis Set: CC-PVTZ
  Basis Set:

  -Total Gradient:
     Atom            X                  Y                   Z
    ------   -----------------  -----------------  -----------------
       1       -0.000018992032    -0.000009861402     0.000006100536
       2       -0.001083311640     0.003073916781     0.001117581229
       3        0.001233066177    -0.003035798872    -0.001568906265
       4        0.000705752269    -0.003156458445     0.000383465395
       5       -0.000028350218     0.000007691353     0.000006426703
       6        0.000031921805     0.000012240348     0.000008200746
       7       -0.000788273000     0.003108548672    -0.000012602497
       8       -0.000069625555     0.000031727024     0.000024581941
       9       -0.000012309862     0.000026170288    -0.000000720362
      10        0.000030331504    -0.000005499085     0.000017856096
      11       -0.000015996726    -0.000032671556     0.000055525962
      12       -0.000001642283    -0.000004802314    -0.000031262918
      13        0.000016600147    -0.000036224131    -0.000003814942
      14       -0.000010601991     0.000013148610     0.000007532870
      15        0.000000529582     0.000013155734    -0.000001374883
      16        0.000001346419     0.000006506542    -0.000031295078
      17       -0.000000510834    -0.000010649710     0.000000622940
      18        0.000004087291    -0.000002250027     0.000003361962
      19        0.000007924910    -0.000003769660     0.000008689850
      20       -0.000008880572     0.000006177026    -0.000003080390
      21        0.000002887132    -0.000000300359    -0.000007995073
      22       -0.000000047515    -0.000006357966    -0.000001991423
      23       -0.000002714215    -0.000002099264     0.000005539745
      24        0.000006809205     0.000007460414     0.000017557856

  **** Optimization is complete! (in 4 steps) ****
    Final optimized geometry and variables:
    Molecular point group: c1

    Geometry (in Angstrom), charge = 0, multiplicity = 1:

    H           -2.586614940629     0.872701580636    -3.299207737973
    O           -2.655260201819    -0.061784789206    -3.229016402392
    C           -2.362900161750    -0.460677814398    -1.917232199183
    C           -0.942478471056    -0.110333437389    -1.486956804006
    H           -2.519465766575    -1.530531550519    -1.883484080015
    H           -3.073938827374    -0.011485597369    -1.226777137005
    C           -0.766684481018    -0.086575261353     0.028784703566
    H           -0.241024890786    -0.800005278440    -1.944560213746
    H           -0.700499648082     0.875351133221    -1.879647386212
    C            0.664262636584     0.214634079214     0.466649749978
    H           -1.072886540284    -1.043335049103     0.447062773075
    H           -1.437225464264     0.656773152055     0.451856595000
    C            0.828326019894     0.251855237159     1.984747195329
    H            1.326939057729    -0.530751751115     0.039019914851
    H            0.971676544313     1.171536076325     0.050376754941
    C            2.227997940722     0.631982794210     2.470973931137
    H            0.557337026148    -0.716695818576     2.398986602851
    H            0.117218372548     0.964717621299     2.393388985096
    C            3.316862018864    -0.386148031437     2.140995581208
    H            2.192000090774     0.765100855869     3.547847668235
    H            2.501077032960     1.598771535596     2.056155255042
    H            3.066927998784    -1.365398394191     2.536773563324
    H            4.264956737663    -0.088413246480     2.574058133687
    H            3.466092338512    -0.489516649391     1.073050246658

  Mulliken Charges: (a.u.)
   Center  Symbol    Alpha    Beta     Spin     Total
       1     H     0.39502  0.39502  0.00000  0.20996
       2     O     4.20204  4.20204  0.00000 -0.40409
       3     C     2.96924  2.96924  0.00000  0.06152
       4     C     3.09271  3.09271  0.00000 -0.18543
       5     H     0.45224  0.45224  0.00000  0.09552
       6     H     0.47296  0.47296  0.00000  0.05409
       7     C     3.09988  3.09988  0.00000 -0.19976
       8     H     0.45002  0.45002  0.00000  0.09996
       9     H     0.46183  0.46183  0.00000  0.07635
      10     C     3.09204  3.09204  0.00000 -0.18408
      11     H     0.45303  0.45303  0.00000  0.09394
      12     H     0.45417  0.45417  0.00000  0.09167
      13     C     3.09460  3.09460  0.00000 -0.18920
      14     H     0.45114  0.45114  0.00000  0.09772
      15     H     0.45436  0.45436  0.00000  0.09129
      16     C     3.09047  3.09047  0.00000 -0.18094
      17     H     0.45385  0.45385  0.00000  0.09230
      18     H     0.44997  0.44997  0.00000  0.10007
      19     C     3.15247  3.15247  0.00000 -0.30493
      20     H     0.44836  0.44836  0.00000  0.10328
      21     H     0.45489  0.45489  0.00000  0.09022
      22     H     0.45481  0.45481  0.00000  0.09037
      23     H     0.44630  0.44630  0.00000  0.10740
      24     H     0.45362  0.45362  0.00000  0.09276

   Total alpha = 33.00000, Total beta = 33.00000, Total charge =  0.00000

*** Psi4 exiting successfully. Buy a developer a beer!
