  ==> Input File <==

--------------------------------------------------------------------------
set {
	reference rhf
	basis 6-31G*
}

set_num_threads( 4 )
memory 2 gb

molecule MOL {
0 1

H	 -2.273092	 1.173159	 0.000295
O	 -1.438904	 1.618192	 0.000114
C	 -0.409536	 0.736003	 0.000030
C	 -0.743618	 -0.609207	 0.000216
C	 0.922404	 1.144509	 -0.000254
H	 -1.783003	 -0.880625	 0.000438
C	 0.252588	 -1.566852	 0.000086
C	 1.903170	 0.160087	 -0.000392
C	 1.284845	 2.612719	 -0.000310
H	 -0.013241	 -2.608883	 0.000223
C	 1.584967	 -1.186402	 -0.000223
H	 2.936998	 0.459326	 -0.000596
H	 0.901096	 3.126441	 0.878763
H	 2.359755	 2.741350	 -0.000645
H	 0.900470	 3.126537	 -0.879085
H	 2.365021	 -1.925805	 -0.000320

	symmetry c1
}
set optking {
	frozen_dihedral = ("
		4 3 2 1
	")
}

ee = optimize('scf')
oeprop('DIPOLE', 'QUADRUPOLE', 'MULLIKEN_CHARGES')
f=open( 'psi4out.xyz', 'w' )
f.write( "16  " )
f.write( str(ee) + "\n" )
f.write( MOL.save_string_xyz() )
f.close()
--------------------------------------------------------------------------

    Molecular point group: c1
  Charge       = 0
  Multiplicity = 1
  Basis Set: 6-31G*
  Basis Set:
  @DF-RHF Final Energy:  -344.59225705275043
    Total Energy =                       -344.5922570527504831
    Molecular point group: c1
  Basis Set: 6-31G*
  Basis Set:
  Basis Set: 6-31G*
  Basis Set:
  @DF-RHF Final Energy:  -344.59477965540680
    Total Energy =                       -344.5947796554066827
  Basis Set: 6-31G*
  Basis Set:
  Basis Set: 6-31G*
  Basis Set:
  @DF-RHF Final Energy:  -344.59504801254349
    Total Energy =                       -344.5950480125434296
  Basis Set: 6-31G*
  Basis Set:
  Basis Set: 6-31G*
  Basis Set:
  @DF-RHF Final Energy:  -344.59507274948044
    Total Energy =                       -344.5950727494801527
  Basis Set: 6-31G*
  Basis Set:
  Charge       = 0
  Multiplicity = 1
  Basis Set: 6-31G*
  Basis Set:

    Orbital Energies (a.u.)
    -----------------------

    Doubly Occupied:

       1A    -20.589816     2A    -11.292878     3A    -11.231492
       4A    -11.229650     5A    -11.227969     6A    -11.225998
       7A    -11.219136     8A    -11.212626     9A     -1.407812
      10A     -1.147951    11A     -1.043534    12A     -1.002607
      13A     -0.928546    14A     -0.844603    15A     -0.798727
      16A     -0.730889    17A     -0.671241    18A     -0.649802
      19A     -0.601376    20A     -0.597617    21A     -0.577448
      22A     -0.556445    23A     -0.548813    24A     -0.538989
      25A     -0.499411    26A     -0.480367    27A     -0.472675
      28A     -0.329373    29A     -0.303288

  @DF-RHF Final Energy:  -344.59507774256844

   => Energetics <=

    Nuclear Repulsion Energy =            350.2376378264237360
    One-Electron Energy =               -1161.7432725008093257
    Two-Electron Energy =                 466.9105569318173252
    DFT Exchange-Correlation Energy =       0.0000000000000000
    Empirical Dispersion Energy =           0.0000000000000000
    PCM Polarization Energy =               0.0000000000000000
    EFP Energy =                            0.0000000000000000
    Total Energy =                       -344.5950777425683214
    Molecular point group: c1
  Basis Set: 6-31G*
  Basis Set:

  -Total Gradient:
     Atom            X                  Y                   Z
    ------   -----------------  -----------------  -----------------
       1        0.000008841364     0.000040183348    -0.000000006064
       2        0.000051239123    -0.000135779789     0.000000080339
       3       -0.000063392092     0.000181243444    -0.000000052739
       4       -0.000017880548    -0.000057893713    -0.000000344341
       5       -0.000004284725     0.000031083055     0.000000239047
       6        0.000023479804    -0.000002226980     0.000000111219
       7       -0.000061206815    -0.000017756687    -0.000000279377
       8       -0.000005246345    -0.000092564131     0.000000158819
       9        0.000042577939     0.000011800424    -0.000000207559
      10        0.000033816421    -0.000025954667     0.000000103440
      11        0.000064231666     0.000117773000     0.000000469485
      12        0.000000372216     0.000022959576    -0.000000212967
      13       -0.000012763492    -0.000011104608     0.000003586948
      14       -0.000009390036    -0.000013908201     0.000000016412
      15       -0.000012819036    -0.000011048170    -0.000003530942
      16       -0.000037575440    -0.000036805902    -0.000000131720

  **** Optimization is complete! (in 5 steps) ****
    Final optimized geometry and variables:
    Molecular point group: c1

    Geometry (in Angstrom), charge = 0, multiplicity = 1:

    H           -2.603009197849     0.876179490923     0.000457637371
    O           -1.735997942492     1.256553422591     0.000276681993
    C           -0.789894248262     0.285287680796     0.000138086061
    C           -1.118974209757    -1.057797028794     0.000260416773
    C            0.542619548876     0.701203018693    -0.000135753933
    H           -2.154457229596    -1.355730878600     0.000473133341
    C           -0.116577478053    -2.017473459156     0.000114141798
    C            1.521678573797    -0.277193353628    -0.000277895928
    C            0.875329261383     2.172772140224    -0.000269302271
    H           -0.380489902096    -3.059944733516     0.000213574222
    C            1.208119560699    -1.630920066847    -0.000154081942
    H            2.554661067410     0.024714940659    -0.000493387020
    H            0.462492568267     2.668095980897     0.872272490974
    H            1.948664416334     2.322422141296    -0.000497619682
    H            0.462130911129     2.668019939530    -0.872682789002
    H            1.991679970781    -2.366674492595    -0.000271734690

  Mulliken Charges: (a.u.)
   Center  Symbol    Alpha    Beta     Spin     Total
       1     H     0.27147  0.27147  0.00000  0.45705
       2     O     4.38032  4.38032  0.00000 -0.76063
       3     C     2.80577  2.80577  0.00000  0.38846
       4     C     3.13964  3.13964  0.00000 -0.27928
       5     C     3.00856  3.00856  0.00000 -0.01712
       6     H     0.40553  0.40553  0.00000  0.18895
       7     C     3.09539  3.09539  0.00000 -0.19079
       8     C     3.10720  3.10720  0.00000 -0.21440
       9     C     3.24196  3.24196  0.00000 -0.48393
      10     H     0.39934  0.39934  0.00000  0.20131
      11     C     3.10824  3.10824  0.00000 -0.21647
      12     H     0.40099  0.40099  0.00000  0.19802
      13     H     0.40824  0.40824  0.00000  0.18352
      14     H     0.41786  0.41786  0.00000  0.16428
      15     H     0.40824  0.40824  0.00000  0.18352
      16     H     0.40124  0.40124  0.00000  0.19752

   Total alpha = 29.00000, Total beta = 29.00000, Total charge =  0.00000
