                              Psi4 1.0.54 Driver

  ==> Input File <==

--------------------------------------------------------------------------
set {
	reference rhf
	basis cc-pvtz
}

set_num_threads( 4 )
memory 2 gb

molecule MOL {
0 1

H	 0.191475	 -2.447021	 0.571808
C	 -0.660349	 -1.778644	 0.710072
N	 -0.537714	 -0.645117	 0.000000
O	 -1.572281	 -2.063950	 1.419790
C	 -1.522613	 0.412524	 0.000000
H	 0.277927	 -0.539339	 -0.550931
H	 -2.150256	 0.356137	 -0.880771
H	 -1.005621	 1.357208	 0.000000
H	 -2.150256	 0.356137	 0.880771

	symmetry c1
}
set optking {
	frozen_dihedral = ("
		6 3 5 7
	")
}

ee,wfn = optimize('scf', return_wfn=True)
oeprop( wfn, 'DIPOLE', 'QUADRUPOLE', 'MULLIKEN_CHARGES')
f=open( 'psi4out.xyz', 'w' )
f.write( "9  " )
f.write( str(ee) + "\n" )
f.write( MOL.save_string_xyz() )
f.close()
--------------------------------------------------------------------------

    Molecular point group: c1
  Charge       = 0
  Multiplicity = 1
  Basis Set: CC-PVTZ
  Basis Set:
  @DF-RHF Final Energy:  -208.04327879697550
    Total Energy =                       -208.0432787969754997
    Molecular point group: c1
  Basis Set: CC-PVTZ
  Basis Set:
  Basis Set: CC-PVTZ
  Basis Set:
  @DF-RHF Final Energy:  -208.04355979480681
    Total Energy =                       -208.0435597948067539
  Basis Set: CC-PVTZ
  Basis Set:
  Basis Set: CC-PVTZ
  Basis Set:
  @DF-RHF Final Energy:  -208.04356915813503
    Total Energy =                       -208.0435691581350852
  Basis Set: CC-PVTZ
  Basis Set:
  Basis Set: CC-PVTZ
  Basis Set:
  @DF-RHF Final Energy:  -208.04361056018956
    Total Energy =                       -208.0436105601894496
  Basis Set: CC-PVTZ
  Basis Set:
  @DF-RHF Final Energy:  -208.04362244116925
    Total Energy =                       -208.0436224411691910
  Basis Set: CC-PVTZ
  Basis Set:
  @DF-RHF Final Energy:  -208.04362918587910
    Total Energy =                       -208.0436291858792401
  Basis Set: CC-PVTZ
  Basis Set:
  Basis Set: CC-PVTZ
  Basis Set:
  @DF-RHF Final Energy:  -208.04363381942005
    Total Energy =                       -208.0436338194200516
  Basis Set: CC-PVTZ
  Basis Set:
  Basis Set: CC-PVTZ
  Basis Set:
  @DF-RHF Final Energy:  -208.04363704177834
    Total Energy =                       -208.0436370417782541
  Basis Set: CC-PVTZ
  Basis Set:
  Charge       = 0
  Multiplicity = 1
  Basis Set: CC-PVTZ
  Basis Set:

    Orbital Energies (a.u.)
    -----------------------

    Doubly Occupied:

       1A    -20.516465     2A    -15.584848     3A    -11.337128
       4A    -11.259612     5A     -1.393877     6A     -1.239751
       7A     -0.970166     8A     -0.808452     9A     -0.748807
      10A     -0.646295    11A     -0.629587    12A     -0.596595
      13A     -0.556663    14A     -0.540524    15A     -0.428472
      16A     -0.396273

  @DF-RHF Final Energy:  -208.04363764056043

   => Energetics <=

    Nuclear Repulsion Energy =            122.7716784991571046
    One-Electron Energy =                -526.3236056479003082
    Two-Electron Energy =                 195.5082895081826564
    DFT Exchange-Correlation Energy =       0.0000000000000000
    Empirical Dispersion Energy =           0.0000000000000000
    PCM Polarization Energy =               0.0000000000000000
    EFP Energy =                            0.0000000000000000
    Total Energy =                       -208.0436376405605188
    Molecular point group: c1
  Basis Set: CC-PVTZ
  Basis Set:

  -Total Gradient:
     Atom            X                  Y                   Z
    ------   -----------------  -----------------  -----------------
       1       -0.000002843179    -0.000001667026    -0.000003292985
       2        0.000032484368     0.000035622767     0.000047330248
       3        0.000011788023     0.000011447197    -0.000025937164
       4       -0.000002163813    -0.000000575714     0.000005564433
       5       -0.000054106283    -0.000052867067     0.000062425812
       6       -0.000030525936    -0.000032175906    -0.000044066529
       7        0.000057080776     0.000053242115    -0.000051118546
       8       -0.000000151493     0.000000176890     0.000018006079
       9       -0.000011562463    -0.000013203258    -0.000008911345

  **** Optimization is complete! (in 9 steps) ****
    Final optimized geometry and variables:
    Molecular point group: c1

    Geometry (in Angstrom), charge = 0, multiplicity = 1:

    H            1.262454478575    -1.452813230768     0.053811292014
    C            0.413538507660    -0.777739254824     0.177975772643
    N            0.574899313131     0.377660204096    -0.487864389233
    O           -0.527365312901    -1.065961429885     0.847334983534
    C           -0.429796610841     1.416311979510    -0.521569431858
    H            1.372844917179     0.463709578977    -1.067328513687
    H           -1.090829941760     1.311506649114    -1.374301809104
    H            0.050947764949     2.383847149334    -0.568756019765
    H           -1.020016979997     1.360612101723     0.378423510534

  Mulliken Charges: (a.u.)
   Center  Symbol    Alpha    Beta     Spin     Total
       1     H     0.46338  0.46338  0.00000  0.07325
       2     C     2.88086  2.88086  0.00000  0.23827
       3     N     3.60707  3.60707  0.00000 -0.21414
       4     O     4.21439  4.21439  0.00000 -0.42878
       5     C     3.07923  3.07923  0.00000 -0.15847
       6     H     0.41009  0.41009  0.00000  0.17982
       7     H     0.45538  0.45538  0.00000  0.08925
       8     H     0.45389  0.45389  0.00000  0.09223
       9     H     0.43571  0.43571  0.00000  0.12858

   Total alpha = 16.00000, Total beta = 16.00000, Total charge =  0.00000

*** Psi4 exiting successfully. Buy a developer a beer!
