  ==> Input File <==

--------------------------------------------------------------------------
set {
	reference rhf
	basis cc-pvtz
}

set_num_threads( 4 )
memory 2 gb

molecule MOL {
0 1

H	 2.462485	 -2.216993	 0.000000
O	 2.777472	 -1.330706	 0.000000
C	 1.763288	 -0.447523	 0.000000
C	 1.420919	 0.134074	 -1.212291
C	 1.072145	 -0.113371	 1.144998
H	 1.971304	 -0.139891	 -2.090457
C	 0.391335	 1.044900	 -1.273161
H	 1.314782	 -0.546353	 2.093129
C	 0.044867	 0.804151	 1.046901
H	 0.133790	 1.489257	 -2.214417
C	 -0.317661	 1.396590	 -0.136683
N	 -0.686376	 1.155060	 2.269582
H	 -1.119022	 2.101937	 -0.168742
O	 -0.352736	 0.628545	 3.278809
O	 -1.565835	 1.942782	 2.176083

	symmetry c1
}
set optking {
	frozen_dihedral = ("
		4 3 2 1
	")
}

ee = optimize('scf')
oeprop('DIPOLE', 'QUADRUPOLE', 'MULLIKEN_CHARGES')
f=open( 'psi4out.xyz', 'w' )
f.write( "15  " )
f.write( str(ee) + "\n" )
f.write( MOL.save_string_xyz() )
f.close()
--------------------------------------------------------------------------

    Molecular point group: c1
  Charge       = 0
  Multiplicity = 1
  Basis Set: CC-PVTZ
  Basis Set:
  @DF-RHF Final Energy:  -509.21398285580443
    Total Energy =                       -509.2139828558049430
    Molecular point group: c1
  Basis Set: CC-PVTZ
  Basis Set:
  Basis Set: CC-PVTZ
  Basis Set:
  @DF-RHF Final Energy:  -509.21456114990593
    Total Energy =                       -509.2145611499056486
  Basis Set: CC-PVTZ
  Basis Set:
  Basis Set: CC-PVTZ
  Basis Set:
  @DF-RHF Final Energy:  -509.19938329205092
    Total Energy =                       -509.1993832920504701
  Basis Set: CC-PVTZ
  Basis Set:
  Basis Set: CC-PVTZ
  Basis Set:
  @DF-RHF Final Energy:  -509.21429142885006
    Total Energy =                       -509.2142914288504016
  Basis Set: CC-PVTZ
  Basis Set:
  Basis Set: CC-PVTZ
  Basis Set:
  @DF-RHF Final Energy:  -509.21478265372849
    Total Energy =                       -509.2147826537282072
  Basis Set: CC-PVTZ
  Basis Set:
  Basis Set: CC-PVTZ
  Basis Set:
  @DF-RHF Final Energy:  -509.21479261901146
    Total Energy =                       -509.2147926190120870
  Basis Set: CC-PVTZ
  Basis Set:
  Charge       = 0
  Multiplicity = 1
  Basis Set: CC-PVTZ
  Basis Set:

    Orbital Energies (a.u.)
    -----------------------

    Doubly Occupied:

       1A    -20.594471     2A    -20.593895     3A    -20.593838
       4A    -15.849976     5A    -11.319023     6A    -11.307360
       7A    -11.264755     8A    -11.264105     9A    -11.262742
      10A    -11.260856    11A     -1.643591    12A     -1.425958
      13A     -1.423396    14A     -1.203114    15A     -1.095324
      16A     -1.048533    17A     -0.965132    18A     -0.871257
      19A     -0.835665    20A     -0.796886    21A     -0.743559
      22A     -0.742073    23A     -0.725991    24A     -0.711511
      25A     -0.684357    26A     -0.644893    27A     -0.628408
      28A     -0.570194    29A     -0.557231    30A     -0.534165
      31A     -0.515950    32A     -0.494184    33A     -0.488016
      34A     -0.459519    35A     -0.380154    36A     -0.361322

  @DF-RHF Final Energy:  -509.21479543004733

   => Energetics <=

    Nuclear Repulsion Energy =            504.0307157827588185
    One-Electron Energy =               -1694.7682150781586188
    Two-Electron Energy =                 681.5227038653526961
    DFT Exchange-Correlation Energy =       0.0000000000000000
    Empirical Dispersion Energy =           0.0000000000000000
    PCM Polarization Energy =               0.0000000000000000
    EFP Energy =                            0.0000000000000000
    Total Energy =                       -509.2147954300471611
    Molecular point group: c1
  Basis Set: CC-PVTZ
  Basis Set:

  -Total Gradient:
     Atom            X                  Y                   Z
    ------   -----------------  -----------------  -----------------
       1        0.000031200536    -0.000010249491    -0.000878800494
       2       -0.000183955277    -0.000257902766     0.001014185831
       3        0.000516783519     0.000718068655     0.000264486535
       4       -0.000555756648    -0.000311257520    -0.000266691129
       5        0.000209242154    -0.000172025217    -0.000139062624
       6        0.000012021808    -0.000001760707     0.000017713025
       7        0.000161633685    -0.000159302259    -0.000142638260
       8       -0.000004205432     0.000012390128    -0.000002511262
       9       -0.000174927914     0.000150694777    -0.000153199046
      10       -0.000014529656     0.000015628181     0.000004579768
      11        0.000011683494    -0.000004061527     0.000240720705
      12        0.000102314059     0.000040625260    -0.000056472430
      13        0.000009185820    -0.000011141490    -0.000026488866
      14       -0.000132906603     0.000083087786    -0.000021384719
      15        0.000012216462    -0.000092793812     0.000145562972

  **** Optimization is complete! (in 7 steps) ****
    Final optimized geometry and variables:
    Molecular point group: c1

    Geometry (in Angstrom), charge = 0, multiplicity = 1:

    H            2.043407156750    -2.726890639123    -0.766706244644
    O            2.350709062023    -1.836818632906    -0.764307109199
    C            1.308624244532    -0.960587027389    -0.817489183339
    C            0.968412405657    -0.374526192521    -2.022885061399
    C            0.627109002328    -0.625960706447     0.333612735100
    H            1.519824606810    -0.641686302618    -2.902933999184
    C           -0.058044775666     0.547327607233    -2.081246110458
    H            0.892261204133    -1.062192960049     1.272615588076
    C           -0.396592930685     0.293319295049     0.244508968697
    H           -0.315724196264     0.999869489921    -3.018399593628
    C           -0.757273100730     0.892098422556    -0.941379719413
    N           -1.125399232430     0.646871019990     1.466555314434
    H           -1.554567943606     1.602851692222    -0.966290548240
    O           -0.807773664521     0.104780491341     2.471746543358
    O           -1.990152509061     1.452206307936     1.375659847276

  Mulliken Charges: (a.u.)
   Center  Symbol    Alpha    Beta     Spin     Total
       1     H     0.38556  0.38556  0.00000  0.22888
       2     O     4.18607  4.18607  0.00000 -0.37213
       3     C     2.86552  2.86552  0.00000  0.26895
       4     C     3.09641  3.09641  0.00000 -0.19282
       5     C     3.11420  3.11420  0.00000 -0.22840
       6     H     0.41072  0.41072  0.00000  0.17857
       7     C     3.06641  3.06641  0.00000 -0.13282
       8     H     0.39250  0.39250  0.00000  0.21500
       9     C     2.98054  2.98054  0.00000  0.03892
      10     H     0.41512  0.41512  0.00000  0.16977
      11     C     3.08568  3.08568  0.00000 -0.17136
      12     N     3.25023  3.25023  0.00000  0.49954
      13     H     0.39867  0.39867  0.00000  0.20265
      14     O     4.17615  4.17615  0.00000 -0.35231
      15     O     4.17622  4.17622  0.00000 -0.35245

   Total alpha = 36.00000, Total beta = 36.00000, Total charge =  0.00000
