  ==> Input File <==

--------------------------------------------------------------------------
set {
	reference rhf
	basis 6-31G*
}

set_num_threads( 4 )
memory 2 gb

molecule MOL {
0 1

H	 0.483024	 3.012687	 1.407801
C	 0.214521	 2.153090	 2.034396
C	 -1.104744	 1.506138	 1.697343
O	 0.942612	 1.796643	 2.903061
C	 -1.220012	 1.144545	 0.209990
H	 -1.230237	 0.635214	 2.330154
H	 -1.886082	 2.220566	 1.953779
C	 -0.252658	 0.041456	 -0.226725
H	 -2.239995	 0.829577	 0.010704
H	 -1.055698	 2.036631	 -0.392455
C	 1.180775	 0.282413	 0.250794
H	 -0.266029	 -0.034465	 -1.312038
H	 -0.597733	 -0.921000	 0.146291
C	 2.148627	 -0.814315	 -0.201312
H	 1.516199	 1.249228	 -0.115937
H	 1.192670	 0.346017	 1.338083
C	 3.580890	 -0.659131	 0.322722
H	 2.166869	 -0.852443	 -1.289387
H	 1.762857	 -1.776509	 0.128956
C	 4.324889	 0.564933	 -0.213704
H	 4.142010	 -1.551473	 0.056605
H	 3.564836	 -0.624694	 1.410140
H	 4.342616	 0.565491	 -1.300421
H	 3.866655	 1.493402	 0.110242
H	 5.353900	 0.572371	 0.132816

	symmetry c1
}
set optking {
	frozen_dihedral = ("
		3 5 8 12
	")
}

ee = optimize('scf')
oeprop('DIPOLE', 'QUADRUPOLE', 'MULLIKEN_CHARGES')
f=open( 'psi4out.xyz', 'w' )
f.write( "25  " )
f.write( str(ee) + "\n" )
f.write( MOL.save_string_xyz() )
f.close()
--------------------------------------------------------------------------

    Molecular point group: c1
  Charge       = 0
  Multiplicity = 1
  Basis Set: 6-31G*
  Basis Set:
  @DF-RHF Final Energy:  -387.10824578516826
    Total Energy =                       -387.1082457851684921
    Molecular point group: c1
  Basis Set: 6-31G*
  Basis Set:
  Basis Set: 6-31G*
  Basis Set:
  @DF-RHF Final Energy:  -387.11473686625845
    Total Energy =                       -387.1147368662584540
  Basis Set: 6-31G*
  Basis Set:
  Basis Set: 6-31G*
  Basis Set:
  @DF-RHF Final Energy:  -387.11578966531459
    Total Energy =                       -387.1157896653148782
  Basis Set: 6-31G*
  Basis Set:
  Basis Set: 6-31G*
  Basis Set:
  @DF-RHF Final Energy:  -387.11611857583136
    Total Energy =                       -387.1161185758313650
  Basis Set: 6-31G*
  Basis Set:
  @DF-RHF Final Energy:  -387.11803263530749
    Total Energy =                       -387.1180326353071450
  @DF-RHF Final Energy:  -387.11821129109666
    Total Energy =                       -387.1182112910955766
  @DF-RHF Final Energy:  -387.11828899337445
    Total Energy =                       -387.1182889933745628
  @DF-RHF Final Energy:  -387.11833228724345
    Total Energy =                       -387.1183322872435610
  Basis Set: 6-31G*
  Basis Set:
  @DF-RHF Final Energy:  -387.11835671650925
    Total Energy =                       -387.1183567165088562
  Basis Set: 6-31G*
  Basis Set:
  Basis Set: 6-31G*
  Basis Set:
  @DF-RHF Final Energy:  -387.11836425997996
    Total Energy =                       -387.1183642599797849
  Basis Set: 6-31G*
  Basis Set:
  Basis Set: 6-31G*
  Basis Set:
  @DF-RHF Final Energy:  -387.11836640443403
    Total Energy =                       -387.1183664044342549
  Basis Set: 6-31G*
  Basis Set:
  Charge       = 0
  Multiplicity = 1
  Basis Set: 6-31G*
  Basis Set:

    Orbital Energies (a.u.)
    -----------------------

    Doubly Occupied:

       1A    -20.560966     2A    -11.327031     3A    -11.235689
       4A    -11.235066     5A    -11.223943     6A    -11.217180
       7A    -11.215767     8A    -11.214542     9A    -11.206967
      10A     -1.401829    11A     -1.102456    12A     -1.066261
      13A     -1.009212    14A     -0.944567    15A     -0.880326
      16A     -0.812118    17A     -0.788349    18A     -0.778689
      19A     -0.662478    20A     -0.656025    21A     -0.636846
      22A     -0.625399    23A     -0.608230    24A     -0.587850
      25A     -0.561207    26A     -0.557719    27A     -0.538179
      28A     -0.524986    29A     -0.507562    30A     -0.503098
      31A     -0.481850    32A     -0.471517    33A     -0.460536
      34A     -0.453942    35A     -0.442476    36A     -0.409402

  @DF-RHF Final Energy:  -387.11836703921284

   => Energetics <=

    Nuclear Repulsion Energy =            455.8316176328342522
    One-Electron Energy =               -1428.0794509025081425
    Two-Electron Energy =                 585.1294662304608210
    DFT Exchange-Correlation Energy =       0.0000000000000000
    Empirical Dispersion Energy =           0.0000000000000000
    PCM Polarization Energy =               0.0000000000000000
    EFP Energy =                            0.0000000000000000
    Total Energy =                       -387.1183670392131262
    Molecular point group: c1
  Basis Set: 6-31G*
  Basis Set:

  -Total Gradient:
     Atom            X                  Y                   Z
    ------   -----------------  -----------------  -----------------
       1       -0.000003571266     0.000005034935    -0.000003319045
       2       -0.000008740631     0.000030705456     0.000033677153
       3        0.002002645632     0.001983096624    -0.000595158919
       4        0.000010317464    -0.000013635594    -0.000005245229
       5       -0.002286173558    -0.002320489918     0.000799053184
       6        0.000000570701     0.000007938065     0.000007228879
       7       -0.000002976874     0.000000797076     0.000013284160
       8       -0.002591221858    -0.002267131135    -0.000116690205
       9        0.000002499662     0.000009378737    -0.000010077380
      10        0.000005053257    -0.000009623652    -0.000007073381
      11        0.000015142686    -0.000010547483     0.000060586719
      12        0.002855211334     0.002565235610    -0.000108381395
      13        0.000001761650     0.000007717599    -0.000006444045
      14        0.000020576681    -0.000015264139     0.000020228815
      15        0.000015018200     0.000020874749    -0.000004587186
      16       -0.000002591928     0.000002522952    -0.000054527168
      17       -0.000007744812    -0.000000429330    -0.000031235355
      18        0.000000631920     0.000005552640     0.000001812336
      19        0.000007599182     0.000002486048     0.000004674749
      20       -0.000010591817     0.000002686238     0.000010655100
      21       -0.000002666959    -0.000009984103    -0.000007007678
      22       -0.000009416184     0.000003834161    -0.000006980200
      23       -0.000001920600    -0.000005362191     0.000002691248
      24       -0.000010669854     0.000008662225    -0.000000292698
      25        0.000001257978    -0.000004055565     0.000003127539

  **** Optimization is complete! (in 12 steps) ****
    Final optimized geometry and variables:
    Molecular point group: c1

    Geometry (in Angstrom), charge = 0, multiplicity = 1:

    H           -0.968960428236     2.569010289590     0.623989596999
    C           -1.122647095885     1.736816097669     1.321781963424
    C           -2.227454963643     0.781002705567     0.944826981979
    O           -0.468043495213     1.656656297959     2.310128994723
    C           -2.254298228205     0.382484498164    -0.539611251936
    H           -2.175817221053    -0.080755587040     1.600891883281
    H           -3.154713517795     1.304694536221     1.177715072059
    C           -1.274238076153    -0.724156930255    -0.957564492087
    H           -3.259810298278     0.062722036889    -0.793241001130
    H           -2.066834294163     1.271740620785    -1.140177820344
    C            0.177489950933    -0.528600717772    -0.506771823021
    H           -1.276652000244    -0.772582154904    -2.044068540270
    H           -1.635855198615    -1.683006500256    -0.593664614126
    C            1.107481627661    -1.603534162844    -1.077489337219
    H            0.519442239351     0.455736874357    -0.819829826196
    H            0.241877386050    -0.547666044856     0.577427999823
    C            2.553803272906    -1.528995951903    -0.575579941755
    H            1.101438622373    -1.545427554299    -2.164880312168
    H            0.704311152766    -2.581987752471    -0.823920798533
    C            3.310230525991    -0.269799991798    -1.002409007856
    H            3.089672027375    -2.400359956889    -0.944074069118
    H            2.561544006649    -1.603934361936     0.509551405106
    H            3.303196705898    -0.157298176120    -2.083518596442
    H            2.879482252724     0.627887243071    -0.571765938874
    H            4.346654772317    -0.317193305885    -0.682997005007

  Mulliken Charges: (a.u.)
   Center  Symbol    Alpha    Beta     Spin     Total
       1     H     0.43159  0.43159  0.00000  0.13681
       2     C     2.82808  2.82808  0.00000  0.34383
       3     C     3.21054  3.21054  0.00000 -0.42109
       4     O     4.24167  4.24167  0.00000 -0.48333
       5     C     3.16672  3.16672  0.00000 -0.33344
       6     H     0.39901  0.39901  0.00000  0.20197
       7     H     0.40451  0.40451  0.00000  0.19098
       8     C     3.14972  3.14972  0.00000 -0.29945
       9     H     0.41200  0.41200  0.00000  0.17601
      10     H     0.42024  0.42024  0.00000  0.15952
      11     C     3.16760  3.16760  0.00000 -0.33520
      12     H     0.41950  0.41950  0.00000  0.16099
      13     H     0.41987  0.41987  0.00000  0.16027
      14     C     3.15180  3.15180  0.00000 -0.30360
      15     H     0.42313  0.42313  0.00000  0.15374
      16     H     0.41149  0.41149  0.00000  0.17702
      17     C     3.15271  3.15271  0.00000 -0.30542
      18     H     0.42459  0.42459  0.00000  0.15082
      19     H     0.42194  0.42194  0.00000  0.15611
      20     C     3.24179  3.24179  0.00000 -0.48357
      21     H     0.42121  0.42121  0.00000  0.15758
      22     H     0.42012  0.42012  0.00000  0.15975
      23     H     0.42361  0.42361  0.00000  0.15279
      24     H     0.41814  0.41814  0.00000  0.16372
      25     H     0.41840  0.41840  0.00000  0.16320

   Total alpha = 36.00000, Total beta = 36.00000, Total charge = -0.00000
