  ==> Input File <==

--------------------------------------------------------------------------
set {
	reference rhf
	basis 6-31G*
}

set_num_threads( 4 )
memory 2 gb

molecule MOL {
0 1

H	 -3.269016	 -0.876744	 0.468090
C	 -2.809304	 0.000122	 0.025886
N	 -1.391456	 0.000019	 0.300661
H	 -3.037557	 -0.000063	 -1.044252
H	 -3.269223	 0.876956	 0.468000
C	 -0.611429	 0.458456	 -0.832115
C	 -0.920062	 -1.291487	 0.760670
H	 -0.734103	 -0.199921	 -1.697563
H	 -0.958435	 1.446087	 -1.118005
C	 0.863211	 0.530104	 -0.467599
H	 -1.492187	 -1.580111	 1.636413
H	 -1.063165	 -2.065706	 0.000659
C	 0.554578	 -1.219838	 1.125186
H	 1.435336	 0.818728	 -1.343342
H	 1.006313	 1.304322	 0.292412
N	 1.334604	 -0.761403	 -0.007591
H	 0.901584	 -2.207471	 1.411076
H	 0.677251	 -0.561463	 1.990633
C	 2.752452	 -0.761506	 0.267184
H	 3.299088	 -0.473116	 -0.623767
H	 3.072482	 -1.759099	 0.546857
H	 3.031883	 -0.076619	 1.073499

	symmetry c1
}
set optking {
	frozen_dihedral = ("
		6 3 2 4
	")
}

ee = optimize('scf')
oeprop('DIPOLE', 'QUADRUPOLE', 'MULLIKEN_CHARGES')
f=open( 'psi4out.xyz', 'w' )
f.write( "22  " )
f.write( str(ee) + "\n" )
f.write( MOL.save_string_xyz() )
f.close()
--------------------------------------------------------------------------

    Molecular point group: c1
  Charge       = 0
  Multiplicity = 1
  Basis Set: 6-31G*
  Basis Set:
  @DF-RHF Final Energy:  -344.22495868819641
    Total Energy =                       -344.2249586881964660
    Molecular point group: c1
  Basis Set: 6-31G*
  Basis Set:
  Basis Set: 6-31G*
  Basis Set:
  @DF-RHF Final Energy:  -344.22526211856410
    Total Energy =                       -344.2252621185638191
  Basis Set: 6-31G*
  Basis Set:
  Basis Set: 6-31G*
  Basis Set:
  @DF-RHF Final Energy:  -344.22534749332533
    Total Energy =                       -344.2253474933251027
  Basis Set: 6-31G*
  Basis Set:
  Charge       = 0
  Multiplicity = 1
  Basis Set: 6-31G*
  Basis Set:

    Orbital Energies (a.u.)
    -----------------------

    Doubly Occupied:

       1A    -15.541298     2A    -15.540022     3A    -11.238422
       4A    -11.238394     5A    -11.237575     6A    -11.237523
       7A    -11.235639     8A    -11.235506     9A     -1.253211
      10A     -1.201524    11A     -1.023891    12A     -0.990688
      13A     -0.911739    14A     -0.865883    15A     -0.835651
      16A     -0.754869    17A     -0.664490    18A     -0.634361
      19A     -0.629560    20A     -0.624436    21A     -0.618741
      22A     -0.579376    23A     -0.551490    24A     -0.548095
      25A     -0.541482    26A     -0.519216    27A     -0.497944
      28A     -0.487758    29A     -0.463604    30A     -0.454432
      31A     -0.348591    32A     -0.342464

  @DF-RHF Final Energy:  -344.22534869282003

   => Energetics <=

    Nuclear Repulsion Energy =            420.9671052228087547
    One-Electron Energy =               -1300.6891598940455879
    Two-Electron Energy =                 535.4967059784167986
    DFT Exchange-Correlation Energy =       0.0000000000000000
    Empirical Dispersion Energy =           0.0000000000000000
    PCM Polarization Energy =               0.0000000000000000
    EFP Energy =                            0.0000000000000000
    Total Energy =                       -344.2253486928200346
    Molecular point group: c1
  Basis Set: 6-31G*
  Basis Set:

  -Total Gradient:
     Atom            X                  Y                   Z
    ------   -----------------  -----------------  -----------------
       1       -0.000028981714    -0.000017747180    -0.000012857907
       2        0.000030877006    -0.006373379134    -0.000452288241
       3       -0.000307956136     0.005136295413     0.001415533947
       4        0.000035549281     0.004115336122     0.000046745155
       5        0.000000426275     0.000007032253     0.000011741469
       6        0.000161062385    -0.002939706008    -0.000985983871
       7        0.000027741053     0.000086881632     0.000003300008
       8       -0.000010135992     0.000001672731    -0.000004397798
       9        0.000002246808    -0.000019398223     0.000017236415
      10        0.000039947525     0.000025832414    -0.000011450238
      11       -0.000001896847     0.000018767897    -0.000019023346
      12        0.000002342819     0.000004964163     0.000007692825
      13        0.000023292400    -0.000019834484     0.000010693662
      14        0.000043116487    -0.000006675730    -0.000001568002
      15        0.000000041906    -0.000008508474    -0.000004227161
      16       -0.000010533676    -0.000010555715    -0.000014847644
      17        0.000044008601    -0.000013088716     0.000004170458
      18       -0.000007871850    -0.000005903715    -0.000014540867
      19       -0.000014591265     0.000017985644     0.000010542605
      20       -0.000011916712     0.000001939841    -0.000004409703
      21       -0.000016037580    -0.000000688695    -0.000001372646
      22       -0.000000730774    -0.000001222036    -0.000000689118

  **** Optimization is complete! (in 4 steps) ****
    Final optimized geometry and variables:
    Molecular point group: c1

    Geometry (in Angstrom), charge = 0, multiplicity = 1:

    H           -3.289254378262    -0.459922771892     0.330008864975
    C           -2.795449978099     0.397598273654    -0.110450606944
    N           -1.364811781653     0.371206193586     0.153468274384
    H           -3.018381141654     0.411758441252    -1.176298114415
    H           -3.241149206308     1.292062008767     0.316065390141
    C           -0.583671022004     0.827875672536    -0.980190815475
    C           -0.886140144090    -0.922852951629     0.606062282956
    H           -0.704446381562     0.165111551780    -1.842039447502
    H           -0.933426982010     1.813225514058    -1.271720387664
    C            0.890215345625     0.909827437327    -0.616460023261
    H           -1.453175433068    -1.218367096514     1.482136771956
    H           -1.020766065390    -1.696941287220    -0.155332674409
    C            0.586995930378    -0.841842250987     0.974520900430
    H            1.460542971665     1.200186063294    -1.492997849573
    H            1.028644638092     1.686364512331     0.141993922188
    N            1.369110419869    -0.378101944170    -0.154586061835
    H            0.939411434464    -1.827385431475     1.261601057099
    H            0.701509799950    -0.182784215324     1.840595428037
    C            2.785434273667    -0.367891214375     0.126618324277
    H            3.334203281174    -0.074962922934    -0.761597616977
    H            3.111457987589    -1.363296717451     0.407234016883
    H            3.056246126164     0.318437683991     0.934690148728

  Mulliken Charges: (a.u.)
   Center  Symbol    Alpha    Beta     Spin     Total
       1     H     0.41960  0.41960  0.00000  0.16080
       2     C     3.14038  3.14038  0.00000 -0.28076
       3     N     3.78893  3.78893  0.00000 -0.57786
       4     H     0.42658  0.42658  0.00000  0.14684
       5     H     0.41599  0.41599  0.00000  0.16802
       6     C     3.05864  3.05864  0.00000 -0.11728
       7     C     3.05792  3.05792  0.00000 -0.11585
       8     H     0.42802  0.42802  0.00000  0.14396
       9     H     0.41737  0.41737  0.00000  0.16525
      10     C     3.05589  3.05589  0.00000 -0.11178
      11     H     0.41763  0.41763  0.00000  0.16474
      12     H     0.42867  0.42867  0.00000  0.14265
      13     C     3.05630  3.05630  0.00000 -0.11261
      14     H     0.41823  0.41823  0.00000  0.16353
      15     H     0.42852  0.42852  0.00000  0.14296
      16     N     3.78704  3.78704  0.00000 -0.57407
      17     H     0.41828  0.41828  0.00000  0.16344
      18     H     0.42854  0.42854  0.00000  0.14292
      19     C     3.14021  3.14021  0.00000 -0.28042
      20     H     0.41689  0.41689  0.00000  0.16621
      21     H     0.41688  0.41688  0.00000  0.16623
      22     H     0.43348  0.43348  0.00000  0.13305

   Total alpha = 32.00000, Total beta = 32.00000, Total charge =  0.00000
