  ==> Input File <==

--------------------------------------------------------------------------
set {
	reference rhf
	basis 6-31G*
}

set_num_threads( 4 )
memory 2 gb

molecule MOL {
0 1

H	 -2.394744	 0.773571	 2.267445
C	 -2.149193	 -0.184437	 1.813499
O	 -0.878607	 -0.168510	 1.247198
H	 -2.154948	 -0.946815	 2.580238
H	 -2.913955	 -0.422555	 1.075349
C	 -0.719715	 0.768384	 0.229244
C	 0.719720	 0.768376	 -0.229267
H	 -1.364873	 0.522374	 -0.615117
H	 -0.985730	 1.765056	 0.575489
O	 1.392611	 -0.295398	 0.366430
H	 0.750534	 0.687200	 -1.313918
H	 1.185043	 1.714359	 0.050526
C	 2.706965	 -0.449871	 -0.062409
H	 2.756559	 -0.644779	 -1.131878
H	 3.305899	 0.433456	 0.155466
H	 3.125548	 -1.294566	 0.467107

	symmetry c1
}
set optking {
	frozen_dihedral = ("
		3 6 7 11
	")
}

ee = optimize('scf')
oeprop('DIPOLE', 'QUADRUPOLE', 'MULLIKEN_CHARGES')
f=open( 'psi4out.xyz', 'w' )
f.write( "16  " )
f.write( str(ee) + "\n" )
f.write( MOL.save_string_xyz() )
f.close()
--------------------------------------------------------------------------

    Molecular point group: c1
  Charge       = 0
  Multiplicity = 1
  Basis Set: 6-31G*
  Basis Set:
  @DF-RHF Final Energy:  -306.96259634924746
    Total Energy =                       -306.9625963492475762
    Molecular point group: c1
  Basis Set: 6-31G*
  Basis Set:
  Basis Set: 6-31G*
  Basis Set:
  @DF-RHF Final Energy:  -306.96330536040415
    Total Energy =                       -306.9633053604040924
  Basis Set: 6-31G*
  Basis Set:
  Basis Set: 6-31G*
  Basis Set:
  @DF-RHF Final Energy:  -306.96448305983193
    Total Energy =                       -306.9644830598318208
  Basis Set: 6-31G*
  Basis Set:
  Basis Set: 6-31G*
  Basis Set:
  @DF-RHF Final Energy:  -306.96451198655717
    Total Energy =                       -306.9645119865573974
  Basis Set: 6-31G*
  Basis Set:
  Charge       = 0
  Multiplicity = 1
  Basis Set: 6-31G*
  Basis Set:

    Orbital Energies (a.u.)
    -----------------------

    Doubly Occupied:

       1A    -20.551382     2A    -20.550726     3A    -11.271966
       4A    -11.271404     5A    -11.262258     6A    -11.261992
       7A     -1.388896     8A     -1.367735     9A     -1.023519
      10A     -0.933341    11A     -0.896875    12A     -0.819321
      13A     -0.687686    14A     -0.672326    15A     -0.657395
      16A     -0.644693    17A     -0.616562    18A     -0.589626
      19A     -0.574072    20A     -0.517895    21A     -0.507690
      22A     -0.468185    23A     -0.465720    24A     -0.423675
      25A     -0.398153

  @DF-RHF Final Energy:  -306.96451333980440

   => Energetics <=

    Nuclear Repulsion Energy =            259.8832264489706176
    One-Electron Energy =                -934.0492901330791256
    Two-Electron Energy =                 367.2015503443039961
    DFT Exchange-Correlation Energy =       0.0000000000000000
    Empirical Dispersion Energy =           0.0000000000000000
    PCM Polarization Energy =               0.0000000000000000
    EFP Energy =                            0.0000000000000000
    Total Energy =                       -306.9645133398045118
    Molecular point group: c1
  Basis Set: 6-31G*
  Basis Set:

  -Total Gradient:
     Atom            X                  Y                   Z
    ------   -----------------  -----------------  -----------------
       1       -0.000001108752    -0.000000451281     0.000002889201
       2       -0.000000524324     0.000002964317     0.000010664188
       3       -0.000768907558    -0.002276585102    -0.002042413627
       4       -0.000002526345    -0.000003020763     0.000001855915
       5       -0.000001703472    -0.000005280694    -0.000003542391
       6        0.001028247163     0.002135837229     0.002794317129
       7       -0.000315135094     0.004108452864    -0.001092029899
       8        0.000020395497     0.000002500226    -0.000001005536
       9        0.000004439374    -0.000013085817     0.000010310738
      10       -0.000027793935     0.000012398571    -0.000027247122
      11        0.000071764005    -0.003965916058     0.000366646531
      12       -0.000024854366     0.000018576080    -0.000011024117
      13        0.000022247582    -0.000020918172    -0.000025318128
      14        0.000004683756    -0.000002128122     0.000003919536
      15       -0.000006730270     0.000005068788     0.000008458403
      16       -0.000002493266     0.000001587934     0.000003519179

  **** Optimization is complete! (in 5 steps) ****
    Final optimized geometry and variables:
    Molecular point group: c1

    Geometry (in Angstrom), charge = 0, multiplicity = 1:

    H           -2.681960492234     0.747865097193     1.640857637806
    C           -2.395143982008    -0.222100830393     1.236934237288
    O           -1.093924180951    -0.209532162305     0.747553843558
    H           -2.436640358930    -0.956987724181     2.028836291236
    H           -3.110961768904    -0.496819883969     0.463425396127
    C           -0.900661171572     0.692466435674    -0.289674610989
    C            0.557280437013     0.666058147760    -0.792933883811
    H           -1.571910210963     0.448038882591    -1.112382803560
    H           -1.153215124592     1.702160932482     0.032681053174
    O            1.254079180290    -0.404176770306    -0.244318387553
    H            0.554842971362     0.566500673681    -1.877721594672
    H            1.057210877212     1.601142087747    -0.545882279298
    C            2.571583256664    -0.489783222673    -0.679200555293
    H            2.630417646661    -0.625198715975    -1.758447617193
    H            3.139950706315     0.400646005468    -0.414063197803
    H            3.018233056231    -1.346779251936    -0.194420285137

  Mulliken Charges: (a.u.)
   Center  Symbol    Alpha    Beta     Spin     Total
       1     H     0.43165  0.43165  0.00000  0.13670
       2     C     3.08033  3.08033  0.00000 -0.16066
       3     O     4.29072  4.29072  0.00000 -0.58144
       4     H     0.41015  0.41015  0.00000  0.17971
       5     H     0.43119  0.43119  0.00000  0.13762
       6     C     2.99522  2.99522  0.00000  0.00956
       7     C     2.99540  2.99540  0.00000  0.00920
       8     H     0.43016  0.43016  0.00000  0.13968
       9     H     0.43049  0.43049  0.00000  0.13901
      10     O     4.29150  4.29150  0.00000 -0.58299
      11     H     0.43024  0.43024  0.00000  0.13952
      12     H     0.42922  0.42922  0.00000  0.14156
      13     C     3.08016  3.08016  0.00000 -0.16033
      14     H     0.43200  0.43200  0.00000  0.13599
      15     H     0.43132  0.43132  0.00000  0.13736
      16     H     0.41025  0.41025  0.00000  0.17951

   Total alpha = 25.00000, Total beta = 25.00000, Total charge = -0.00000
