  ==> Input File <==

--------------------------------------------------------------------------
set {
	reference rhf
	basis 6-31G*
}

set_num_threads( 4 )
memory 2 gb

molecule MOL {
0 1

H	 -1.359830	 1.345070	 0.175291
C	 -0.790252	 0.431209	 0.000000
N	 0.538815	 0.649616	 0.000000
O	 -1.324952	 -0.624696	 -0.168432
C	 1.521968	 -0.411503	 0.000000
H	 0.852804	 1.592852	 0.000000
H	 2.150599	 -0.357004	 -0.881901
H	 0.999455	 -1.354525	 0.000000
H	 2.150599	 -0.357004	 0.881901

	symmetry c1
}
set optking {
	frozen_dihedral = ("
		1 2 3 6
	")
}

ee = optimize('scf')
oeprop('DIPOLE', 'QUADRUPOLE', 'MULLIKEN_CHARGES')
f=open( 'psi4out.xyz', 'w' )
f.write( "9  " )
f.write( str(ee) + "\n" )
f.write( MOL.save_string_xyz() )
f.close()
--------------------------------------------------------------------------

    Molecular point group: c1
  Charge       = 0
  Multiplicity = 1
  Basis Set: 6-31G*
  Basis Set:
  @DF-RHF Final Energy:  -207.95980170849322
    Total Energy =                       -207.9598017084931882
    Molecular point group: c1
  Basis Set: 6-31G*
  Basis Set:
  Basis Set: 6-31G*
  Basis Set:
  @DF-RHF Final Energy:  -207.95978837265596
    Total Energy =                       -207.9597883726560212
  Basis Set: 6-31G*
  Basis Set:
  Basis Set: 6-31G*
  Basis Set:
  @DF-RHF Final Energy:  -207.96073684776258
    Total Energy =                       -207.9607368477625755
  Basis Set: 6-31G*
  Basis Set:
  Basis Set: 6-31G*
  Basis Set:
  @DF-RHF Final Energy:  -207.96077332246000
    Total Energy =                       -207.9607733224599428
  Basis Set: 6-31G*
  Basis Set:
  @DF-RHF Final Energy:  -207.96080291466569
    Total Energy =                       -207.9608029146656918
  @DF-RHF Final Energy:  -207.96094618388975
    Total Energy =                       -207.9609461838896891
  Basis Set: 6-31G*
  Basis Set:
  @DF-RHF Final Energy:  -207.96101835051056
    Total Energy =                       -207.9610183505104715
  Basis Set: 6-31G*
  Basis Set:
  Basis Set: 6-31G*
  Basis Set:
  @DF-RHF Final Energy:  -207.96104235631202
    Total Energy =                       -207.9610423563119923
  Basis Set: 6-31G*
  Basis Set:
  Basis Set: 6-31G*
  Basis Set:
  @DF-RHF Final Energy:  -207.96104532816656
    Total Energy =                       -207.9610453281664491
  Basis Set: 6-31G*
  Basis Set:
  Charge       = 0
  Multiplicity = 1
  Basis Set: 6-31G*
  Basis Set:

    Orbital Energies (a.u.)
    -----------------------

    Doubly Occupied:

       1A    -20.526873     2A    -15.590446     3A    -11.343469
       4A    -11.260759     5A     -1.390013     6A     -1.236190
       7A     -0.967629     8A     -0.807492     9A     -0.746332
      10A     -0.641592    11A     -0.626924    12A     -0.592440
      13A     -0.556559    14A     -0.534106    15A     -0.424557
      16A     -0.391746

  @DF-RHF Final Energy:  -207.96104572029131

   => Energetics <=

    Nuclear Repulsion Energy =            122.6428368694758717
    One-Electron Energy =                -525.9335107750836187
    Two-Electron Energy =                 195.3296281853164089
    DFT Exchange-Correlation Energy =       0.0000000000000000
    Empirical Dispersion Energy =           0.0000000000000000
    PCM Polarization Energy =               0.0000000000000000
    EFP Energy =                            0.0000000000000000
    Total Energy =                       -207.9610457202913096
    Molecular point group: c1
  Basis Set: 6-31G*
  Basis Set:

  -Total Gradient:
     Atom            X                  Y                   Z
    ------   -----------------  -----------------  -----------------
       1       -0.000076292315    -0.000122037071     0.000408764055
       2        0.000132566830     0.000185811219    -0.000710904983
       3       -0.000132457007    -0.000125611291     0.000802328011
       4       -0.000010517647    -0.000012620998     0.000002615545
       5       -0.000025771840     0.000045295382     0.000018239581
       6        0.000101437118     0.000049869040    -0.000487466815
       7        0.000016764239    -0.000024200741    -0.000013761395
       8       -0.000007634278    -0.000000853944    -0.000018681530
       9        0.000001904903     0.000004348407    -0.000001132467

  **** Optimization is complete! (in 10 steps) ****
    Final optimized geometry and variables:
    Molecular point group: c1

    Geometry (in Angstrom), charge = 0, multiplicity = 1:

    H           -1.378713225165     1.345429983879     0.122707503529
    C           -0.786861618812     0.438783025636    -0.012367954615
    N            0.514765763929     0.616996151669     0.286179478928
    O           -1.275975057452    -0.592606854853    -0.366848695151
    C            1.493258134362    -0.433830741410     0.103396306611
    H            0.833283584444     1.545742746211     0.441066936077
    H            1.781520169037    -0.544758838123    -0.936869413890
    H            1.078528924640    -1.370155207528     0.445300826160
    H            2.372752537502    -0.202884499098     0.689812243309

  Mulliken Charges: (a.u.)
   Center  Symbol    Alpha    Beta     Spin     Total
       1     H     0.42679  0.42679  0.00000  0.14642
       2     C     2.74743  2.74743  0.00000  0.50514
       3     N     3.87335  3.87335  0.00000 -0.74669
       4     O     4.28250  4.28250  0.00000 -0.56501
       5     C     3.13962  3.13962  0.00000 -0.27924
       6     H     0.30924  0.30924  0.00000  0.38152
       7     H     0.41155  0.41155  0.00000  0.17689
       8     H     0.39470  0.39470  0.00000  0.21060
       9     H     0.41481  0.41481  0.00000  0.17037

   Total alpha = 16.00000, Total beta = 16.00000, Total charge =  0.00000
