  ==> Input File <==

--------------------------------------------------------------------------
set {
	reference rhf
	basis 6-31G*
}

set_num_threads( 4 )
memory 2 gb

molecule MOL {
0 1

O	 -2.042549	 -1.228399	 -0.269030
C	 -1.653912	 -0.146171	 0.050137
C	 -0.332303	 0.024011	 0.778412
C	 -2.438579	 1.106236	 -0.272369
C	 0.845713	 -0.001731	 -0.208243
H	 -0.323783	 0.953829	 1.340327
H	 -0.235459	 -0.796807	 1.480410
C	 1.544105	 1.353695	 -0.326994
H	 0.495665	 -0.311884	 -1.191276
H	 1.556303	 -0.754086	 0.120641
C	 2.721549	 1.328719	 -1.300754
H	 0.824888	 2.104210	 -0.647742
H	 1.893202	 1.663475	 0.655216
H	 2.398273	 1.054895	 -2.301037
H	 3.473134	 0.609876	 -0.987979
H	 3.199048	 2.301456	 -1.362417
H	 -3.277823	 0.863061	 -0.908988
H	 -1.806773	 1.843019	 -0.759671
H	 -2.802853	 1.554979	 0.648059

	symmetry c1
}
set optking {
	frozen_dihedral = ("
		9 5 3 2
	")
}

ee = optimize('scf')
oeprop('DIPOLE', 'QUADRUPOLE', 'MULLIKEN_CHARGES')
f=open( 'psi4out.xyz', 'w' )
f.write( "19  " )
f.write( str(ee) + "\n" )
f.write( MOL.save_string_xyz() )
f.close()
--------------------------------------------------------------------------

    Molecular point group: c1
  Charge       = 0
  Multiplicity = 1
  Basis Set: 6-31G*
  Basis Set:
  @DF-RHF Final Energy:  -309.05917176096921
    Total Energy =                       -309.0591717609695479
    Molecular point group: c1
  Basis Set: 6-31G*
  Basis Set:
  Basis Set: 6-31G*
  Basis Set:
  @DF-RHF Final Energy:  -309.05946556262955
    Total Energy =                       -309.0594655626294411
  Basis Set: 6-31G*
  Basis Set:
  Basis Set: 6-31G*
  Basis Set:
  @DF-RHF Final Energy:  -309.05841395543035
    Total Energy =                       -309.0584139554302396
  Basis Set: 6-31G*
  Basis Set:
  Basis Set: 6-31G*
  Basis Set:
  @DF-RHF Final Energy:  -309.05959427654710
    Total Energy =                       -309.0595942765471591
  Basis Set: 6-31G*
  Basis Set:
  @DF-RHF Final Energy:  -309.05968654581920
    Total Energy =                       -309.0596865458190905
  @DF-RHF Final Energy:  -309.05977274848061
    Total Energy =                       -309.0597727484804409
  @DF-RHF Final Energy:  -309.05983534686004
    Total Energy =                       -309.0598353468598134
  Basis Set: 6-31G*
  Basis Set:
  @DF-RHF Final Energy:  -309.05981621709861
    Total Energy =                       -309.0598162170985574
  Basis Set: 6-31G*
  Basis Set:
  Basis Set: 6-31G*
  Basis Set:
  @DF-RHF Final Energy:  -309.05989503848383
    Total Energy =                       -309.0598950384840009
  Basis Set: 6-31G*
  Basis Set:
  Basis Set: 6-31G*
  Basis Set:
  @DF-RHF Final Energy:  -309.05990037523367
    Total Energy =                       -309.0599003752336102
  Basis Set: 6-31G*
  Basis Set:
  Charge       = 0
  Multiplicity = 1
  Basis Set: 6-31G*
  Basis Set:

    Orbital Energies (a.u.)
    -----------------------

    Doubly Occupied:

       1A    -20.547767     2A    -11.324249     3A    -11.233696
       4A    -11.229391     5A    -11.228662     6A    -11.227829
       7A    -11.217876     8A     -1.393146     9A     -1.092560
      10A     -1.028615    11A     -0.983008    12A     -0.894533
      13A     -0.811663    14A     -0.734366    15A     -0.661181
      16A     -0.645100    17A     -0.621657    18A     -0.612101
      19A     -0.585353    20A     -0.575786    21A     -0.553978
      22A     -0.534646    23A     -0.522496    24A     -0.502538
      25A     -0.482575    26A     -0.474760    27A     -0.467138
      28A     -0.397571

  @DF-RHF Final Energy:  -309.05990097063255

   => Energetics <=

    Nuclear Repulsion Energy =            304.0944141245494734
    One-Electron Energy =               -1021.1401477113729470
    Two-Electron Energy =                 407.9858326161908053
    DFT Exchange-Correlation Energy =       0.0000000000000000
    Empirical Dispersion Energy =           0.0000000000000000
    PCM Polarization Energy =               0.0000000000000000
    EFP Energy =                            0.0000000000000000
    Total Energy =                       -309.0599009706326115
    Molecular point group: c1
  Basis Set: 6-31G*
  Basis Set:

  -Total Gradient:
     Atom            X                  Y                   Z
    ------   -----------------  -----------------  -----------------
       1        0.000007620171    -0.000013960744    -0.000010337668
       2        0.000050038330    -0.000459635836    -0.000041486150
       3       -0.000091752686     0.000811149185     0.000002374243
       4       -0.000054399933     0.000013714175     0.000075109873
       5        0.000167934822    -0.000973287348     0.000084342455
       6        0.000021025292     0.000001727082    -0.000004973578
       7        0.000009216428    -0.000004803121    -0.000002793096
       8       -0.000006195750     0.000009291740     0.000019689491
       9       -0.000133539303     0.000636119884    -0.000081553649
      10       -0.000012230750     0.000000175105     0.000012925097
      11       -0.000001189019    -0.000005946875    -0.000004522080
      12       -0.000004625091     0.000001798472     0.000000428599
      13        0.000000749858     0.000000122767    -0.000001901632
      14        0.000001533139    -0.000003151105    -0.000000358292
      15        0.000004716763     0.000001296254    -0.000000133701
      16       -0.000004756737    -0.000000359129     0.000001256511
      17        0.000008897926    -0.000006502711    -0.000007085356
      18        0.000020794763    -0.000016154061    -0.000017718465
      19        0.000016161777     0.000008406271    -0.000023262603

  **** Optimization is complete! (in 11 steps) ****
    Final optimized geometry and variables:
    Molecular point group: c1

    Geometry (in Angstrom), charge = 0, multiplicity = 1:

    O           -2.083331727056    -1.554537649372     0.358794497936
    C           -1.473343382255    -0.529104662851     0.352754585255
    C           -0.097020496860    -0.425820704646     0.984321468050
    C           -2.041292723078     0.719423092324    -0.290127772447
    C            1.038478797691    -0.340642693110    -0.069875494463
    H           -0.065266688037     0.447006830196     1.631480654411
    H            0.025755733941    -1.301743171906     1.607451125898
    C            1.762894468180     1.007750481073    -0.092009090756
    H            0.644512610614    -0.548043725281    -1.062229261640
    H            1.760367104996    -1.125679472984     0.129346282048
    C            2.871043886110     1.067335105377    -1.141877454012
    H            1.046708897500     1.805675766061    -0.276601297284
    H            2.184486873745     1.200356880058     0.891951294758
    H            2.474290253496     0.913142676282    -2.141307519664
    H            3.621209450328     0.302387600665    -0.963312061477
    H            3.371186913063     2.030472491199    -1.129466877786
    H           -2.981479415067     0.486313541673    -0.770201571022
    H           -1.352519297979     1.132073240540    -1.020422448566
    H           -2.202388916075     1.482048791673     0.466820051904

  Mulliken Charges: (a.u.)
   Center  Symbol    Alpha    Beta     Spin     Total
       1     O     4.26001  4.26001  0.00000 -0.52001
       2     C     2.73921  2.73921  0.00000  0.52158
       3     C     3.20463  3.20463  0.00000 -0.40926
       4     C     3.28969  3.28969  0.00000 -0.57937
       5     C     3.16356  3.16356  0.00000 -0.32712
       6     H     0.41246  0.41246  0.00000  0.17508
       7     H     0.39713  0.39713  0.00000  0.20573
       8     C     3.15511  3.15511  0.00000 -0.31022
       9     H     0.41510  0.41510  0.00000  0.16980
      10     H     0.41038  0.41038  0.00000  0.17923
      11     C     3.24092  3.24092  0.00000 -0.48184
      12     H     0.42272  0.42272  0.00000  0.15457
      13     H     0.41950  0.41950  0.00000  0.16100
      14     H     0.42028  0.42028  0.00000  0.15945
      15     H     0.41929  0.41929  0.00000  0.16141
      16     H     0.41692  0.41692  0.00000  0.16615
      17     H     0.39656  0.39656  0.00000  0.20689
      18     H     0.40846  0.40846  0.00000  0.18309
      19     H     0.40808  0.40808  0.00000  0.18385

   Total alpha = 28.00000, Total beta = 28.00000, Total charge = -0.00000
