                              Psi4 1.0.54 Driver

  ==> Input File <==

--------------------------------------------------------------------------
set {
	reference rhf
	basis cc-pvtz
}

set_num_threads( 4 )
memory 2 gb

molecule MOL {
0 1

H	 -3.470074	 -0.400431	 0.762012
O	 -3.106200	 -0.211208	 -0.084242
C	 -1.772961	 -0.078518	 -0.023690
C	 -1.071126	 -0.214303	 1.167707
C	 -1.103497	 0.202659	 -1.203071
H	 -1.597544	 -0.432474	 2.078593
C	 0.295747	 -0.068297	 1.173579
H	 -1.663680	 0.303385	 -2.110853
C	 0.265442	 0.345863	 -1.180148
H	 0.848746	 -0.170649	 2.086172
C	 0.981121	 0.213562	 0.000000
H	 0.785845	 0.564009	 -2.094539
C	 2.447402	 0.371303	 0.000000
O	 3.227427	 -0.521847	 0.000000
H	 2.796538	 1.409525	 0.000000

	symmetry c1
}
set optking {
	frozen_dihedral = ("
		7 11 13 14
	")
}

ee,wfn = optimize('scf', return_wfn=True)
oeprop( wfn, 'DIPOLE', 'QUADRUPOLE', 'MULLIKEN_CHARGES')
f=open( 'psi4out.xyz', 'w' )
f.write( "15  " )
f.write( str(ee) + "\n" )
f.write( MOL.save_string_xyz() )
f.close()
--------------------------------------------------------------------------

    Molecular point group: c1
  Charge       = 0
  Multiplicity = 1
  Basis Set: CC-PVTZ
  Basis Set:
  @DF-RHF Final Energy:  -418.42695345026397
    Total Energy =                       -418.4269534502636816
    Molecular point group: c1
  Basis Set: CC-PVTZ
  Basis Set:
  Basis Set: CC-PVTZ
  Basis Set:
  @DF-RHF Final Energy:  -418.42744444896817
    Total Energy =                       -418.4274444489678899
  Basis Set: CC-PVTZ
  Basis Set:
  Basis Set: CC-PVTZ
  Basis Set:
  @DF-RHF Final Energy:  -418.42766852897699
    Total Energy =                       -418.4276685289767101
  Basis Set: CC-PVTZ
  Basis Set:
  Basis Set: CC-PVTZ
  Basis Set:
  @DF-RHF Final Energy:  -418.42775344281887
    Total Energy =                       -418.4277534428188119
  Basis Set: CC-PVTZ
  Basis Set:
  Basis Set: CC-PVTZ
  Basis Set:
  @DF-RHF Final Energy:  -418.42775577928410
    Total Energy =                       -418.4277557792842117
  Basis Set: CC-PVTZ
  Basis Set:
  Charge       = 0
  Multiplicity = 1
  Basis Set: CC-PVTZ
  Basis Set:

    Orbital Energies (a.u.)
    -----------------------

    Doubly Occupied:

       1A    -20.596663     2A    -20.561242     3A    -11.330504
       4A    -11.311673     5A    -11.252550     6A    -11.251575
       7A    -11.242355     8A    -11.240306     9A    -11.235555
      10A     -1.428373    11A     -1.415167    12A     -1.172769
      13A     -1.041369    14A     -1.039090    15A     -0.889886
      16A     -0.864524    17A     -0.802759    18A     -0.756797
      19A     -0.712569    20A     -0.678082    21A     -0.660010
      22A     -0.631169    23A     -0.607930    24A     -0.607520
      25A     -0.594616    26A     -0.565468    27A     -0.534683
      28A     -0.505428    29A     -0.498623    30A     -0.425415
      31A     -0.358712    32A     -0.328384

  @DF-RHF Final Energy:  -418.42775658345755

   => Energetics <=

    Nuclear Repulsion Energy =            401.0156852716942808
    One-Electron Energy =               -1364.6033549713931734
    Two-Electron Energy =                 545.1599131162417962
    DFT Exchange-Correlation Energy =       0.0000000000000000
    Empirical Dispersion Energy =           0.0000000000000000
    PCM Polarization Energy =               0.0000000000000000
    EFP Energy =                            0.0000000000000000
    Total Energy =                       -418.4277565834570396
    Molecular point group: c1
  Basis Set: CC-PVTZ
  Basis Set:

  -Total Gradient:
     Atom            X                  Y                   Z
    ------   -----------------  -----------------  -----------------
       1       -0.000012862559     0.000003045876     0.000004157884
       2       -0.000021744301    -0.000044004706     0.000024743202
       3        0.000034844017     0.000093500598    -0.000071323669
       4        0.000008184798    -0.000014180530     0.000024435280
       5       -0.000103426971    -0.000041342165     0.000027963483
       6       -0.000009085711    -0.000000749336    -0.000005460282
       7       -0.000438700175     0.002995213614     0.000494451698
       8        0.000014156570     0.000001302531     0.000007397027
       9        0.000103138197    -0.000021418873     0.000080302211
      10       -0.000001225835     0.000007193828    -0.000026729313
      11        0.000687195332    -0.004369312859    -0.002475224219
      12        0.000000982110    -0.000000768127     0.000003318437
      13       -0.000242014983     0.001567166465     0.005672865366
      14        0.000065381599    -0.000106672372    -0.003767323346
      15       -0.000084822087    -0.000068973946     0.000006426242

  **** Optimization is complete! (in 6 steps) ****
    Final optimized geometry and variables:
    Molecular point group: c1

    Geometry (in Angstrom), charge = 0, multiplicity = 1:

    H           -3.487062054724    -0.391901103007     0.765799362129
    O           -3.122551915861    -0.195489379168    -0.078332632758
    C           -1.783675974643    -0.070296594034    -0.012534145849
    C           -1.081625637801    -0.203610969519     1.170216541568
    C           -1.107889938079     0.207260646919    -1.189764651002
    H           -1.602196238194    -0.413544097465     2.086564161224
    C            0.294199415466    -0.069141220953     1.172569361163
    H           -1.664921292452     0.309991444392    -2.099726984849
    C            0.260958670487     0.350411680994    -1.172699009856
    H            0.831266158672    -0.182767536696     2.095121487171
    C            0.978803960075     0.194653561873     0.003456422790
    H            0.774413088098     0.574183785483    -2.089382088272
    C            2.463641781895     0.390928186508     0.012754161760
    O            3.251941962511    -0.488422018516     0.045335195397
    H            2.804313597446     1.430300369704    -0.044157691726

  Mulliken Charges: (a.u.)
   Center  Symbol    Alpha    Beta     Spin     Total
       1     H     0.38654  0.38654  0.00000  0.22692
       2     O     4.17047  4.17047  0.00000 -0.34094
       3     C     2.85714  2.85714  0.00000  0.28572
       4     C     3.12349  3.12349  0.00000 -0.24698
       5     C     3.09883  3.09883  0.00000 -0.19766
       6     H     0.43222  0.43222  0.00000  0.13555
       7     C     3.08911  3.08911  0.00000 -0.17822
       8     H     0.41696  0.41696  0.00000  0.16607
       9     C     3.07842  3.07842  0.00000 -0.15683
      10     H     0.41928  0.41928  0.00000  0.16143
      11     C     2.95477  2.95477  0.00000  0.09045
      12     H     0.42243  0.42243  0.00000  0.15515
      13     C     2.93393  2.93393  0.00000  0.13214
      14     O     4.15681  4.15681  0.00000 -0.31361
      15     H     0.45959  0.45959  0.00000  0.08082

   Total alpha = 32.00000, Total beta = 32.00000, Total charge = -0.00000

*** Psi4 exiting successfully. Buy a developer a beer!
