                              Psi4 1.0.54 Driver

  ==> Input File <==

--------------------------------------------------------------------------
set {
	reference rhf
	basis cc-pvtz
}

set_num_threads( 4 )
memory 2 gb

molecule MOL {
0 1

O	 -1.278239	 1.034789	 -0.784693
C	 -1.204115	 0.062668	 -0.112312
C	 -2.386398	 -0.667698	 0.460323
O	 -0.068058	 -0.518372	 0.226882
H	 -2.382952	 -1.693172	 0.114333
H	 -3.296656	 -0.175702	 0.158400
H	 -2.312537	 -0.685191	 1.540100
C	 1.113645	 0.277284	 0.365854
C	 2.282542	 -0.648310	 0.093696
C	 1.157519	 0.897793	 1.750647
H	 1.077335	 1.057565	 -0.379083
H	 2.210962	 -1.073196	 -0.899329
H	 3.214296	 -0.100215	 0.165369
H	 2.305657	 -1.459243	 0.811880
H	 2.057810	 1.490764	 1.861830
H	 0.305685	 1.544306	 1.908914
H	 1.160261	 0.126596	 2.512572

	symmetry c1
}
set optking {
	frozen_dihedral = ("
		8 4 2 1
	")
}

ee,wfn = optimize('scf', return_wfn=True)
oeprop( wfn, 'DIPOLE', 'QUADRUPOLE', 'MULLIKEN_CHARGES')
f=open( 'psi4out.xyz', 'w' )
f.write( "17  " )
f.write( str(ee) + "\n" )
f.write( MOL.save_string_xyz() )
f.close()
--------------------------------------------------------------------------

    Molecular point group: c1
  Charge       = 0
  Multiplicity = 1
  Basis Set: CC-PVTZ
  Basis Set:
  @DF-RHF Final Energy:  -345.03879557306794
    Total Energy =                       -345.0387955730677731
    Molecular point group: c1
  Basis Set: CC-PVTZ
  Basis Set:
  Basis Set: CC-PVTZ
  Basis Set:
  @DF-RHF Final Energy:  -344.92591259138521
    Total Energy =                       -344.9259125913853836
  Basis Set: CC-PVTZ
  Basis Set:
  Basis Set: CC-PVTZ
  Basis Set:
  @DF-RHF Final Energy:  -345.01125449838315
    Total Energy =                       -345.0112544983832663
  Basis Set: CC-PVTZ
  Basis Set:
  Basis Set: CC-PVTZ
  Basis Set:
  @DF-RHF Final Energy:  -345.03649425159671
    Total Energy =                       -345.0364942515969915
  Basis Set: CC-PVTZ
  Basis Set:
  @DF-RHF Final Energy:  -344.97507374269293
    Total Energy =                       -344.9750737426928140
  @DF-RHF Final Energy:  -345.03213473352940
    Total Energy =                       -345.0321347335293467
  @DF-RHF Final Energy:  -345.02260368617891
    Total Energy =                       -345.0226036861787406
  @DF-RHF Final Energy:  -345.03854990754547
    Total Energy =                       -345.0385499075453026
  @DF-RHF Final Energy:  -345.03910717051360
    Total Energy =                       -345.0391071705138302
  @DF-RHF Final Energy:  -345.03921262800731
    Total Energy =                       -345.0392126280075900
  @DF-RHF Final Energy:  -345.02173303240744
    Total Energy =                       -345.0217330324075533
  @DF-RHF Final Energy:  -345.03910137215297
    Total Energy =                       -345.0391013721530840
  Basis Set: CC-PVTZ
  Basis Set:
  @DF-RHF Final Energy:  -345.03935241453422
    Total Energy =                       -345.0393524145339939
  Basis Set: CC-PVTZ
  Basis Set:
  Basis Set: CC-PVTZ
  Basis Set:
  @DF-RHF Final Energy:  -345.03936548751136
    Total Energy =                       -345.0393654875115317
  Basis Set: CC-PVTZ
  Basis Set:
  Basis Set: CC-PVTZ
  Basis Set:
  @DF-RHF Final Energy:  -345.03937142384063
    Total Energy =                       -345.0393714238404073
  Basis Set: CC-PVTZ
  Basis Set:
  Charge       = 0
  Multiplicity = 1
  Basis Set: CC-PVTZ
  Basis Set:

    Orbital Energies (a.u.)
    -----------------------

    Doubly Occupied:

       1A    -20.586741     2A    -20.533545     3A    -11.367049
       4A    -11.289414     5A    -11.230859     6A    -11.219101
       7A    -11.217737     8A     -1.465589     9A     -1.364820
      10A     -1.078938    11A     -1.007040    12A     -0.951486
      13A     -0.849378    14A     -0.765088    15A     -0.695989
      16A     -0.668486    17A     -0.666039    18A     -0.619595
      19A     -0.587003    20A     -0.579676    21A     -0.563850
      22A     -0.551719    23A     -0.534747    24A     -0.526747
      25A     -0.505889    26A     -0.484360    27A     -0.450914
      28A     -0.437231

  @DF-RHF Final Energy:  -345.03937182042608

   => Energetics <=

    Nuclear Repulsion Energy =            323.6442736447153834
    One-Electron Energy =               -1111.7692263236197050
    Two-Electron Energy =                 443.0855808584779538
    DFT Exchange-Correlation Energy =       0.0000000000000000
    Empirical Dispersion Energy =           0.0000000000000000
    PCM Polarization Energy =               0.0000000000000000
    EFP Energy =                            0.0000000000000000
    Total Energy =                       -345.0393718204263109
    Molecular point group: c1
  Basis Set: CC-PVTZ
  Basis Set:

  -Total Gradient:
     Atom            X                  Y                   Z
    ------   -----------------  -----------------  -----------------
       1       -0.006483646116     0.002497854170    -0.003341476892
       2        0.011543799101    -0.006138118555     0.006070257817
       3       -0.000017390819     0.000011175796     0.000001337649
       4       -0.008403744910     0.008131662831    -0.004856985956
       5       -0.000010895012     0.000001803691     0.000000866362
       6       -0.000013134493    -0.000000331590     0.000011064670
       7       -0.000008434304    -0.000012412782    -0.000011106753
       8        0.003455037845    -0.004433427771     0.002114125609
       9       -0.000041330536    -0.000013089371     0.000001789460
      10       -0.000028914564    -0.000023703645     0.000030792896
      11       -0.000015937278    -0.000000050157     0.000003308928
      12       -0.000000164514    -0.000002211356    -0.000000095517
      13       -0.000003956902    -0.000009952710     0.000016577265
      14        0.000008943328    -0.000012980026    -0.000012299369
      15        0.000003604477     0.000005281029    -0.000010182298
      16        0.000004931538     0.000001742655    -0.000011553879
      17        0.000011233161    -0.000003242207    -0.000006419991

  **** Optimization is complete! (in 16 steps) ****
    Final optimized geometry and variables:
    Molecular point group: c1

    Geometry (in Angstrom), charge = 0, multiplicity = 1:

    O           -0.861757371368     0.875463948740     1.426552511518
    C           -0.913140234172    -0.116027362968     0.783663975204
    C           -1.690928348724    -1.341000073555     1.172563951694
    O           -0.352902191443    -0.250759392529    -0.411193510475
    H           -2.350405400213    -1.626989154558     0.364016857130
    H           -2.256259859804    -1.146081771310     2.069462583640
    H           -1.003377858984    -2.161313033081     1.339800007365
    C            0.830263048233     0.494259484165    -0.714866471665
    C            0.946111643663     0.512789771099    -2.225373013699
    C            2.026250765478    -0.148370119572    -0.035005495468
    H            0.696877045111     1.499639099919    -0.344611043674
    H            0.071158716310     0.970846121098    -2.667876807189
    H            1.819104488146     1.080146027374    -2.524653365000
    H            1.040290355470    -0.493726617286    -2.615531387945
    H            2.927360365732     0.404927238530    -0.271280308638
    H            1.908473696856    -0.146771797159     1.041217920404
    H            2.153295797820    -1.170760046336    -0.371767143553

  Mulliken Charges: (a.u.)
   Center  Symbol    Alpha    Beta     Spin     Total
       1     O     4.19387  4.19387  0.00000 -0.38774
       2     C     2.80527  2.80527  0.00000  0.38945
       3     C     3.13789  3.13789  0.00000 -0.27578
       4     O     4.16912  4.16912  0.00000 -0.33824
       5     H     0.44437  0.44437  0.00000  0.11125
       6     H     0.43841  0.43841  0.00000  0.12319
       7     H     0.44892  0.44892  0.00000  0.10215
       8     C     2.93256  2.93256  0.00000  0.13488
       9     C     3.13931  3.13931  0.00000 -0.27863
      10     C     3.15481  3.15481  0.00000 -0.30961
      11     H     0.43844  0.43844  0.00000  0.12312
      12     H     0.44502  0.44502  0.00000  0.10996
      13     H     0.45517  0.45517  0.00000  0.08967
      14     H     0.45294  0.45294  0.00000  0.09412
      15     H     0.44829  0.44829  0.00000  0.10341
      16     H     0.44366  0.44366  0.00000  0.11268
      17     H     0.45194  0.45194  0.00000  0.09613

   Total alpha = 28.00000, Total beta = 28.00000, Total charge = -0.00000

*** Psi4 exiting successfully. Buy a developer a beer!
