  ==> Input File <==

--------------------------------------------------------------------------
set {
	reference rhf
	basis 6-31G*
}

set_num_threads( 4 )
memory 2 gb

molecule MOL {
0 1

O	 3.325736	 0.596238	 -1.002189
C	 2.843464	 0.164689	 -0.000222
C	 1.546494	 -0.624492	 -0.000609
C	 3.500823	 0.379019	 1.347775
C	 0.291004	 0.242674	 0.000989
H	 1.557904	 -1.283758	 -0.867573
H	 1.558622	 -1.285963	 0.864672
C	 -0.994322	 -0.586602	 0.000262
H	 0.309117	 0.896430	 -0.865270
H	 0.309661	 0.894078	 0.869017
C	 -2.259874	 0.272531	 0.000494
H	 -1.004862	 -1.240012	 -0.870939
H	 -1.005220	 -1.241071	 0.870675
C	 -3.549786	 -0.549746	 -0.000374
H	 -2.250389	 0.926680	 -0.869574
H	 -2.250838	 0.925513	 0.871430
C	 -4.809590	 0.315458	 -0.000369
H	 -3.560515	 -1.202009	 -0.871156
H	 -3.561123	 -1.202955	 0.869711
H	 -4.844746	 0.956611	 -0.876632
H	 -5.706986	 -0.295590	 -0.001609
H	 -4.845960	 0.954827	 0.877144
H	 3.730314	 -0.574951	 1.813494
H	 4.411491	 0.948226	 1.223184
H	 2.829704	 0.910606	 2.016094

	symmetry c1
}
set optking {
	frozen_dihedral = ("
		1 2 3 6
	")
}

ee = optimize('scf')
oeprop('DIPOLE', 'QUADRUPOLE', 'MULLIKEN_CHARGES')
f=open( 'psi4out.xyz', 'w' )
f.write( "25  " )
f.write( str(ee) + "\n" )
f.write( MOL.save_string_xyz() )
f.close()
--------------------------------------------------------------------------

    Molecular point group: c1
  Charge       = 0
  Multiplicity = 1
  Basis Set: 6-31G*
  Basis Set:
  @DF-RHF Final Energy:  -387.13358960382988
    Total Energy =                       -387.1335896038299325
    Molecular point group: c1
  Basis Set: 6-31G*
  Basis Set:
  Basis Set: 6-31G*
  Basis Set:
  @DF-RHF Final Energy:  -387.13387407780914
    Total Energy =                       -387.1338740778090823
  Basis Set: 6-31G*
  Basis Set:
  Basis Set: 6-31G*
  Basis Set:
  @DF-RHF Final Energy:  -387.13340044523602
    Total Energy =                       -387.1334004452353383
  Basis Set: 6-31G*
  Basis Set:
  Basis Set: 6-31G*
  Basis Set:
  @DF-RHF Final Energy:  -387.13455481223508
    Total Energy =                       -387.1345548122359332
  Basis Set: 6-31G*
  Basis Set:
  Basis Set: 6-31G*
  Basis Set:
  @DF-RHF Final Energy:  -387.13456865084487
    Total Energy =                       -387.1345686508450399
  Basis Set: 6-31G*
  Basis Set:
  Basis Set: 6-31G*
  Basis Set:
  @DF-RHF Final Energy:  -387.13457157289713
    Total Energy =                       -387.1345715728970163
  Basis Set: 6-31G*
  Basis Set:
  Charge       = 0
  Multiplicity = 1
  Basis Set: 6-31G*
  Basis Set:

    Orbital Energies (a.u.)
    -----------------------

    Doubly Occupied:

       1A    -20.547244     2A    -11.324390     3A    -11.229817
       4A    -11.229005     5A    -11.228098     6A    -11.221998
       7A    -11.218605     8A    -11.217924     9A    -11.210902
      10A     -1.392974    11A     -1.098684    12A     -1.059012
      13A     -1.012944    14A     -0.970832    15A     -0.893752
      16A     -0.817726    17A     -0.795374    18A     -0.732469
      19A     -0.667538    20A     -0.647173    21A     -0.637791
      22A     -0.609704    23A     -0.604397    24A     -0.587265
      25A     -0.568173    26A     -0.557684    27A     -0.541493
      28A     -0.539688    29A     -0.509510    30A     -0.498869
      31A     -0.488999    32A     -0.476611    33A     -0.467879
      34A     -0.466771    35A     -0.452527    36A     -0.395633

  @DF-RHF Final Energy:  -387.13457145663796

   => Energetics <=

    Nuclear Repulsion Energy =            438.9811101890373379
    One-Electron Energy =               -1394.3924568530323995
    Two-Electron Energy =                 568.2767752073571046
    DFT Exchange-Correlation Energy =       0.0000000000000000
    Empirical Dispersion Energy =           0.0000000000000000
    PCM Polarization Energy =               0.0000000000000000
    EFP Energy =                            0.0000000000000000
    Total Energy =                       -387.1345714566380138
    Molecular point group: c1
  Basis Set: 6-31G*
  Basis Set:

  -Total Gradient:
     Atom            X                  Y                   Z
    ------   -----------------  -----------------  -----------------
       1        0.000053657343     0.000120320237    -0.000038471347
       2       -0.000000683688    -0.000127449243    -0.000028683099
       3        0.000007726302     0.000097161682     0.000027922695
       4       -0.000022600001     0.000062235596    -0.000032370953
       5       -0.000028546646    -0.000031677689    -0.000039450145
       6       -0.000019112836    -0.000031935546     0.000035360877
       7       -0.000027685132    -0.000045767346     0.000014049680
       8       -0.000024351018     0.000045228268     0.000012056635
       9        0.000030923657     0.000012275759     0.000019784645
      10        0.000058830369    -0.000050350808    -0.000003380776
      11       -0.000020376567    -0.000046263729    -0.000013109456
      12       -0.000009621969    -0.000015056384     0.000023105940
      13       -0.000016968421     0.000029242146     0.000012465826
      14       -0.000014446892     0.000013847639    -0.000020608162
      15        0.000013101978     0.000013966968     0.000007959376
      16        0.000006778096    -0.000021073163     0.000011147812
      17       -0.000009594515    -0.000011245043    -0.000013425396
      18       -0.000003359801    -0.000008974594     0.000003000593
      19        0.000000667534     0.000009075639     0.000000459716
      20       -0.000001619206     0.000002104238     0.000000498310
      21       -0.000005507054     0.000004036493    -0.000002238192
      22        0.000002537202    -0.000002452249     0.000000444454
      23        0.000000262739    -0.000004882493    -0.000000778889
      24        0.000014220272     0.000003657473     0.000030301249
      25        0.000015768250    -0.000016023850    -0.000006041390

  **** Optimization is complete! (in 7 steps) ****
    Final optimized geometry and variables:
    Molecular point group: c1

    Geometry (in Angstrom), charge = 0, multiplicity = 1:

    O            3.241630365343     0.611733054432    -1.054655214899
    C            2.844330734685     0.135474199495    -0.035029078837
    C            1.583249971490    -0.710445961119    -0.009219733621
    C            3.554970498480     0.368230961715     1.279793317370
    C            0.328049531015     0.176389646488    -0.009758377556
    H            1.586962019851    -1.334009915110    -0.896499918539
    H            1.577215609828    -1.360665081686     0.861135085191
    C           -0.967338024804    -0.636661398952    -0.018064573239
    H            0.363625873269     0.823411818322    -0.880828626783
    H            0.338933928544     0.826986700114     0.862869850625
    C           -2.222662915383     0.237262179507    -0.035523427644
    H           -0.972134924673    -1.292021066229    -0.886828068983
    H           -0.992128707230    -1.286085015508     0.855292449979
    C           -3.521119744701    -0.571433914697    -0.054937856479
    H           -2.193628371089     0.890684664675    -0.905575800922
    H           -2.219778580554     0.890088043874     0.835868402582
    C           -4.771254880275     0.307397374718    -0.074426121158
    H           -3.525449024465    -1.223957210160    -0.925361684348
    H           -3.552245265791    -1.223686345832     0.815308092513
    H           -4.786610384613     0.947707995367    -0.951808487119
    H           -5.674773235268    -0.294203187473    -0.088433067112
    H           -4.814028536808     0.948001448743     0.801938612495
    H            3.974269740561    -0.568152389044     1.638489156511
    H            4.349202853863     1.089902749347     1.148818859210
    H            2.859320231414     0.718151207253     2.036911193876

  Mulliken Charges: (a.u.)
   Center  Symbol    Alpha    Beta     Spin     Total
       1     O     4.26230  4.26230  0.00000 -0.52459
       2     C     2.73708  2.73708  0.00000  0.52584
       3     C     3.20006  3.20006  0.00000 -0.40011
       4     C     3.28956  3.28956  0.00000 -0.57913
       5     C     3.16199  3.16199  0.00000 -0.32399
       6     H     0.40121  0.40121  0.00000  0.19758
       7     H     0.41691  0.41691  0.00000  0.16618
       8     C     3.15203  3.15203  0.00000 -0.30406
       9     H     0.40593  0.40593  0.00000  0.18814
      10     H     0.42080  0.42080  0.00000  0.15840
      11     C     3.15165  3.15165  0.00000 -0.30330
      12     H     0.42020  0.42020  0.00000  0.15960
      13     H     0.42327  0.42327  0.00000  0.15347
      14     C     3.15190  3.15190  0.00000 -0.30381
      15     H     0.42138  0.42138  0.00000  0.15724
      16     H     0.42374  0.42374  0.00000  0.15252
      17     C     3.23953  3.23953  0.00000 -0.47905
      18     H     0.42216  0.42216  0.00000  0.15568
      19     H     0.42317  0.42317  0.00000  0.15365
      20     H     0.42090  0.42090  0.00000  0.15820
      21     H     0.41878  0.41878  0.00000  0.16245
      22     H     0.42169  0.42169  0.00000  0.15661
      23     H     0.40684  0.40684  0.00000  0.18631
      24     H     0.39709  0.39709  0.00000  0.20582
      25     H     0.40982  0.40982  0.00000  0.18035

   Total alpha = 36.00000, Total beta = 36.00000, Total charge = -0.00000
