  ==> Input File <==

--------------------------------------------------------------------------
set {
	reference rhf
	basis cc-pvtz
}

set_num_threads( 4 )
memory 2 gb

molecule MOL {
0 1

H	 -2.020088	 -0.288047	 -0.878610
O	 -1.432053	 -0.565244	 -0.200812
C	 -0.727158	 0.534527	 0.310686
C	 0.680222	 0.664433	 -0.252229
H	 -1.306802	 1.408001	 0.044211
H	 -0.690821	 0.490158	 1.397609
C	 1.605391	 -0.489360	 0.123098
H	 0.615089	 0.745647	 -1.332226
H	 1.101414	 1.597893	 0.110950
H	 1.247627	 -1.432485	 -0.275204
H	 2.601435	 -0.332816	 -0.273062
H	 1.691776	 -0.589902	 1.200774

	symmetry c1
}
set optking {
	frozen_dihedral = ("
		1 2 3 4
	")
}

ee = optimize('scf')
oeprop('DIPOLE', 'QUADRUPOLE', 'MULLIKEN_CHARGES')
f=open( 'psi4out.xyz', 'w' )
f.write( "12  " )
f.write( str(ee) + "\n" )
f.write( MOL.save_string_xyz() )
f.close()
--------------------------------------------------------------------------

    Molecular point group: c1
  Charge       = 0
  Multiplicity = 1
  Basis Set: CC-PVTZ
  Basis Set:
  @DF-RHF Final Energy:  -193.18840797334636
    Total Energy =                       -193.1884079733463011
    Molecular point group: c1
  Basis Set: CC-PVTZ
  Basis Set:
  Basis Set: CC-PVTZ
  Basis Set:
  @DF-RHF Final Energy:  -193.18960233925560
    Total Energy =                       -193.1896023392555719
  Basis Set: CC-PVTZ
  Basis Set:
  Basis Set: CC-PVTZ
  Basis Set:
  @DF-RHF Final Energy:  -193.18994636266584
    Total Energy =                       -193.1899463626657791
  Basis Set: CC-PVTZ
  Basis Set:
  Basis Set: CC-PVTZ
  Basis Set:
  @DF-RHF Final Energy:  -193.18995040377615
    Total Energy =                       -193.1899504037762085
  Basis Set: CC-PVTZ
  Basis Set:
  Charge       = 0
  Multiplicity = 1
  Basis Set: CC-PVTZ
  Basis Set:

    Orbital Energies (a.u.)
    -----------------------

    Doubly Occupied:

       1A    -20.545924     2A    -11.266525     3A    -11.213952
       4A    -11.202466     5A     -1.363632     6A     -1.048108
       7A     -0.920139     8A     -0.807854     9A     -0.696994
      10A     -0.640021    11A     -0.608444    12A     -0.566908
      13A     -0.533743    14A     -0.515550    15A     -0.481691
      16A     -0.467302    17A     -0.431667

  @DF-RHF Final Energy:  -193.18995116851463

   => Energetics <=

    Nuclear Repulsion Energy =            133.1371333440783076
    One-Electron Energy =                -526.0323259597896595
    Two-Electron Energy =                 199.7052414471968120
    DFT Exchange-Correlation Energy =       0.0000000000000000
    Empirical Dispersion Energy =           0.0000000000000000
    PCM Polarization Energy =               0.0000000000000000
    EFP Energy =                            0.0000000000000000
    Total Energy =                       -193.1899511685145683
    Molecular point group: c1
  Basis Set: CC-PVTZ
  Basis Set:

  -Total Gradient:
     Atom            X                  Y                   Z
    ------   -----------------  -----------------  -----------------
       1       -0.000959689308     0.000200979511     0.000875769030
       2        0.001345287411    -0.000357167881    -0.000800910270
       3       -0.000643972626     0.000633939762    -0.000699991474
       4        0.000261099458    -0.000497180512     0.000615940973
       5        0.000000087477     0.000005059336    -0.000010886942
       6        0.000022557480    -0.000015810237    -0.000003062348
       7        0.000006050743     0.000006689018     0.000016363448
       8       -0.000010847611     0.000002527837    -0.000003419156
       9       -0.000015974223     0.000011116718    -0.000004369126
      10       -0.000001182631     0.000013026677    -0.000007870199
      11       -0.000007549776     0.000010594336     0.000010793854
      12        0.000004133604    -0.000013774566     0.000011642210

  **** Optimization is complete! (in 5 steps) ****
    Final optimized geometry and variables:
    Molecular point group: c1

    Geometry (in Angstrom), charge = 0, multiplicity = 1:

    H           -1.959369582072    -0.374908836217    -0.871735998874
    O           -1.379564627406    -0.607406597854    -0.171983635687
    C           -0.719995202102     0.534619721590     0.316062067370
    C            0.691106410467     0.663732010433    -0.235010402277
    H           -1.290765207712     1.430093413162     0.089725884973
    H           -0.683602992030     0.442514829384     1.395900814224
    C            1.591756300564    -0.508829685392     0.136628332367
    H            0.639833829545     0.759430736628    -1.316276277868
    H            1.117611169718     1.590592203501     0.140031814295
    H            1.181659765431    -1.441135935541    -0.228508309712
    H            2.582578533795    -0.385905345990    -0.285113996300
    H            1.697950561503    -0.590718455737     1.213602735430

  Mulliken Charges: (a.u.)
   Center  Symbol    Alpha    Beta     Spin     Total
       1     H     0.39299  0.39299  0.00000  0.21403
       2     O     4.20489  4.20489  0.00000 -0.40978
       3     C     2.97595  2.97595  0.00000  0.04809
       4     C     3.07814  3.07814  0.00000 -0.15627
       5     H     0.46321  0.46321  0.00000  0.07357
       6     H     0.46344  0.46344  0.00000  0.07313
       7     C     3.14860  3.14860  0.00000 -0.29721
       8     H     0.46065  0.46065  0.00000  0.07870
       9     H     0.45775  0.45775  0.00000  0.08450
      10     H     0.44616  0.44616  0.00000  0.10769
      11     H     0.45103  0.45103  0.00000  0.09793
      12     H     0.45719  0.45719  0.00000  0.08562

   Total alpha = 17.00000, Total beta = 17.00000, Total charge =  0.00000
