  ==> Input File <==

--------------------------------------------------------------------------
set {
	reference rhf
	basis 6-31G*
}

set_num_threads( 1 )
memory 2 gb

molecule MOL {
0 1

H	 -2.659357	 0.839368	 3.609819
O	 -1.953379	 0.276264	 3.326246
C	 -1.504815	 0.682960	 2.058973
C	 -0.375076	 -0.239736	 1.636992
H	 -2.315176	 0.636642	 1.332697
H	 -1.152929	 1.713290	 2.089562
C	 0.198102	 0.111031	 0.262842
H	 -0.748745	 -1.260079	 1.637488
H	 0.404893	 -0.192635	 2.391914
C	 1.331804	 -0.827780	 -0.158768
H	 -0.599900	 0.082527	 -0.475096
H	 0.569154	 1.135096	 0.274286
C	 2.723619	 -0.410569	 0.329459
H	 1.342964	 -0.912588	 -1.244120
H	 1.116806	 -1.824343	 0.220779
C	 3.243875	 0.895854	 -0.272975
H	 3.424222	 -1.207124	 0.091250
H	 2.714788	 -0.329854	 1.414619
H	 3.251977	 0.848779	 -1.358681
H	 2.637085	 1.747371	 0.016682
H	 4.259473	 1.094070	 0.055697

	symmetry c1
}
set optking {
	frozen_dihedral = ("
		2 3 4 8,
		8 4 7 10,
		16 13 10 14,
		1 2 3 5
	")
}

ee = energy('scf')
oeprop('DIPOLE', 'QUADRUPOLE', 'MULLIKEN_CHARGES')
f=open( 'psi4out.xyz', 'w' )
f.write( "21  " )
f.write( str(ee) + "\n" )
f.write( MOL.save_string_xyz() )
f.close()
--------------------------------------------------------------------------

    Molecular point group: c1

    Geometry (in Angstrom), charge = 0, multiplicity = 1:

       Center              X                  Y                   Z               Mass
    ------------   -----------------  -----------------  -----------------  -----------------
           H         -3.134429781155     0.747804830052     2.536243145763     1.007825032070
           O         -2.428451781155     0.184700830052     2.252670145763    15.994914619560
           C         -1.979887781155     0.591396830052     0.985397145763    12.000000000000
           C         -0.850148781155    -0.331299169948     0.563416145763    12.000000000000
           H         -2.790248781155     0.545078830052     0.259121145763     1.007825032070
           H         -1.628001781155     1.621726830052     1.015986145763     1.007825032070
           C         -0.276970781155     0.019467830052    -0.810733854237    12.000000000000
           H         -1.223817781155    -1.351642169948     0.563912145763     1.007825032070
           H         -0.070179781155    -0.284198169948     1.318338145763     1.007825032070
           C          0.856731218845    -0.919343169948    -1.232343854237    12.000000000000
           H         -1.074972781155    -0.009036169948    -1.548671854237     1.007825032070
           H          0.094081218845     1.043532830052    -0.799289854237     1.007825032070
           C          2.248546218845    -0.502132169948    -0.744116854237    12.000000000000
           H          0.867891218845    -1.004151169948    -2.317695854237     1.007825032070
           H          0.641733218845    -1.915906169948    -0.852796854237     1.007825032070
           C          2.768802218845     0.804290830052    -1.346550854237    12.000000000000
           H          2.949149218845    -1.298687169948    -0.982325854237     1.007825032070
           H          2.239715218845    -0.421417169948     0.341043145763     1.007825032070
           H          2.776904218845     0.757215830052    -2.432256854237     1.007825032070
           H          2.162012218845     1.655807830052    -1.056893854237     1.007825032070
           H          3.784400218845     1.002506830052    -1.017878854237     1.007825032070

  Charge       = 0
  Multiplicity = 1
  Basis Set: 6-31G*
  Basis Set:

    Orbital Energies (a.u.)
    -----------------------

    Doubly Occupied:

       1A    -20.551734     2A    -11.266801     3A    -11.214698
       4A    -11.214598     5A    -11.212750     6A    -11.210312
       7A    -11.208085     8A     -1.358556     9A     -1.087135
      10A     -1.031092    11A     -0.954764    12A     -0.875184
      13A     -0.815100    14A     -0.770712    15A     -0.691065
      16A     -0.659528    17A     -0.626703    18A     -0.613132
      19A     -0.573900    20A     -0.566748    21A     -0.548955
      22A     -0.525990    23A     -0.497123    24A     -0.492006
      25A     -0.482373    26A     -0.456802    27A     -0.449626
      28A     -0.445868    29A     -0.433742

  @DF-RHF Final Energy:  -310.20941009579701

   => Energetics <=

    Nuclear Repulsion Energy =            316.3342816188949200
    One-Electron Energy =               -1047.4177123919728274
    Two-Electron Energy =                 420.8740206772811803
    DFT Exchange-Correlation Energy =       0.0000000000000000
    Empirical Dispersion Energy =           0.0000000000000000
    PCM Polarization Energy =               0.0000000000000000
    EFP Energy =                            0.0000000000000000
    Total Energy =                       -310.2094100957967271

  Mulliken Charges: (a.u.)
   Center  Symbol    Alpha    Beta     Spin     Total
       1     H     0.28123  0.28123  0.00000  0.43755
       2     O     4.37179  4.37179  0.00000 -0.74358
       3     C     2.98977  2.98977  0.00000  0.02047
       4     C     3.16063  3.16063  0.00000 -0.32127
       5     H     0.43286  0.43286  0.00000  0.13427
       6     H     0.43309  0.43309  0.00000  0.13381
       7     C     3.16390  3.16390  0.00000 -0.32781
       8     H     0.41459  0.41459  0.00000  0.17081
       9     H     0.41426  0.41426  0.00000  0.17149
      10     C     3.15497  3.15497  0.00000 -0.30993
      11     H     0.42092  0.42092  0.00000  0.15816
      12     H     0.42145  0.42145  0.00000  0.15710
      13     C     3.15428  3.15428  0.00000 -0.30857
      14     H     0.42184  0.42184  0.00000  0.15632
      15     H     0.41980  0.41980  0.00000  0.16039
      16     C     3.24075  3.24075  0.00000 -0.48151
      17     H     0.42036  0.42036  0.00000  0.15929
      18     H     0.42156  0.42156  0.00000  0.15689
      19     H     0.42213  0.42213  0.00000  0.15574
      20     H     0.42104  0.42104  0.00000  0.15791
      21     H     0.41877  0.41877  0.00000  0.16247

   Total alpha = 29.00000, Total beta = 29.00000, Total charge = -0.00000
