  ==> Input File <==

--------------------------------------------------------------------------
set {
	reference rhf
	basis 6-31G*
}

set_num_threads( 4 )
memory 2 gb

molecule MOL {
0 1

H	 2.652209	 0.763231	 0.000000
O	 2.263154	 -0.100023	 0.000000
C	 0.912879	 -0.015685	 0.000000
C	 0.248297	 -0.396607	 1.158365
C	 0.196020	 0.429711	 -1.098554
H	 0.822977	 -0.738990	 1.998797
C	 -1.130463	 -0.328133	 1.206745
H	 0.712270	 0.725027	 -1.996772
C	 -1.188378	 0.493409	 -1.036114
H	 -1.640473	 -0.624263	 2.106124
C	 -1.860305	 0.116672	 0.112033
H	 -1.737400	 0.840330	 -1.893384
H	 -2.932768	 0.167215	 0.157122

	symmetry c1
}
set optking {
	frozen_dihedral = ("
		4 3 2 1
	")
}

ee = optimize('scf')
oeprop('DIPOLE', 'QUADRUPOLE', 'MULLIKEN_CHARGES')
f=open( 'psi4out.xyz', 'w' )
f.write( "13  " )
f.write( str(ee) + "\n" )
f.write( MOL.save_string_xyz() )
f.close()
--------------------------------------------------------------------------

    Molecular point group: c1
  Charge       = 0
  Multiplicity = 1
  Basis Set: 6-31G*
  Basis Set:
  @DF-RHF Final Energy:  -305.55325134244350
    Total Energy =                       -305.5532513424432182
    Molecular point group: c1
  Basis Set: 6-31G*
  Basis Set:
  Basis Set: 6-31G*
  Basis Set:
  @DF-RHF Final Energy:  -305.55375784433289
    Total Energy =                       -305.5537578443327220
  Basis Set: 6-31G*
  Basis Set:
  Basis Set: 6-31G*
  Basis Set:
  @DF-RHF Final Energy:  -305.55380635143320
    Total Energy =                       -305.5538063514330815
  Basis Set: 6-31G*
  Basis Set:
  Basis Set: 6-31G*
  Basis Set:
  @DF-RHF Final Energy:  -305.55381113327269
    Total Energy =                       -305.5538111332726317
  Basis Set: 6-31G*
  Basis Set:
  Charge       = 0
  Multiplicity = 1
  Basis Set: 6-31G*
  Basis Set:

    Orbital Energies (a.u.)
    -----------------------

    Doubly Occupied:

       1A    -20.577545     2A    -11.289421     3A    -11.235090
       4A    -11.234307     5A    -11.227557     6A    -11.227305
       7A    -11.225587     8A     -1.392686     9A     -1.147558
      10A     -1.018013    11A     -1.003534    12A     -0.836150
      13A     -0.823052    14A     -0.732246    15A     -0.680191
      16A     -0.645504    17A     -0.626678    18A     -0.591457
      19A     -0.588554    20A     -0.523597    21A     -0.513613
      22A     -0.491916    23A     -0.467500    24A     -0.336697
      25A     -0.322719

  @DF-RHF Final Energy:  -305.55381202918221

   => Energetics <=

    Nuclear Repulsion Energy =            272.6718274376368640
    One-Electron Energy =                -954.9343266772001471
    Two-Electron Energy =                 376.7086872103810720
    DFT Exchange-Correlation Energy =       0.0000000000000000
    Empirical Dispersion Energy =           0.0000000000000000
    PCM Polarization Energy =               0.0000000000000000
    EFP Energy =                            0.0000000000000000
    Total Energy =                       -305.5538120291822679
    Molecular point group: c1
  Basis Set: 6-31G*
  Basis Set:

  -Total Gradient:
     Atom            X                  Y                   Z
    ------   -----------------  -----------------  -----------------
       1        0.000059009000    -0.000001267611     0.001362475204
       2        0.000132598884     0.000465146125    -0.001481829946
       3       -0.000332483205    -0.001360231959    -0.000386983856
       4        0.000082613770     0.000897561718     0.000450408365
       5        0.000142935848     0.000007990663     0.000040532344
       6       -0.000017690142    -0.000000383665    -0.000024477336
       7        0.000051694997     0.000028497461     0.000028623933
       8        0.000019974661    -0.000010275644    -0.000008612227
       9       -0.000106771469    -0.000010996791     0.000074793911
      10       -0.000032839294    -0.000000270939    -0.000010880386
      11       -0.000003778697     0.000001916776    -0.000088829030
      12        0.000010253423    -0.000009275869     0.000011789969
      13       -0.000005517782    -0.000008410265     0.000032989054

  **** Optimization is complete! (in 5 steps) ****
    Final optimized geometry and variables:
    Molecular point group: c1

    Geometry (in Angstrom), charge = 0, multiplicity = 1:

    H            2.657667564119     0.730422526346    -0.076100419573
    O            2.271958334665    -0.135215925396    -0.076142448198
    C            0.906012080166    -0.043587883376    -0.033915337099
    C            0.241161368490    -0.426702586567     1.118541608522
    C            0.195221444437     0.399612074076    -1.137338745478
    H            0.812969266303    -0.771513561855     1.960212422948
    C           -1.142361197825    -0.368309177821     1.163213521019
    H            0.726389030274     0.679527673161    -2.029514102247
    C           -1.187649122052     0.463711418599    -1.082008486718
    H           -1.657848273540    -0.669586617105     2.057700895628
    C           -1.861524638072     0.079655419420     0.066436906670
    H           -1.737732126396     0.808003519471    -1.939572661697
    H           -2.934850303323     0.126295301283     0.105400873465

  Mulliken Charges: (a.u.)
   Center  Symbol    Alpha    Beta     Spin     Total
       1     H     0.27152  0.27152  0.00000  0.45696
       2     O     4.38765  4.38765  0.00000 -0.77529
       3     C     2.81689  2.81689  0.00000  0.36622
       4     C     3.11725  3.11725  0.00000 -0.23450
       5     C     3.12284  3.12284  0.00000 -0.24568
       6     H     0.39291  0.39291  0.00000  0.21418
       7     C     3.09650  3.09650  0.00000 -0.19301
       8     H     0.39650  0.39650  0.00000  0.20701
       9     C     3.09623  3.09623  0.00000 -0.19245
      10     H     0.39800  0.39800  0.00000  0.20401
      11     C     3.10600  3.10600  0.00000 -0.21200
      12     H     0.39813  0.39813  0.00000  0.20374
      13     H     0.39959  0.39959  0.00000  0.20082

   Total alpha = 25.00000, Total beta = 25.00000, Total charge = -0.00000
