                              Psi4 1.0.54 Driver

  ==> Input File <==

--------------------------------------------------------------------------
set {
	reference rhf
	basis cc-pvtz
}

set_num_threads( 4 )
memory 2 gb

molecule MOL {
0 1

H	 1.651322	 -0.822465	 0.000000
O	 0.729993	 -1.034364	 0.000000
C	 0.037305	 0.100061	 0.000000
C	 -1.423941	 -0.133557	 -0.241371
O	 0.546391	 1.152481	 0.173320
H	 -1.558061	 -0.628527	 -1.194515
H	 -1.946377	 0.808633	 -0.233414
H	 -1.817121	 -0.786711	 0.526919

	symmetry c1
}
set optking {
	frozen_dihedral = ("
		4 3 2 1
	")
}

ee,wfn = optimize('scf', return_wfn=True)
oeprop( wfn, 'DIPOLE', 'QUADRUPOLE', 'MULLIKEN_CHARGES')
f=open( 'psi4out.xyz', 'w' )
f.write( "8  " )
f.write( str(ee) + "\n" )
f.write( MOL.save_string_xyz() )
f.close()
--------------------------------------------------------------------------

    Molecular point group: c1
  Charge       = 0
  Multiplicity = 1
  Basis Set: CC-PVTZ
  Basis Set:
  @DF-RHF Final Energy:  -227.90409437340168
    Total Energy =                       -227.9040943734017333
    Molecular point group: c1
  Basis Set: CC-PVTZ
  Basis Set:
  Basis Set: CC-PVTZ
  Basis Set:
  @DF-RHF Final Energy:  -227.90326558932787
    Total Energy =                       -227.9032655893278729
  Basis Set: CC-PVTZ
  Basis Set:
  Basis Set: CC-PVTZ
  Basis Set:
  @DF-RHF Final Energy:  -227.90414700805050
    Total Energy =                       -227.9041470080504439
  Basis Set: CC-PVTZ
  Basis Set:
  Basis Set: CC-PVTZ
  Basis Set:
  @DF-RHF Final Energy:  -227.90416193992945
    Total Energy =                       -227.9041619399294802
  Basis Set: CC-PVTZ
  Basis Set:
  Basis Set: CC-PVTZ
  Basis Set:
  @DF-RHF Final Energy:  -227.90418246102502
    Total Energy =                       -227.9041824610250160
  Basis Set: CC-PVTZ
  Basis Set:
  Basis Set: CC-PVTZ
  Basis Set:
  @DF-RHF Final Energy:  -227.90418815289209
    Total Energy =                       -227.9041881528921749
  Basis Set: CC-PVTZ
  Basis Set:
  Charge       = 0
  Multiplicity = 1
  Basis Set: CC-PVTZ
  Basis Set:

    Orbital Energies (a.u.)
    -----------------------

    Doubly Occupied:

       1A    -20.606666     2A    -20.542430     3A    -11.378455
       4A    -11.239347     5A     -1.479967     6A     -1.371771
       7A     -1.028395     8A     -0.834664     9A     -0.707059
      10A     -0.686178    11A     -0.657785    12A     -0.584745
      13A     -0.574554    14A     -0.562390    15A     -0.486105
      16A     -0.452451

  @DF-RHF Final Energy:  -227.90418857598192

   => Energetics <=

    Nuclear Repulsion Energy =            122.7830845155333179
    One-Electron Energy =                -554.9886253713369797
    Two-Electron Energy =                 204.3013522798217423
    DFT Exchange-Correlation Energy =       0.0000000000000000
    Empirical Dispersion Energy =           0.0000000000000000
    PCM Polarization Energy =               0.0000000000000000
    EFP Energy =                            0.0000000000000000
    Total Energy =                       -227.9041885759818911
    Molecular point group: c1
  Basis Set: CC-PVTZ
  Basis Set:

  -Total Gradient:
     Atom            X                  Y                   Z
    ------   -----------------  -----------------  -----------------
       1       -0.000011040404    -0.000206168269    -0.003520607245
       2        0.000158662195     0.000281002644     0.003365243712
       3       -0.000463916645    -0.000090556669     0.002403864490
       4        0.000324034154     0.000096944359    -0.002246849174
       5       -0.000011906579    -0.000057344262    -0.000000972967
       6        0.000003367154    -0.000007463969     0.000002833051
       7       -0.000002578103    -0.000012438288    -0.000000147465
       8        0.000003378229    -0.000003975549    -0.000003364401

  **** Optimization is complete! (in 7 steps) ****
    Final optimized geometry and variables:
    Molecular point group: c1

    Geometry (in Angstrom), charge = 0, multiplicity = 1:

    H            1.643892816108    -0.834368444459     0.070006457550
    O            0.720863644068    -1.038308675023     0.083518800624
    C            0.035475532944     0.099725100897     0.020559500133
    C           -1.428039839756    -0.136593954728    -0.204687417550
    O            0.556234779274     1.157242281032     0.101048337118
    H           -1.561921649217    -0.564768610537    -1.190317330132
    H           -1.961211090566     0.797098672971    -0.134053831404
    H           -1.808214190023    -0.846533127005     0.517529859511

  Mulliken Charges: (a.u.)
   Center  Symbol    Alpha    Beta     Spin     Total
       1     H     0.38025  0.38025  0.00000  0.23950
       2     O     4.16169  4.16169  0.00000 -0.32337
       3     C     2.80263  2.80263  0.00000  0.39474
       4     C     3.13944  3.13944  0.00000 -0.27888
       5     O     4.19045  4.19045  0.00000 -0.38091
       6     H     0.44444  0.44444  0.00000  0.11111
       7     H     0.43732  0.43732  0.00000  0.12536
       8     H     0.44378  0.44378  0.00000  0.11244

   Total alpha = 16.00000, Total beta = 16.00000, Total charge = -0.00000

*** Psi4 exiting successfully. Buy a developer a beer!
