  ==> Input File <==

--------------------------------------------------------------------------
set {
	reference rhf
	basis 6-31G*
}

set_num_threads( 4 )
memory 2 gb

molecule MOL {
0 1

H	 2.328706	 -0.995923	 -0.137458
O	 2.064459	 -0.086912	 -0.111827
C	 0.745630	 0.005118	 0.354752
H	 0.739005	 0.037656	 1.444976
C	 -0.064159	 -1.194875	 -0.122754
C	 -0.046302	 1.193543	 -0.190431
H	 0.197384	 -1.376065	 -1.160690
H	 0.162855	 -2.097978	 0.431858
C	 -1.535782	 -0.752177	 0.006642
H	 0.154512	 1.271315	 -1.255561
H	 0.226209	 2.140461	 0.267302
C	 -1.509193	 0.801505	 0.065617
H	 -2.127797	 -1.112194	 -0.826847
H	 -1.986849	 -1.158408	 0.905561
H	 -2.183670	 1.254107	 -0.651985
H	 -1.821727	 1.144320	 1.047089

	symmetry c1
}
set optking {
	frozen_dihedral = ("
		1 2 3 6
	")
}

ee = optimize('scf')
oeprop('DIPOLE', 'QUADRUPOLE', 'MULLIKEN_CHARGES')
f=open( 'psi4out.xyz', 'w' )
f.write( "16  " )
f.write( str(ee) + "\n" )
f.write( MOL.save_string_xyz() )
f.close()
--------------------------------------------------------------------------

    Molecular point group: c1
  Charge       = 0
  Multiplicity = 1
  Basis Set: 6-31G*
  Basis Set:
  @DF-RHF Final Energy:  -270.01156749756092
    Total Energy =                       -270.0115674975609181
    Molecular point group: c1
  Basis Set: 6-31G*
  Basis Set:
  Basis Set: 6-31G*
  Basis Set:
  @DF-RHF Final Energy:  -270.01303713876848
    Total Energy =                       -270.0130371387684818
  Basis Set: 6-31G*
  Basis Set:
  Basis Set: 6-31G*
  Basis Set:
  @DF-RHF Final Energy:  -270.01321217115651
    Total Energy =                       -270.0132121711565674
  Basis Set: 6-31G*
  Basis Set:
  Basis Set: 6-31G*
  Basis Set:
  @DF-RHF Final Energy:  -270.01321899907691
    Total Energy =                       -270.0132189990766847
  Basis Set: 6-31G*
  Basis Set:
  @DF-RHF Final Energy:  -270.01322122195245
    Total Energy =                       -270.0132212219526195
  Basis Set: 6-31G*
  Basis Set:
  @DF-RHF Final Energy:  -270.01322535609893
    Total Energy =                       -270.0132253560990421
  Basis Set: 6-31G*
  Basis Set:
  Basis Set: 6-31G*
  Basis Set:
  @DF-RHF Final Energy:  -270.01322923883390
    Total Energy =                       -270.0132292388337873
  Basis Set: 6-31G*
  Basis Set:
  Basis Set: 6-31G*
  Basis Set:
  @DF-RHF Final Energy:  -270.01323027048846
    Total Energy =                       -270.0132302704884069
  Basis Set: 6-31G*
  Basis Set:
  Charge       = 0
  Multiplicity = 1
  Basis Set: 6-31G*
  Basis Set:

    Orbital Energies (a.u.)
    -----------------------

    Doubly Occupied:

       1A    -20.550693     2A    -11.268169     3A    -11.219418
       4A    -11.217197     5A    -11.216195     6A    -11.208178
       7A     -1.359947     8A     -1.114859     9A     -0.967878
      10A     -0.948520    11A     -0.793692    12A     -0.779632
      13A     -0.689018    14A     -0.662494    15A     -0.615465
      16A     -0.595377    17A     -0.572145    18A     -0.525699
      19A     -0.500754    20A     -0.483975    21A     -0.471998
      22A     -0.458148    23A     -0.443530    24A     -0.423734

  @DF-RHF Final Energy:  -270.01323084342198

   => Energetics <=

    Nuclear Repulsion Energy =            255.2526501193599415
    One-Electron Energy =                -872.3583355040935885
    Two-Electron Energy =                 347.0924545413117812
    DFT Exchange-Correlation Energy =       0.0000000000000000
    Empirical Dispersion Energy =           0.0000000000000000
    PCM Polarization Energy =               0.0000000000000000
    EFP Energy =                            0.0000000000000000
    Total Energy =                       -270.0132308434218658
    Molecular point group: c1
  Basis Set: 6-31G*
  Basis Set:

  -Total Gradient:
     Atom            X                  Y                   Z
    ------   -----------------  -----------------  -----------------
       1       -0.000678540201    -0.000086171456    -0.002057116942
       2        0.000694087857    -0.000169449859     0.002115542203
       3        0.000328419067     0.000970625221     0.001015355789
       4        0.000002909842     0.000011607751     0.000000545850
       5       -0.000002994633    -0.000006351479     0.000001891741
       6       -0.000355108278    -0.000715711222    -0.001077505511
       7        0.000002395492    -0.000007616295    -0.000000744987
       8       -0.000000087662     0.000002592187     0.000005103227
       9        0.000001602598    -0.000007124405     0.000009129183
      10        0.000000185076    -0.000006031671    -0.000001376884
      11       -0.000000693578     0.000004147005    -0.000006828838
      12        0.000004266790     0.000005548317    -0.000006300030
      13        0.000011637993     0.000003270773    -0.000006274496
      14       -0.000011526604    -0.000004514333    -0.000007041602
      15       -0.000006605066     0.000008964536     0.000010454405
      16        0.000010051303    -0.000003785070     0.000005166891

  **** Optimization is complete! (in 9 steps) ****
    Final optimized geometry and variables:
    Molecular point group: c1

    Geometry (in Angstrom), charge = 0, multiplicity = 1:

    H            2.400377884005    -0.883164656900    -0.150880231906
    O            2.076197377349     0.003220637880    -0.080673783914
    C            0.744058219098    -0.010376310673     0.359914386554
    H            0.721941879369     0.008076363704     1.449518271025
    C           -0.083961500939    -1.194860079158    -0.141947044746
    C           -0.025243737468     1.186821872030    -0.185208636601
    H            0.149251044836    -1.347663452227    -1.193072414287
    H            0.133761786761    -2.121471968994     0.381823203814
    C           -1.545696290432    -0.738873745772     0.027775163814
    H            0.195351851447     1.269450175843    -1.245303009804
    H            0.260669719013     2.121805376223     0.283254956310
    C           -1.499103772059     0.815665545790     0.045740570172
    H           -2.173009183882    -1.119055481999    -0.770040945887
    H           -1.959703097722    -1.117171625258     0.956252515079
    H           -2.147873499593     1.253953125314    -0.703718816334
    H           -1.836700382330     1.189039985592     1.007126425287

  Mulliken Charges: (a.u.)
   Center  Symbol    Alpha    Beta     Spin     Total
       1     H     0.28056  0.28056  0.00000  0.43889
       2     O     4.38044  4.38044  0.00000 -0.76088
       3     C     2.89897  2.89897  0.00000  0.20206
       4     H     0.42892  0.42892  0.00000  0.14216
       5     C     3.18695  3.18695  0.00000 -0.37389
       6     C     3.16523  3.16523  0.00000 -0.33047
       7     H     0.41632  0.41632  0.00000  0.16737
       8     H     0.41778  0.41778  0.00000  0.16444
       9     C     3.16676  3.16676  0.00000 -0.33353
      10     H     0.41433  0.41433  0.00000  0.17134
      11     H     0.41221  0.41221  0.00000  0.17558
      12     C     3.17044  3.17044  0.00000 -0.34088
      13     H     0.41397  0.41397  0.00000  0.17207
      14     H     0.41621  0.41621  0.00000  0.16758
      15     H     0.41408  0.41408  0.00000  0.17185
      16     H     0.41684  0.41684  0.00000  0.16631

   Total alpha = 24.00000, Total beta = 24.00000, Total charge = -0.00000
