  ==> Input File <==

--------------------------------------------------------------------------
set {
	reference rhf
	basis 6-31G*
}

set_num_threads( 4 )
memory 2 gb

molecule MOL {
0 1

H	 -2.698709	 -0.000305	 0.034435
C	 -1.693833	 0.000034	 0.434417
O	 -0.828952	 -0.000968	 -0.659236
H	 -1.574200	 0.882896	 1.055746
H	 -1.574147	 -0.881698	 1.057355
C	 0.559449	 -0.000018	 -0.420814
C	 0.995616	 1.143816	 0.492597
C	 1.071571	 -1.355734	 0.061601
H	 0.977960	 0.182144	 -1.403513
H	 0.573079	 2.081798	 0.148794
H	 2.077292	 1.233992	 0.483633
H	 0.690102	 0.986895	 1.522258
H	 0.701031	 -2.147854	 -0.580040
H	 2.156614	 -1.374049	 0.033148
H	 0.768608	 -1.570349	 1.081402

	symmetry c1
}
set optking {
	frozen_dihedral = ("
		9 6 3 2
	")
}

ee = optimize('scf')
oeprop('DIPOLE', 'QUADRUPOLE', 'MULLIKEN_CHARGES')
f=open( 'psi4out.xyz', 'w' )
f.write( "15  " )
f.write( str(ee) + "\n" )
f.write( MOL.save_string_xyz() )
f.close()
--------------------------------------------------------------------------

    Molecular point group: c1
  Charge       = 0
  Multiplicity = 1
  Basis Set: 6-31G*
  Basis Set:
  @DF-RHF Final Energy:  -232.13746848423912
    Total Energy =                       -232.1374684842389797
    Molecular point group: c1
  Basis Set: 6-31G*
  Basis Set:
  Basis Set: 6-31G*
  Basis Set:
  @DF-RHF Final Energy:  -232.13758894793631
    Total Energy =                       -232.1375889479362513
  Basis Set: 6-31G*
  Basis Set:
  Basis Set: 6-31G*
  Basis Set:
  @DF-RHF Final Energy:  -232.13764497110995
    Total Energy =                       -232.1376449711100349
  Basis Set: 6-31G*
  Basis Set:
  Basis Set: 6-31G*
  Basis Set:
  @DF-RHF Final Energy:  -232.13764709343860
    Total Energy =                       -232.1376470934386020
  Basis Set: 6-31G*
  Basis Set:
  Basis Set: 6-31G*
  Basis Set:
  @DF-RHF Final Energy:  -232.13765109646624
    Total Energy =                       -232.1376510964662430
  Basis Set: 6-31G*
  Basis Set:
  Charge       = 0
  Multiplicity = 1
  Basis Set: 6-31G*
  Basis Set:

    Orbital Energies (a.u.)
    -----------------------

    Doubly Occupied:

       1A    -20.548257     2A    -11.274315     3A    -11.261218
       4A    -11.211896     5A    -11.209247     6A     -1.370363
       7A     -1.050509     8A     -0.940739     9A     -0.930081
      10A     -0.781248    11A     -0.674479    12A     -0.640757
      13A     -0.633192    14A     -0.573386    15A     -0.563675
      16A     -0.552706    17A     -0.534220    18A     -0.499185
      19A     -0.496037    20A     -0.443388    21A     -0.406044

  @DF-RHF Final Energy:  -232.13765122306350

   => Energetics <=

    Nuclear Repulsion Energy =            198.8063962303719165
    One-Electron Energy =                -708.6982126384060621
    Two-Electron Energy =                 277.7541651849707591
    DFT Exchange-Correlation Energy =       0.0000000000000000
    Empirical Dispersion Energy =           0.0000000000000000
    PCM Polarization Energy =               0.0000000000000000
    EFP Energy =                            0.0000000000000000
    Total Energy =                       -232.1376512230634148
    Molecular point group: c1
  Basis Set: 6-31G*
  Basis Set:

  -Total Gradient:
     Atom            X                  Y                   Z
    ------   -----------------  -----------------  -----------------
       1        0.000001187441    -0.000000937752    -0.000001949992
       2        0.000009668446     0.000714838046     0.000001377158
       3        0.000029383041    -0.000918098261     0.000043915103
       4        0.000004715374     0.000010125106     0.000005353754
       5        0.000002634794    -0.000000786416    -0.000002626039
       6        0.000050789491    -0.000607777742    -0.000217224743
       7       -0.000026511905    -0.000012523223     0.000008508726
       8       -0.000020356181     0.000002550333     0.000015921233
       9       -0.000022579710     0.000819218919     0.000139202407
      10       -0.000010906549    -0.000001692280     0.000008811974
      11       -0.000000510421    -0.000003597342    -0.000007185632
      12       -0.000001025350     0.000000372395    -0.000001189441
      13       -0.000003140995    -0.000002627192    -0.000002740559
      14       -0.000016469883     0.000009481231    -0.000004951566
      15        0.000003122410    -0.000008545823     0.000014777616

  **** Optimization is complete! (in 6 steps) ****
    Final optimized geometry and variables:
    Molecular point group: c1

    Geometry (in Angstrom), charge = 0, multiplicity = 1:

    H           -2.693134800977    -0.072560792982     0.047722350249
    C           -1.691960851941     0.040328957685     0.441232319688
    O           -0.829800975647     0.047634412055    -0.654573904686
    H           -1.647889831229     0.968283597520     1.003687145215
    H           -1.496947814255    -0.785722151099     1.119653091397
    C            0.559311953982     0.048832568120    -0.418233558354
    C            1.009323816684     1.181991919578     0.501858266073
    C            1.053811587382    -1.315817698790     0.055963918704
    H            0.979171400029     0.237857778487    -1.399108487215
    H            0.598177309630     2.128751776560     0.167870946568
    H            2.091871798473     1.259139009944     0.487424079812
    H            0.707107538163     1.020484489583     1.531763027235
    H            0.699081528429    -2.093659760677    -0.611004484266
    H            2.139237315312    -1.340658762803     0.064103780077
    H            0.713725790951    -1.546098257676     1.060715929625

  Mulliken Charges: (a.u.)
   Center  Symbol    Alpha    Beta     Spin     Total
       1     H     0.41255  0.41255  0.00000  0.17490
       2     C     3.08156  3.08156  0.00000 -0.16312
       3     O     4.31219  4.31219  0.00000 -0.62439
       4     H     0.42804  0.42804  0.00000  0.14392
       5     H     0.43074  0.43074  0.00000  0.13853
       6     C     2.90880  2.90880  0.00000  0.18240
       7     C     3.25679  3.25679  0.00000 -0.51359
       8     C     3.24932  3.24932  0.00000 -0.49864
       9     H     0.41543  0.41543  0.00000  0.16913
      10     H     0.41174  0.41174  0.00000  0.17651
      11     H     0.41789  0.41789  0.00000  0.16421
      12     H     0.42069  0.42069  0.00000  0.15862
      13     H     0.41132  0.41132  0.00000  0.17736
      14     H     0.42099  0.42099  0.00000  0.15802
      15     H     0.42193  0.42193  0.00000  0.15614

   Total alpha = 21.00000, Total beta = 21.00000, Total charge =  0.00000
