  ==> Input File <==

--------------------------------------------------------------------------
set {
	reference rhf
	basis 6-31G*
}

set_num_threads( 4 )
memory 2 gb

molecule MOL {
0 1

H	 1.359120	 0.200863	 -1.909744
C	 1.154006	 1.018825	 -1.208555
C	 0.692068	 0.589600	 0.160137
O	 1.300212	 2.147797	 -1.549400
C	 -0.558097	 -0.297372	 0.091132
H	 0.513494	 1.479067	 0.752960
H	 1.504464	 0.032212	 0.625071
C	 -1.850991	 0.512573	 -0.019058
H	 -0.476753	 -0.965681	 -0.762987
H	 -0.604799	 -0.930658	 0.975228
C	 -3.096943	 -0.368295	 -0.099594
H	 -1.800724	 1.150330	 -0.898172
H	 -1.931651	 1.177355	 0.838044
H	 -3.060452	 -1.020287	 -0.967456
H	 -3.996858	 0.233488	 -0.175704
H	 -3.191959	 -0.995686	 0.782074

	symmetry c1
}
set optking {
	frozen_dihedral = ("
		6 3 5 9
	")
}

ee = optimize('scf')
oeprop('DIPOLE', 'QUADRUPOLE', 'MULLIKEN_CHARGES')
f=open( 'psi4out.xyz', 'w' )
f.write( "16  " )
f.write( str(ee) + "\n" )
f.write( MOL.save_string_xyz() )
f.close()
--------------------------------------------------------------------------

    Molecular point group: c1
  Charge       = 0
  Multiplicity = 1
  Basis Set: 6-31G*
  Basis Set:
  @DF-RHF Final Energy:  -270.01844971386970
    Total Energy =                       -270.0184497138695860
    Molecular point group: c1
  Basis Set: 6-31G*
  Basis Set:
  Basis Set: 6-31G*
  Basis Set:
  @DF-RHF Final Energy:  -270.01849995983423
    Total Energy =                       -270.0184999598342301
  Basis Set: 6-31G*
  Basis Set:
  Basis Set: 6-31G*
  Basis Set:
  @DF-RHF Final Energy:  -270.01833392555568
    Total Energy =                       -270.0183339255557371
  Basis Set: 6-31G*
  Basis Set:
  Basis Set: 6-31G*
  Basis Set:
  @DF-RHF Final Energy:  -270.01857977163911
    Total Energy =                       -270.0185797716392244
  Basis Set: 6-31G*
  Basis Set:
  Basis Set: 6-31G*
  Basis Set:
  @DF-RHF Final Energy:  -270.01858702804208
    Total Energy =                       -270.0185870280420204
  Basis Set: 6-31G*
  Basis Set:
  Basis Set: 6-31G*
  Basis Set:
  @DF-RHF Final Energy:  -270.01859004920874
    Total Energy =                       -270.0185900492084556
  Basis Set: 6-31G*
  Basis Set:
  Basis Set: 6-31G*
  Basis Set:
  @DF-RHF Final Energy:  -270.01859113672737
    Total Energy =                       -270.0185911367272524
  Basis Set: 6-31G*
  Basis Set:
  Charge       = 0
  Multiplicity = 1
  Basis Set: 6-31G*
  Basis Set:

    Orbital Energies (a.u.)
    -----------------------

    Doubly Occupied:

       1A    -20.563151     2A    -11.326791     3A    -11.236306
       4A    -11.235272     5A    -11.225948     6A    -11.216591
       7A     -1.403009     8A     -1.095284     9A     -1.016399
      10A     -0.904441    11A     -0.816114    12A     -0.791315
      13A     -0.667906    14A     -0.656261    15A     -0.612749
      16A     -0.609401    17A     -0.589925    18A     -0.542201
      19A     -0.526190    20A     -0.522694    21A     -0.486528
      22A     -0.480645    23A     -0.466525    24A     -0.410491

  @DF-RHF Final Energy:  -270.01859127772173

   => Energetics <=

    Nuclear Repulsion Energy =            233.0329211255243536
    One-Electron Energy =                -827.2987490412648413
    Two-Electron Energy =                 324.2472366380188191
    DFT Exchange-Correlation Energy =       0.0000000000000000
    Empirical Dispersion Energy =           0.0000000000000000
    PCM Polarization Energy =               0.0000000000000000
    EFP Energy =                            0.0000000000000000
    Total Energy =                       -270.0185912777216686
    Molecular point group: c1
  Basis Set: 6-31G*
  Basis Set:

  -Total Gradient:
     Atom            X                  Y                   Z
    ------   -----------------  -----------------  -----------------
       1       -0.000011025403     0.000000493270     0.000000393101
       2        0.000020895775     0.000022010050     0.000000511893
       3        0.000771651944    -0.001335416608     0.002632066690
       4        0.000006449385    -0.000011827921     0.000007688782
       5        0.001394335396    -0.002046137667     0.001455297186
       6       -0.000881047914     0.001414081432    -0.002417434138
       7        0.000017706209     0.000012450002    -0.000003201495
       8       -0.000004859984    -0.000012447117    -0.000005612367
       9       -0.001305939938     0.001955293773    -0.001666511355
      10       -0.000004451857    -0.000005087456     0.000001285902
      11       -0.000003106822     0.000005826309     0.000000213014
      12       -0.000003564190     0.000003706267    -0.000004340018
      13        0.000003006811    -0.000002873627    -0.000001453186
      14        0.000001416299     0.000000792312     0.000000411969
      15       -0.000002109092    -0.000001490933     0.000000076114
      16        0.000000643374     0.000000627908     0.000000607912

  **** Optimization is complete! (in 8 steps) ****
    Final optimized geometry and variables:
    Molecular point group: c1

    Geometry (in Angstrom), charge = 0, multiplicity = 1:

    H            1.749947159841    -0.403096417720    -1.469822058417
    C            1.547070717906     0.413147069473    -0.765517758816
    C            1.116427509894    -0.024186569020     0.612806534293
    O            1.668449872783     1.543514199400    -1.110965543072
    C           -0.143099396354    -0.906241092530     0.561224707514
    H            0.949052979540     0.872270110503     1.198224699603
    H            1.942899115175    -0.579083582162     1.052025946705
    C           -1.433751102146    -0.091721812155     0.431731822484
    H           -0.075403686873    -1.585408567932    -0.287404361319
    H           -0.191116740626    -1.523766217868     1.452606298729
    C           -2.679086669923    -0.970789505148     0.329455217243
    H           -1.372201359284     0.553329392095    -0.441695726769
    H           -1.525226684469     0.568791869503     1.290408945269
    H           -2.634835183013    -1.615916237656    -0.543453870108
    H           -3.577571457105    -0.367609529212     0.248927982660
    H           -2.784156733248    -1.605889643812     1.204587784801

  Mulliken Charges: (a.u.)
   Center  Symbol    Alpha    Beta     Spin     Total
       1     H     0.43209  0.43209  0.00000  0.13583
       2     C     2.83246  2.83246  0.00000  0.33508
       3     C     3.20825  3.20825  0.00000 -0.41650
       4     O     4.23656  4.23656  0.00000 -0.47312
       5     C     3.16675  3.16675  0.00000 -0.33350
       6     H     0.39905  0.39905  0.00000  0.20190
       7     H     0.40674  0.40674  0.00000  0.18652
       8     C     3.15396  3.15396  0.00000 -0.30791
       9     H     0.41956  0.41956  0.00000  0.16088
      10     H     0.41281  0.41281  0.00000  0.17437
      11     C     3.24051  3.24051  0.00000 -0.48102
      12     H     0.41545  0.41545  0.00000  0.16910
      13     H     0.41832  0.41832  0.00000  0.16336
      14     H     0.42085  0.42085  0.00000  0.15831
      15     H     0.41576  0.41576  0.00000  0.16849
      16     H     0.42089  0.42089  0.00000  0.15822

   Total alpha = 24.00000, Total beta = 24.00000, Total charge =  0.00000
