  ==> Input File <==

--------------------------------------------------------------------------
set {
	reference rhf
	basis cc-pvtz
}

set_num_threads( 4 )
memory 2 gb

molecule MOL {
0 1

H	 -2.816458	 -0.841657	 -0.064679
N	 -1.878861	 -0.711874	 0.250184
C	 -1.341419	 0.551458	 -0.220231
H	 -1.333674	 -1.468530	 -0.105118
C	 0.138975	 0.639303	 0.071937
H	 -1.491488	 0.716058	 -1.286500
H	 -1.839190	 1.358163	 0.306554
O	 0.802939	 -0.339094	 -0.669412
H	 0.510445	 1.627562	 -0.195506
H	 0.311409	 0.486433	 1.134870
C	 2.170556	 -0.408824	 -0.437069
H	 2.574468	 -1.191994	 -1.062277
H	 2.664732	 0.527546	 -0.687460
H	 2.386009	 -0.644004	 0.602562

	symmetry c1
}
set optking {
	frozen_dihedral = ("
		6 3 2 4
	")
}

ee = optimize('scf')
oeprop('DIPOLE', 'QUADRUPOLE', 'MULLIKEN_CHARGES')
f=open( 'psi4out.xyz', 'w' )
f.write( "14  " )
f.write( str(ee) + "\n" )
f.write( MOL.save_string_xyz() )
f.close()
--------------------------------------------------------------------------

    Molecular point group: c1
  Charge       = 0
  Multiplicity = 1
  Basis Set: CC-PVTZ
  Basis Set:
  @DF-RHF Final Energy:  -248.22596362351811
    Total Energy =                       -248.2259636235181119
    Molecular point group: c1
  Basis Set: CC-PVTZ
  Basis Set:
  Basis Set: CC-PVTZ
  Basis Set:
  @DF-RHF Final Energy:  -248.22598690910669
    Total Energy =                       -248.2259869091067799
  Basis Set: CC-PVTZ
  Basis Set:
  Charge       = 0
  Multiplicity = 1
  Basis Set: CC-PVTZ
  Basis Set:

    Orbital Energies (a.u.)
    -----------------------

    Doubly Occupied:

       1A    -20.552045     2A    -15.522506     3A    -11.265379
       4A    -11.264635     5A    -11.239763     6A     -1.385862
       7A     -1.175413     8A     -1.001027     9A     -0.908689
      10A     -0.816611    11A     -0.687078    12A     -0.675265
      13A     -0.649224    14A     -0.613957    15A     -0.604366
      16A     -0.544556    17A     -0.531627    18A     -0.498555
      19A     -0.474588    20A     -0.421414    21A     -0.382607

  @DF-RHF Final Energy:  -248.22598855907702

   => Energetics <=

    Nuclear Repulsion Energy =            194.7686632219599971
    One-Electron Energy =                -723.5589704301489746
    Two-Electron Energy =                 280.5643186491119536
    DFT Exchange-Correlation Energy =       0.0000000000000000
    Empirical Dispersion Energy =           0.0000000000000000
    PCM Polarization Energy =               0.0000000000000000
    EFP Energy =                            0.0000000000000000
    Total Energy =                       -248.2259885590770523
    Molecular point group: c1
  Basis Set: CC-PVTZ
  Basis Set:

  -Total Gradient:
     Atom            X                  Y                   Z
    ------   -----------------  -----------------  -----------------
       1       -0.000012852467     0.000033084897    -0.000024571755
       2       -0.001498548364     0.000048564309    -0.001321708799
       3        0.001906640375    -0.000659698012    -0.000232985190
       4        0.000968063516     0.000009750112     0.001198248287
       5       -0.000053654811    -0.000050606225     0.000081488249
       6       -0.001286131029     0.000647732924     0.000338094886
       7        0.000022439149     0.000013698861    -0.000018155931
       8        0.000038422397    -0.000059624922    -0.000052087601
       9       -0.000071326582    -0.000028455477     0.000007141238
      10        0.000007433693     0.000030082840     0.000030657235
      11       -0.000013621468     0.000011991696    -0.000008995133
      12       -0.000007168668     0.000002223417    -0.000002492479
      13        0.000004936323     0.000000157698     0.000000612008
      14       -0.000004632064     0.000001097884     0.000004754984

  **** Optimization is complete! (in 3 steps) ****
    Final optimized geometry and variables:
    Molecular point group: c1

    Geometry (in Angstrom), charge = 0, multiplicity = 1:

    H           -2.814403084982    -0.761629464312     0.155397958998
    N           -1.869599784747    -0.639978855591     0.449867064612
    C           -1.329880773563     0.624919129962    -0.013218707703
    H           -1.332269577225    -1.395982985788     0.081899802486
    C            0.150144502553     0.710473579922     0.279177786147
    H           -1.489646846210     0.800474685948    -1.076166130969
    H           -1.823447204012     1.430890512163     0.519815439296
    O            0.816175447720    -0.271796606767    -0.455251707808
    H            0.521791869109     1.697414885789     0.008697729988
    H            0.321416881627     0.563145220624     1.343371762506
    C            2.185099286627    -0.332345300167    -0.227144830329
    H            2.590282557514    -1.120670238349    -0.844911660826
    H            2.673660869113     0.603449255543    -0.490036839860
    H            2.405506974819    -0.554505769501     0.814341736616

  Mulliken Charges: (a.u.)
   Center  Symbol    Alpha    Beta     Spin     Total
       1     H     0.43007  0.43007  0.00000  0.13986
       2     N     3.69564  3.69564  0.00000 -0.39128
       3     C     3.01846  3.01846  0.00000 -0.03693
       4     H     0.42216  0.42216  0.00000  0.15568
       5     C     2.97221  2.97221  0.00000  0.05557
       6     H     0.46493  0.46493  0.00000  0.07014
       7     H     0.46026  0.46026  0.00000  0.07949
       8     O     4.17982  4.17982  0.00000 -0.35964
       9     H     0.46862  0.46862  0.00000  0.06275
      10     H     0.46786  0.46786  0.00000  0.06428
      11     C     3.03222  3.03222  0.00000 -0.06444
      12     H     0.44738  0.44738  0.00000  0.10523
      13     H     0.47060  0.47060  0.00000  0.05879
      14     H     0.46975  0.46975  0.00000  0.06049

   Total alpha = 21.00000, Total beta = 21.00000, Total charge = -0.00000
