  ==> Input File <==

--------------------------------------------------------------------------
set {
	reference rhf
	basis 6-31G*
}

set_num_threads( 4 )
memory 2 gb

molecule MOL {
0 1

H	 -1.836216	 1.387520	 -0.000064
C	 -1.301823	 0.443321	 -0.000031
O	 -0.003969	 0.658512	 0.000451
O	 -1.829879	 -0.616434	 -0.000857
C	 0.678865	 0.547850	 1.248921
C	 2.142415	 0.835654	 0.992970
H	 0.527948	 -0.448289	 1.641666
H	 0.246751	 1.251885	 1.946709
H	 2.556288	 0.125852	 0.285917
H	 2.699861	 0.761219	 1.920842
H	 2.273900	 1.834235	 0.592424

	symmetry c1
}
set optking {
	frozen_dihedral = ("
		5 3 2 4
	")
}

ee = optimize('scf')
oeprop('DIPOLE', 'QUADRUPOLE', 'MULLIKEN_CHARGES')
f=open( 'psi4out.xyz', 'w' )
f.write( "11  " )
f.write( str(ee) + "\n" )
f.write( MOL.save_string_xyz() )
f.close()
--------------------------------------------------------------------------

    Molecular point group: c1
  Charge       = 0
  Multiplicity = 1
  Basis Set: 6-31G*
  Basis Set:
  @DF-RHF Final Energy:  -266.80894279604814
    Total Energy =                       -266.8089427960479725
    Molecular point group: c1
  Basis Set: 6-31G*
  Basis Set:
  Basis Set: 6-31G*
  Basis Set:
  @DF-RHF Final Energy:  -266.80715330390478
    Total Energy =                       -266.8071533039048404
  Basis Set: 6-31G*
  Basis Set:
  Basis Set: 6-31G*
  Basis Set:
  @DF-RHF Final Energy:  -266.80956482081041
    Total Energy =                       -266.8095648208104649
  Basis Set: 6-31G*
  Basis Set:
  Basis Set: 6-31G*
  Basis Set:
  @DF-RHF Final Energy:  -266.81013746018817
    Total Energy =                       -266.8101374601882867
  Basis Set: 6-31G*
  Basis Set:
  Basis Set: 6-31G*
  Basis Set:
  @DF-RHF Final Energy:  -266.81013660747226
    Total Energy =                       -266.8101366074723728
  Basis Set: 6-31G*
  Basis Set:
  Basis Set: 6-31G*
  Basis Set:
  @DF-RHF Final Energy:  -266.81015148852180
    Total Energy =                       -266.8101514885219103
  Basis Set: 6-31G*
  Basis Set:
  Charge       = 0
  Multiplicity = 1
  Basis Set: 6-31G*
  Basis Set:

    Orbital Energies (a.u.)
    -----------------------

    Doubly Occupied:

       1A    -20.592611     2A    -20.570867     3A    -11.381075
       4A    -11.300614     5A    -11.228111     6A     -1.466383
       7A     -1.377751     8A     -1.049147     9A     -0.889666
      10A     -0.823732    11A     -0.740217    12A     -0.688484
      13A     -0.649610    14A     -0.635505    15A     -0.563253
      16A     -0.541099    17A     -0.533951    18A     -0.504163
      19A     -0.464117    20A     -0.452342

  @DF-RHF Final Energy:  -266.81015178198913

   => Energetics <=

    Nuclear Repulsion Energy =            177.2377070963040069
    One-Electron Energy =                -715.1903227541408796
    Two-Electron Energy =                 271.1424638758475112
    DFT Exchange-Correlation Energy =       0.0000000000000000
    Empirical Dispersion Energy =           0.0000000000000000
    PCM Polarization Energy =               0.0000000000000000
    EFP Energy =                            0.0000000000000000
    Total Energy =                       -266.8101517819893616
    Molecular point group: c1
  Basis Set: 6-31G*
  Basis Set:

  -Total Gradient:
     Atom            X                  Y                   Z
    ------   -----------------  -----------------  -----------------
       1        0.000004128295    -0.000010779251    -0.000011248746
       2       -0.000240678632     0.001175851736     0.006339506245
       3        0.000878844984    -0.004291010180    -0.002883999126
       4       -0.000033553601     0.000175888096    -0.004017321507
       5       -0.000569599478     0.002946707862     0.000679704258
       6        0.000005019151    -0.000002816450    -0.000047200350
       7       -0.000010686952    -0.000008791677    -0.000028471726
       8       -0.000027817551     0.000009273319    -0.000021922493
       9        0.000013206274    -0.000000148494    -0.000004047205
      10       -0.000027285052     0.000000769936    -0.000003506438
      11        0.000008422567     0.000005055107    -0.000001492910

  **** Optimization is complete! (in 7 steps) ****
    Final optimized geometry and variables:
    Molecular point group: c1

    Geometry (in Angstrom), charge = 0, multiplicity = 1:

    H           -1.863994317208     0.974756699889    -0.464841022428
    C           -1.263792868536     0.068051624861    -0.441365524475
    O            0.051512252489     0.321707073997    -0.440516990680
    O           -1.735935726720    -1.010397299823    -0.474971988693
    C            0.736415930847     0.185957576808     0.801381426951
    C            2.205337178082     0.446173335302     0.549512806306
    H            0.573075117849    -0.812682066289     1.186890020085
    H            0.331496505260     0.900777019778     1.511430235458
    H            2.598048625712    -0.269262775075    -0.162946543718
    H            2.762314065790     0.355641375084     1.476357918240
    H            2.352897774252     1.443829885627     0.152981330633

  Mulliken Charges: (a.u.)
   Center  Symbol    Alpha    Beta     Spin     Total
       1     H     0.42259  0.42259  0.00000  0.15483
       2     C     2.73055  2.73055  0.00000  0.53890
       3     O     4.30422  4.30422  0.00000 -0.60845
       4     O     4.22993  4.22993  0.00000 -0.45987
       5     C     3.00439  3.00439  0.00000 -0.00878
       6     C     3.24729  3.24729  0.00000 -0.49458
       7     H     0.40821  0.40821  0.00000  0.18358
       8     H     0.42072  0.42072  0.00000  0.15857
       9     H     0.40616  0.40616  0.00000  0.18768
      10     H     0.41618  0.41618  0.00000  0.16765
      11     H     0.40976  0.40976  0.00000  0.18047

   Total alpha = 20.00000, Total beta = 20.00000, Total charge =  0.00000
