  ==> Input File <==

--------------------------------------------------------------------------
set {
	reference rhf
	basis cc-pvtz
}

set_num_threads( 4 )
memory 2 gb

molecule MOL {
0 1

H	 -4.148285	 0.785305	 -0.295650
O	 -3.434691	 0.222173	 -0.532001
C	 -2.302264	 0.528872	 0.237390
C	 -1.175688	 -0.398187	 -0.171891
H	 -2.005344	 1.563977	 0.081930
H	 -2.517029	 0.405470	 1.296861
C	 0.196029	 0.106276	 0.266738
H	 -1.201873	 -0.515469	 -1.250677
H	 -1.365975	 -1.378728	 0.252664
C	 1.330220	 -0.826136	 -0.155230
H	 0.359542	 1.097229	 -0.145561
H	 0.212134	 0.218135	 1.348778
C	 2.719700	 -0.407669	 0.328325
H	 1.339388	 -0.911200	 -1.239363
H	 1.119001	 -1.821953	 0.224128
C	 3.241564	 0.893452	 -0.276737
H	 3.418299	 -1.204729	 0.093035
H	 2.711776	 -0.323368	 1.411960
H	 3.254204	 0.841071	 -1.360784
H	 2.634460	 1.745075	 0.005842
H	 4.254264	 1.092401	 0.054971

	symmetry c1
}
set optking {
	frozen_dihedral = ("
		2 3 4 8
	")
}

ee = optimize('scf')
oeprop('DIPOLE', 'QUADRUPOLE', 'MULLIKEN_CHARGES')
f=open( 'psi4out.xyz', 'w' )
f.write( "21  " )
f.write( str(ee) + "\n" )
f.write( MOL.save_string_xyz() )
f.close()
--------------------------------------------------------------------------

    Molecular point group: c1
  Charge       = 0
  Multiplicity = 1
  Basis Set: CC-PVTZ
  Basis Set:
  @DF-RHF Final Energy:  -310.33181555526210
    Total Energy =                       -310.3318155552623239
    Molecular point group: c1
  Basis Set: CC-PVTZ
  Basis Set:
  Basis Set: CC-PVTZ
  Basis Set:
  @DF-RHF Final Energy:  -310.33195661286817
    Total Energy =                       -310.3319566128682254
  Basis Set: CC-PVTZ
  Basis Set:
  Basis Set: CC-PVTZ
  Basis Set:
  @DF-RHF Final Energy:  -310.33198500391723
    Total Energy =                       -310.3319850039170547
  Basis Set: CC-PVTZ
  Basis Set:
  Charge       = 0
  Multiplicity = 1
  Basis Set: CC-PVTZ
  Basis Set:

    Orbital Energies (a.u.)
    -----------------------

    Doubly Occupied:

       1A    -20.545503     2A    -11.265033     3A    -11.213163
       4A    -11.213019     5A    -11.211151     6A    -11.208737
       7A    -11.205869     8A     -1.363213     9A     -1.087177
      10A     -1.034007    11A     -0.955390    12A     -0.876488
      13A     -0.807803    14A     -0.779487    15A     -0.698065
      16A     -0.659590    17A     -0.621172    18A     -0.609926
      19A     -0.589893    20A     -0.568256    21A     -0.539643
      22A     -0.520823    23A     -0.510509    24A     -0.490132
      25A     -0.478780    26A     -0.460347    27A     -0.456245
      28A     -0.444239    29A     -0.436096

  @DF-RHF Final Energy:  -310.33198487131443

   => Energetics <=

    Nuclear Repulsion Energy =            312.8679360788706276
    One-Electron Energy =               -1040.7003200023273166
    Two-Electron Energy =                 417.5003990521423134
    DFT Exchange-Correlation Energy =       0.0000000000000000
    Empirical Dispersion Energy =           0.0000000000000000
    PCM Polarization Energy =               0.0000000000000000
    EFP Energy =                            0.0000000000000000
    Total Energy =                       -310.3319848713144324
    Molecular point group: c1
  Basis Set: CC-PVTZ
  Basis Set:

  -Total Gradient:
     Atom            X                  Y                   Z
    ------   -----------------  -----------------  -----------------
       1        0.000022981889     0.000018211134     0.000019659382
       2        0.000720267983     0.001663367688    -0.001804415333
       3       -0.001387953518    -0.002829672234     0.002406591511
       4        0.002753717474     0.003882455971    -0.000794468547
       5        0.000080879904     0.000027483320    -0.000002625397
       6        0.000009714426    -0.000013156400    -0.000032313341
       7       -0.000024466444     0.000074851133    -0.000076014376
       8       -0.002047968633    -0.002715133763     0.000374490894
       9       -0.000053370600    -0.000134113923    -0.000063053830
      10       -0.000038315634     0.000030916781    -0.000074795672
      11       -0.000038756488    -0.000052296360     0.000020358588
      12       -0.000047495865    -0.000005697172    -0.000018264044
      13       -0.000047429512     0.000045564944     0.000084017416
      14        0.000000353657     0.000033809017    -0.000017834095
      15       -0.000001403954    -0.000003734624    -0.000025896613
      16        0.000037566972     0.000007284010    -0.000015712715
      17       -0.000022672424    -0.000015437904     0.000024821200
      18        0.000005717616     0.000027357561     0.000018189169
      19       -0.000002561295     0.000010107892    -0.000014105609
      20        0.000080939388    -0.000034979098     0.000002227907
      21        0.000000255061    -0.000017187975    -0.000010856491

  **** Optimization is complete! (in 4 steps) ****
    Final optimized geometry and variables:
    Molecular point group: c1

    Geometry (in Angstrom), charge = 0, multiplicity = 1:

    H           -4.198442168260     0.672199502124    -0.159206048264
    O           -3.462889165997     0.172826221227    -0.462184391639
    C           -2.323584149004     0.483854372269     0.295858720107
    C           -1.183353454298    -0.412150768154    -0.153411930629
    H           -2.051469901518     1.526995274239     0.146809866865
    H           -2.515070610383     0.345170322311     1.357213311201
    C            0.185433559985     0.084757276950     0.298029610115
    H           -1.231260460019    -0.500085160445    -1.233547628182
    H           -1.356773684099    -1.413858708377     0.229696750982
    C            1.318114631802    -0.859654349585    -0.099388270091
    H            0.359625189031     1.070762738356    -0.120411539790
    H            0.187755425788     0.206228660670     1.379609541673
    C            2.704285312868    -0.446345883350     0.398136179618
    H            1.340247910049    -0.955777799709    -1.182430964515
    H            1.094946320356    -1.849956637462     0.287314899241
    C            3.251419962260     0.835536759825    -0.225293830762
    H            3.397314998702    -1.255902806525     0.190833630295
    H            2.679993185028    -0.339389117147     1.479556473015
    H            3.279116887368     0.760783800091    -1.307695641847
    H            2.651372729397     1.700311020759     0.030881484266
    H            4.261660307791     1.028416433046     0.117295398200

  Mulliken Charges: (a.u.)
   Center  Symbol    Alpha    Beta     Spin     Total
       1     H     0.39680  0.39680  0.00000  0.20640
       2     O     4.19527  4.19527  0.00000 -0.39053
       3     C     2.96269  2.96269  0.00000  0.07462
       4     C     3.08553  3.08553  0.00000 -0.17107
       5     H     0.47758  0.47758  0.00000  0.04484
       6     H     0.47265  0.47265  0.00000  0.05470
       7     C     3.10198  3.10198  0.00000 -0.20395
       8     H     0.44786  0.44786  0.00000  0.10428
       9     H     0.45382  0.45382  0.00000  0.09236
      10     C     3.09468  3.09468  0.00000 -0.18935
      11     H     0.45196  0.45196  0.00000  0.09609
      12     H     0.45627  0.45627  0.00000  0.08747
      13     C     3.08988  3.08988  0.00000 -0.17977
      14     H     0.45282  0.45282  0.00000  0.09435
      15     H     0.44897  0.44897  0.00000  0.10207
      16     C     3.15212  3.15212  0.00000 -0.30424
      17     H     0.44847  0.44847  0.00000  0.10306
      18     H     0.45524  0.45524  0.00000  0.08951
      19     H     0.45454  0.45454  0.00000  0.09093
      20     H     0.45426  0.45426  0.00000  0.09149
      21     H     0.44663  0.44663  0.00000  0.10674

   Total alpha = 29.00000, Total beta = 29.00000, Total charge = -0.00000
