  ==> Input File <==

--------------------------------------------------------------------------
set {
	reference rhf
	basis 6-31G*
}

set_num_threads( 4 )
memory 2 gb

molecule MOL {
0 1

H	 -3.808487	 -2.368668	 -0.158268
C	 -2.736997	 -2.275585	 -0.163684
C	 -1.946683	 -3.397347	 -0.364189
C	 -2.150821	 -1.034660	 0.029796
H	 -2.402563	 -4.359147	 -0.514119
C	 -0.569033	 -3.276868	 -0.371020
H	 -2.765068	 -0.166215	 0.185072
C	 -0.771979	 -0.911671	 0.023357
H	 0.058163	 -4.134006	 -0.524681
C	 0.022879	 -2.034029	 -0.177336
H	 -0.314116	 0.046654	 0.172676
C	 1.511035	 -1.957991	 -0.193650
O	 1.970282	 -0.730723	 0.000018
O	 2.223644	 -2.897417	 -0.362540
C	 3.377318	 -0.566646	 -0.000065
H	 3.695437	 -0.028981	 -0.881264
H	 3.789299	 -1.563704	 0.000236
H	 3.695516	 -0.028316	 0.880770

	symmetry c1
}
set optking {
	frozen_dihedral = ("
		12 13 15 16
	")
}

ee = optimize('scf')
oeprop('DIPOLE', 'QUADRUPOLE', 'MULLIKEN_CHARGES')
f=open( 'psi4out.xyz', 'w' )
f.write( "18  " )
f.write( str(ee) + "\n" )
f.write( MOL.save_string_xyz() )
f.close()
--------------------------------------------------------------------------

    Molecular point group: c1
  Charge       = 0
  Multiplicity = 1
  Basis Set: 6-31G*
  Basis Set:
  @DF-RHF Final Energy:  -457.34642986176266
    Total Energy =                       -457.3464298617627719
    Molecular point group: c1
  Basis Set: 6-31G*
  Basis Set:
  Basis Set: 6-31G*
  Basis Set:
  @DF-RHF Final Energy:  -457.34667794981675
    Total Energy =                       -457.3466779498169217
  Basis Set: 6-31G*
  Basis Set:
  Basis Set: 6-31G*
  Basis Set:
  @DF-RHF Final Energy:  -457.34857004066163
    Total Energy =                       -457.3485700406617980
  Basis Set: 6-31G*
  Basis Set:
  Basis Set: 6-31G*
  Basis Set:
  @DF-RHF Final Energy:  -457.34814715204777
    Total Energy =                       -457.3481471520475452
  Basis Set: 6-31G*
  Basis Set:
  Basis Set: 6-31G*
  Basis Set:
  @DF-RHF Final Energy:  -457.34861733404097
    Total Energy =                       -457.3486173340406822
  Basis Set: 6-31G*
  Basis Set:
  Charge       = 0
  Multiplicity = 1
  Basis Set: 6-31G*
  Basis Set:

    Orbital Energies (a.u.)
    -----------------------

    Doubly Occupied:

       1A    -20.606707     2A    -20.543625     3A    -11.379391
       4A    -11.281570     5A    -11.245109     6A    -11.244911
       7A    -11.243647     8A    -11.241227     9A    -11.237031
      10A    -11.236266    11A     -1.470215    12A     -1.364376
      13A     -1.164762    14A     -1.047776    15A     -1.024340
      16A     -0.979254    17A     -0.859670    18A     -0.833826
      19A     -0.776909    20A     -0.739890    21A     -0.683813
      22A     -0.674980    23A     -0.671544    24A     -0.631273
      25A     -0.623540    26A     -0.597298    27A     -0.584757
      28A     -0.567238    29A     -0.524100    30A     -0.516254
      31A     -0.503799    32A     -0.498158    33A     -0.455348
      34A     -0.444768    35A     -0.344585    36A     -0.340518

  @DF-RHF Final Energy:  -457.34862121333936

   => Energetics <=

    Nuclear Repulsion Energy =            492.5639394245756648
    One-Electron Energy =               -1599.4601650885156232
    Two-Electron Energy =                 649.5476044506004882
    DFT Exchange-Correlation Energy =       0.0000000000000000
    Empirical Dispersion Energy =           0.0000000000000000
    PCM Polarization Energy =               0.0000000000000000
    EFP Energy =                            0.0000000000000000
    Total Energy =                       -457.3486212133394702
    Molecular point group: c1
  Basis Set: 6-31G*
  Basis Set:

  -Total Gradient:
     Atom            X                  Y                   Z
    ------   -----------------  -----------------  -----------------
       1       -0.000002730123     0.000001413804     0.000000502808
       2       -0.000002346784     0.000002502477    -0.000001011046
       3       -0.000015935536     0.000000861594     0.000004930978
       4       -0.000015710490    -0.000008885355    -0.000002057466
       5       -0.000006984050     0.000000226679     0.000000681555
       6       -0.000013806680     0.000006268583    -0.000001898551
       7       -0.000009486100    -0.000001128782    -0.000000142247
       8       -0.000030403485     0.000018456362     0.000003805788
       9       -0.000001888538     0.000007429573     0.000000427425
      10       -0.000047520735    -0.000023880704    -0.000023539157
      11       -0.000017559248    -0.000022361456    -0.000002832195
      12       -0.000064873147    -0.000160049815     0.000770682084
      13        0.000107699610     0.000307824057    -0.000948300630
      14        0.000099053967     0.000140184543     0.000005237299
      15        0.000031730644    -0.000913100801    -0.000236767384
      16       -0.000080604131     0.000721500528     0.000390112766
      17        0.000076471448    -0.000102831447    -0.000001718253
      18       -0.000005106630     0.000025570167     0.000041886227

  **** Optimization is complete! (in 6 steps) ****
    Final optimized geometry and variables:
    Molecular point group: c1

    Geometry (in Angstrom), charge = 0, multiplicity = 1:

    H           -4.030730522744    -0.445393055178     0.013345057306
    C           -2.958271578968    -0.365054730561     0.002977709831
    C           -2.182194989926    -1.495443535435    -0.204483341832
    C           -2.356411624694     0.868185945971     0.196959673669
    H           -2.650045273795    -2.451448874447    -0.354934123102
    C           -0.803305710829    -1.391213951821    -0.217801995897
    H           -2.959555345307     1.743422456955     0.357553907885
    C           -0.976208754235     0.974812245912     0.184179006082
    H           -0.187430150569    -2.255396531630    -0.377000021062
    C           -0.195287702169    -0.156163740472    -0.023402509211
    H           -0.506782551741     1.927298195913     0.333698293060
    C            1.294751718468    -0.099734662826    -0.046829493615
    O            1.761662869214     1.125659030012     0.145510732674
    O            1.987925891928    -1.052459072016    -0.220599513754
    C            3.163762548584     1.336899556356     0.166652467230
    H            3.442021259208     1.882998427173    -0.724264438812
    H            3.693649297448     0.400822190873     0.211964107518
    H            3.381088480062     1.937981771820     1.037759838900

  Mulliken Charges: (a.u.)
   Center  Symbol    Alpha    Beta     Spin     Total
       1     H     0.39548  0.39548  0.00000  0.20904
       2     C     3.09000  3.09000  0.00000 -0.18001
       3     C     3.10702  3.10702  0.00000 -0.21404
       4     C     3.10708  3.10708  0.00000 -0.21416
       5     H     0.39548  0.39548  0.00000  0.20904
       6     C     3.08657  3.08657  0.00000 -0.17314
       7     H     0.39639  0.39639  0.00000  0.20721
       8     C     3.08693  3.08693  0.00000 -0.17387
       9     H     0.37594  0.37594  0.00000  0.24813
      10     C     3.07790  3.07790  0.00000 -0.15580
      11     H     0.38065  0.38065  0.00000  0.23871
      12     C     2.57941  2.57941  0.00000  0.84118
      13     O     4.31659  4.31659  0.00000 -0.63318
      14     O     4.29133  4.29133  0.00000 -0.58265
      15     C     3.09815  3.09815  0.00000 -0.19629
      16     H     0.41188  0.41188  0.00000  0.17624
      17     H     0.39245  0.39245  0.00000  0.21509
      18     H     0.41075  0.41075  0.00000  0.17850

   Total alpha = 36.00000, Total beta = 36.00000, Total charge = -0.00000
