                              Psi4 1.0.54 Driver

  ==> Input File <==

--------------------------------------------------------------------------
set {
	reference rhf
	basis cc-pvtz
}

set_num_threads( 4 )
memory 2 gb

molecule MOL {
0 1

H	 3.504094	 0.804761	 1.191579
N	 2.677368	 0.246093	 1.185967
C	 1.860978	 0.530248	 0.016256
H	 2.178479	 0.449943	 2.026742
C	 0.644130	 -0.381765	 -0.031064
H	 2.471560	 0.357891	 -0.863738
H	 1.532473	 1.569451	 -0.029529
C	 -0.678115	 0.376691	 0.025731
H	 0.693998	 -0.977147	 -0.936845
H	 0.693309	 -1.082142	 0.800523
C	 -1.900706	 -0.535531	 -0.022488
H	 -0.725296	 1.079516	 -0.802982
H	 -0.715474	 0.974884	 0.933278
C	 -3.220513	 0.226854	 0.028039
H	 -1.865036	 -1.134397	 -0.928236
H	 -1.857948	 -1.236381	 0.806820
H	 -3.309098	 0.911849	 -0.808725
H	 -4.066838	 -0.449485	 -0.008086
H	 -3.301685	 0.809374	 0.939860

	symmetry c1
}
set optking {
	frozen_dihedral = ("
		6 3 5 9
	")
}

ee,wfn = optimize('scf', return_wfn=True)
oeprop( wfn, 'DIPOLE', 'QUADRUPOLE', 'MULLIKEN_CHARGES')
f=open( 'psi4out.xyz', 'w' )
f.write( "19  " )
f.write( str(ee) + "\n" )
f.write( MOL.save_string_xyz() )
f.close()
--------------------------------------------------------------------------

    Molecular point group: c1
  Charge       = 0
  Multiplicity = 1
  Basis Set: CC-PVTZ
  Basis Set:
  @DF-RHF Final Energy:  -251.44159820111261
    Total Energy =                       -251.4415982011126971
    Molecular point group: c1
  Basis Set: CC-PVTZ
  Basis Set:
  Basis Set: CC-PVTZ
  Basis Set:
  @DF-RHF Final Energy:  -251.44195652881191
    Total Energy =                       -251.4419565288118292
  Basis Set: CC-PVTZ
  Basis Set:
  Basis Set: CC-PVTZ
  Basis Set:
  @DF-RHF Final Energy:  -251.44206175027250
    Total Energy =                       -251.4420617502726714
  Basis Set: CC-PVTZ
  Basis Set:
  Charge       = 0
  Multiplicity = 1
  Basis Set: CC-PVTZ
  Basis Set:

    Orbital Energies (a.u.)
    -----------------------

    Doubly Occupied:

       1A    -15.526800     2A    -11.238072     3A    -11.212172
       4A    -11.211255     5A    -11.207549     6A    -11.206089
       7A     -1.177126     8A     -1.073829     9A     -0.997728
      10A     -0.902022    11A     -0.815138    12A     -0.788896
      13A     -0.668165    14A     -0.638397    15A     -0.619653
      16A     -0.584885    17A     -0.566832    18A     -0.549322
      19A     -0.531019    20A     -0.502479    21A     -0.484462
      22A     -0.465596    23A     -0.461239    24A     -0.445117
      25A     -0.382569

  @DF-RHF Final Energy:  -251.44206253720967

   => Energetics <=

    Nuclear Repulsion Energy =            246.7356110627879389
    One-Electron Energy =                -827.8425213111402172
    Two-Electron Energy =                 329.6648477111425564
    DFT Exchange-Correlation Energy =       0.0000000000000000
    Empirical Dispersion Energy =           0.0000000000000000
    PCM Polarization Energy =               0.0000000000000000
    EFP Energy =                            0.0000000000000000
    Total Energy =                       -251.4420625372097220
    Molecular point group: c1
  Basis Set: CC-PVTZ
  Basis Set:

  -Total Gradient:
     Atom            X                  Y                   Z
    ------   -----------------  -----------------  -----------------
       1        0.000017445790    -0.000004484611     0.000003010023
       2        0.000012852387     0.000003926537    -0.000035993602
       3        0.000350210932    -0.000575187252     0.000514312476
       4       -0.000006913821     0.000002189310    -0.000048972721
       5       -0.000363053625     0.000552318954    -0.000425302003
       6       -0.000256644955     0.000376414748    -0.000238406808
       7       -0.000007222722    -0.000001051193    -0.000013519928
       8       -0.000005844355     0.000024187015    -0.000049123441
       9        0.000261645528    -0.000366130819     0.000273164203
      10        0.000006378250     0.000002717273    -0.000006419488
      11        0.000019447542    -0.000005564490     0.000019660843
      12        0.000009541201    -0.000012964633    -0.000007611004
      13       -0.000003048817     0.000004820822    -0.000009802080
      14       -0.000019210333    -0.000002846495     0.000026055102
      15        0.000009873495     0.000017379178     0.000005049761
      16       -0.000013887941    -0.000012953946    -0.000011246236
      17        0.000007082233    -0.000013786387     0.000006773219
      18       -0.000014758769     0.000007529526     0.000003520225
      19       -0.000003892022     0.000003486462    -0.000005148544

  **** Optimization is complete! (in 4 steps) ****
    Final optimized geometry and variables:
    Molecular point group: c1

    Geometry (in Angstrom), charge = 0, multiplicity = 1:

    H            3.580679916686     0.689691022608     1.027218611803
    N            2.757011270484     0.125827764558     1.008397753850
    C            1.966780221763     0.400597869183    -0.184457773268
    H            2.237470205206     0.340380098306     1.834338997451
    C            0.712273767473    -0.488794728776    -0.246445840865
    H            2.598648596827     0.209233540886    -1.042838280784
    H            1.668350055481     1.446496800479    -0.252437424999
    C           -0.600540075017     0.290482523870    -0.223326094253
    H            0.743295565454    -1.107904647865    -1.136961127249
    H            0.740848296322    -1.176305746790     0.591868488650
    C           -1.835909872877    -0.604161698163    -0.250064739298
    H           -0.632594772390     0.969821649338    -1.071975405486
    H           -0.631423734662     0.917418498101     0.665801602265
    C           -3.144961432319     0.177948902555    -0.223859120075
    H           -1.806809442759    -1.227704354164    -1.139485379418
    H           -1.804864193528    -1.283468797231     0.597401634744
    H           -3.221899666238     0.841083030785    -1.079168411559
    H           -4.000865084630    -0.486933116244    -0.243638729746
    H           -3.219843794392     0.786158977930     0.671575082747

  Mulliken Charges: (a.u.)
   Center  Symbol    Alpha    Beta     Spin     Total
       1     H     0.43001  0.43001  0.00000  0.13999
       2     N     3.68697  3.68697  0.00000 -0.37394
       3     C     3.03530  3.03530  0.00000 -0.07061
       4     H     0.43119  0.43119  0.00000  0.13762
       5     C     3.09623  3.09623  0.00000 -0.19246
       6     H     0.45397  0.45397  0.00000  0.09205
       7     H     0.46632  0.46632  0.00000  0.06737
       8     C     3.08697  3.08697  0.00000 -0.17394
       9     H     0.44999  0.44999  0.00000  0.10002
      10     H     0.44800  0.44800  0.00000  0.10401
      11     C     3.08531  3.08531  0.00000 -0.17062
      12     H     0.45511  0.45511  0.00000  0.08977
      13     H     0.45700  0.45700  0.00000  0.08600
      14     C     3.14965  3.14965  0.00000 -0.29930
      15     H     0.45438  0.45438  0.00000  0.09124
      16     H     0.45410  0.45410  0.00000  0.09181
      17     H     0.45540  0.45540  0.00000  0.08920
      18     H     0.44844  0.44844  0.00000  0.10312
      19     H     0.45567  0.45567  0.00000  0.08867

   Total alpha = 25.00000, Total beta = 25.00000, Total charge = -0.00000

*** Psi4 exiting successfully. Buy a developer a beer!
