  ==> Input File <==

--------------------------------------------------------------------------
set {
	reference rhf
	basis cc-pvtz
}

set_num_threads( 4 )
memory 2 gb

molecule MOL {
0 1

H	 -1.752232	 -2.214755	 -0.011938
C	 -1.343852	 -1.221619	 -0.018179
N	 -0.058800	 -1.097635	 -0.261688
C	 -2.148159	 -0.124236	 0.219734
C	 0.449026	 0.119242	 -0.273393
H	 -3.196988	 -0.237571	 0.417076
N	 -1.655094	 1.094230	 0.209506
C	 -0.370318	 1.215445	 -0.035100
C	 1.924033	 0.265863	 -0.538106
H	 0.033214	 2.210441	 -0.046812
C	 2.245665	 0.392084	 -2.028096
H	 2.274160	 1.149642	 -0.018385
H	 2.450550	 -0.583394	 -0.118872
H	 3.310145	 0.529809	 -2.175907
H	 1.729682	 1.240234	 -2.458657
H	 1.943638	 -0.497546	 -2.569283

	symmetry c1
}
set optking {
	frozen_dihedral = ("
		12 9 5 3
	")
}

ee = optimize('scf')
oeprop('DIPOLE', 'QUADRUPOLE', 'MULLIKEN_CHARGES')
f=open( 'psi4out.xyz', 'w' )
f.write( "16  " )
f.write( str(ee) + "\n" )
f.write( MOL.save_string_xyz() )
f.close()
--------------------------------------------------------------------------

    Molecular point group: c1
  Charge       = 0
  Multiplicity = 1
  Basis Set: CC-PVTZ
  Basis Set:
  @DF-RHF Final Energy:  -340.87187850388113
    Total Energy =                       -340.8718785038807368
    Molecular point group: c1
  Basis Set: CC-PVTZ
  Basis Set:
  Basis Set: CC-PVTZ
  Basis Set:
  @DF-RHF Final Energy:  -340.87206689500050
    Total Energy =                       -340.8720668950004438
  Basis Set: CC-PVTZ
  Basis Set:
  Basis Set: CC-PVTZ
  Basis Set:
  @DF-RHF Final Energy:  -340.87212069413704
    Total Energy =                       -340.8721206941372657
  Basis Set: CC-PVTZ
  Basis Set:
  Basis Set: CC-PVTZ
  Basis Set:
  @DF-RHF Final Energy:  -340.87212921566606
    Total Energy =                       -340.8721292156663480
  Basis Set: CC-PVTZ
  Basis Set:
  Basis Set: CC-PVTZ
  Basis Set:
  @DF-RHF Final Energy:  -340.87213040278726
    Total Energy =                       -340.8721304027876613
  Basis Set: CC-PVTZ
  Basis Set:
  Charge       = 0
  Multiplicity = 1
  Basis Set: CC-PVTZ
  Basis Set:

    Orbital Energies (a.u.)
    -----------------------

    Doubly Occupied:

       1A    -15.580662     2A    -15.576087     3A    -11.278387
       4A    -11.271987     5A    -11.268804     6A    -11.267605
       7A    -11.231339     8A    -11.219110     9A     -1.316010
      10A     -1.224048    11A     -1.086601    12A     -1.015853
      13A     -0.905805    14A     -0.896579    15A     -0.830500
      16A     -0.718693    17A     -0.713371    18A     -0.659637
      19A     -0.611660    20A     -0.605883    21A     -0.586022
      22A     -0.563835    23A     -0.524626    24A     -0.508548
      25A     -0.502893    26A     -0.487672    27A     -0.433437
      28A     -0.397845    29A     -0.346764

  @DF-RHF Final Energy:  -340.87213135765631

   => Energetics <=

    Nuclear Repulsion Energy =            350.5074783749581115
    One-Electron Energy =               -1155.4986836279356339
    Two-Electron Energy =                 464.1190738953211508
    DFT Exchange-Correlation Energy =       0.0000000000000000
    Empirical Dispersion Energy =           0.0000000000000000
    PCM Polarization Energy =               0.0000000000000000
    EFP Energy =                            0.0000000000000000
    Total Energy =                       -340.8721313576564285
    Molecular point group: c1
  Basis Set: CC-PVTZ
  Basis Set:

  -Total Gradient:
     Atom            X                  Y                   Z
    ------   -----------------  -----------------  -----------------
       1       -0.000026264149     0.000001645559    -0.000018177639
       2        0.000047504289    -0.000071129726     0.000046146042
       3        0.000043360741    -0.000123249658     0.000658140151
       4       -0.000006120980     0.000069582435     0.000022103718
       5       -0.000156006958     0.000233263503    -0.000773616696
       6       -0.000002902928    -0.000017114094    -0.000014401540
       7       -0.000061466554    -0.000074053240     0.000013438409
       8        0.000106669483    -0.000019465550    -0.000067460377
       9       -0.000134236589     0.000503797222    -0.000522691082
      10        0.000004633358    -0.000010273420     0.000000992607
      11       -0.000005374118    -0.000004355097    -0.000000059138
      12        0.000134398525    -0.000460331467     0.000662309408
      13        0.000046308557    -0.000003224755    -0.000009699041
      14        0.000006305312     0.000010426160    -0.000011637422
      15        0.000003307110    -0.000021073427     0.000035778406
      16       -0.000000115099    -0.000014444441    -0.000021165807

  **** Optimization is complete! (in 6 steps) ****
    Final optimized geometry and variables:
    Molecular point group: c1

    Geometry (in Angstrom), charge = 0, multiplicity = 1:

    H           -1.665932451527    -2.305892493572     0.350829465077
    C           -1.263131253151    -1.310673471795     0.344521311511
    N            0.027484632322    -1.182183947599     0.120113313368
    C           -2.073855335076    -0.218042794377     0.567704478283
    C            0.529017935564     0.035177465505     0.112670284950
    H           -3.124754723840    -0.334486761145     0.750829296862
    N           -1.584198461428     1.004279427707     0.567535225372
    C           -0.298317906710     1.129493656465     0.343818253645
    C            1.999650892028     0.196640273319    -0.166974178728
    H            0.104978600616     2.124997523109     0.348597562524
    C            2.305802376497     0.301255944946    -1.662507622731
    H            2.370916197179     1.075228869442     0.348293434536
    H            2.512975198978    -0.660550541915     0.248152737928
    H            3.372581785720     0.396182778822    -1.826368298411
    H            1.820390039886     1.164603011198    -2.103222804882
    H            1.960099993087    -0.581956480233    -2.185261687544

  Mulliken Charges: (a.u.)
   Center  Symbol    Alpha    Beta     Spin     Total
       1     H     0.41359  0.41359  0.00000  0.17281
       2     C     3.04398  3.04398  0.00000 -0.08796
       3     N     3.59778  3.59778  0.00000 -0.19557
       4     C     3.04764  3.04764  0.00000 -0.09527
       5     C     2.93643  2.93643  0.00000  0.12714
       6     H     0.41359  0.41359  0.00000  0.17281
       7     N     3.58688  3.58688  0.00000 -0.17375
       8     C     3.07846  3.07846  0.00000 -0.15693
       9     C     3.08322  3.08322  0.00000 -0.16645
      10     H     0.41509  0.41509  0.00000  0.16982
      11     C     3.14402  3.14402  0.00000 -0.28804
      12     H     0.44797  0.44797  0.00000  0.10407
      13     H     0.44252  0.44252  0.00000  0.11496
      14     H     0.44860  0.44860  0.00000  0.10279
      15     H     0.45321  0.45321  0.00000  0.09358
      16     H     0.44701  0.44701  0.00000  0.10598

   Total alpha = 29.00000, Total beta = 29.00000, Total charge = -0.00000
