                              Psi4 1.0.54 Driver

  ==> Input File <==

--------------------------------------------------------------------------
set {
	reference rhf
	basis cc-pvtz
}

set_num_threads( 4 )
memory 2 gb

molecule MOL {
0 1

O	 -2.071633	 -1.227563	 -0.223463
C	 -1.652164	 -0.152425	 0.058082
C	 -0.327811	 0.006324	 0.778296
C	 -2.402515	 1.108629	 -0.298924
C	 -0.266297	 -0.886354	 2.023594
H	 0.493519	 -0.235205	 0.111808
H	 -0.236045	 1.044703	 1.070161
C	 1.046430	 -0.741718	 2.787831
H	 -0.400437	 -1.926502	 1.737599
H	 -1.097266	 -0.633680	 2.673217
C	 1.107077	 -1.618284	 4.034071
H	 1.875312	 -0.990052	 2.130709
H	 1.181317	 0.298173	 3.070624
H	 1.010032	 -2.668499	 3.779776
H	 0.308437	 -1.370999	 4.725008
H	 2.047986	 -1.490444	 4.556323
H	 -3.240910	 0.874416	 -0.936711
H	 -1.747554	 1.818823	 -0.790984
H	 -2.760419	 1.579708	 0.610998

	symmetry c1
}
set optking {
	frozen_dihedral = ("
		5 3 2 4
	")
}

ee,wfn = optimize('scf', return_wfn=True)
oeprop( wfn, 'DIPOLE', 'QUADRUPOLE', 'MULLIKEN_CHARGES')
f=open( 'psi4out.xyz', 'w' )
f.write( "19  " )
f.write( str(ee) + "\n" )
f.write( MOL.save_string_xyz() )
f.close()
--------------------------------------------------------------------------

    Molecular point group: c1
  Charge       = 0
  Multiplicity = 1
  Basis Set: CC-PVTZ
  Basis Set:
  @DF-RHF Final Energy:  -309.17652074623180
    Total Energy =                       -309.1765207462316312
    Molecular point group: c1
  Basis Set: CC-PVTZ
  Basis Set:
  Basis Set: CC-PVTZ
  Basis Set:
  @DF-RHF Final Energy:  -309.17612848837155
    Total Energy =                       -309.1761284883717167
  Basis Set: CC-PVTZ
  Basis Set:
  Basis Set: CC-PVTZ
  Basis Set:
  @DF-RHF Final Energy:  -309.17631270733830
    Total Energy =                       -309.1763127073382407
  Basis Set: CC-PVTZ
  Basis Set:
  Basis Set: CC-PVTZ
  Basis Set:
  @DF-RHF Final Energy:  -309.17737156292088
    Total Energy =                       -309.1773715629205981
  Basis Set: CC-PVTZ
  Basis Set:
  @DF-RHF Final Energy:  -309.17739980416394
    Total Energy =                       -309.1773998041638833
  Basis Set: CC-PVTZ
  Basis Set:
  @DF-RHF Final Energy:  -309.17739204073956
    Total Energy =                       -309.1773920407395053
  Basis Set: CC-PVTZ
  Basis Set:
  Basis Set: CC-PVTZ
  Basis Set:
  @DF-RHF Final Energy:  -309.17741174500935
    Total Energy =                       -309.1774117450090671
  Basis Set: CC-PVTZ
  Basis Set:
  Basis Set: CC-PVTZ
  Basis Set:
  @DF-RHF Final Energy:  -309.17741286931346
    Total Energy =                       -309.1774128693136277
  Basis Set: CC-PVTZ
  Basis Set:
  Charge       = 0
  Multiplicity = 1
  Basis Set: CC-PVTZ
  Basis Set:

    Orbital Energies (a.u.)
    -----------------------

    Doubly Occupied:

       1A    -20.537329     2A    -11.320620     3A    -11.228939
       4A    -11.227604     5A    -11.221230     6A    -11.219535
       7A    -11.210077     8A     -1.398061     9A     -1.088737
      10A     -1.030157    11A     -0.985367    12A     -0.888039
      13A     -0.803719    14A     -0.733316    15A     -0.662276
      16A     -0.649045    17A     -0.625348    18A     -0.613380
      19A     -0.583157    20A     -0.573660    21A     -0.554174
      22A     -0.534765    23A     -0.515873    24A     -0.493550
      25A     -0.477870    26A     -0.474686    27A     -0.469122
      28A     -0.400053

  @DF-RHF Final Energy:  -309.17741299680767

   => Energetics <=

    Nuclear Repulsion Energy =            301.4499401722686116
    One-Electron Energy =               -1016.2153307280316312
    Two-Electron Energy =                 405.5879775589554583
    DFT Exchange-Correlation Energy =       0.0000000000000000
    Empirical Dispersion Energy =           0.0000000000000000
    PCM Polarization Energy =               0.0000000000000000
    EFP Energy =                            0.0000000000000000
    Total Energy =                       -309.1774129968075613
    Molecular point group: c1
  Basis Set: CC-PVTZ
  Basis Set:

  -Total Gradient:
     Atom            X                  Y                   Z
    ------   -----------------  -----------------  -----------------
       1        0.000010037342     0.000034368289     0.000008981908
       2        0.000321786234     0.000195549620    -0.000646752675
       3        0.000201192985    -0.000597475447    -0.000192920485
       4       -0.000299960723    -0.000053044905     0.000521334413
       5       -0.000239139086     0.000416255416     0.000301874884
       6       -0.000003227645     0.000004204826    -0.000001020261
       7       -0.000000591397    -0.000007301133    -0.000001031088
       8       -0.000000594882     0.000011197558     0.000015236456
       9       -0.000002229258     0.000002662813     0.000006660210
      10        0.000003320181     0.000001639694    -0.000006102485
      11        0.000007856963    -0.000007128487    -0.000006115328
      12       -0.000005381114     0.000002348101     0.000006439548
      13        0.000000775094    -0.000002638080     0.000000511582
      14       -0.000001539231     0.000002341465     0.000004404295
      15        0.000006081184     0.000001979599    -0.000006581751
      16       -0.000005017624    -0.000003705139    -0.000003886908
      17        0.000003933339     0.000007387810     0.000000748747
      18       -0.000001434820    -0.000002748475     0.000001016843
      19        0.000004132454    -0.000005893527    -0.000002797911

  **** Optimization is complete! (in 9 steps) ****
    Final optimized geometry and variables:
    Molecular point group: c1

    Geometry (in Angstrom), charge = 0, multiplicity = 1:

    O           -1.409441649926    -0.691688145535    -1.569632573467
    C           -1.014158884986     0.381672418400    -1.249724398318
    C            0.293863092900     0.543136746082    -0.493930326202
    C           -1.783246542996     1.638037509675    -1.576061830451
    C            0.385792081721    -0.375581713730     0.724119223221
    H            1.088956929392     0.305382690038    -1.195337758661
    H            0.430708138035     1.577592942050    -0.199367957697
    C            1.727076497967    -0.270520562022     1.443442205269
    H            0.215542772736    -1.396030223200     0.404709790126
    H           -0.414964510095    -0.131908774775     1.417790942480
    C            1.817886671148    -1.180769437887     2.663477808200
    H            2.525376285507    -0.517919324659     0.749119163829
    H            1.896521802362     0.758681792185     1.748668587781
    H            1.684588716822    -2.220570997100     2.385362483755
    H            1.053958877220    -0.934403298510     3.393301859596
    H            2.781920584929    -1.088681490295     3.150084902869
    H           -2.665828004690     1.397940304310    -2.148662661084
    H           -1.155160437710     2.325053626937    -2.133446406196
    H           -2.066339046627     2.139327798001    -0.656075208583

  Mulliken Charges: (a.u.)
   Center  Symbol    Alpha    Beta     Spin     Total
       1     O     4.17544  4.17544  0.00000 -0.35088
       2     C     2.85873  2.85873  0.00000  0.28255
       3     C     3.10463  3.10463  0.00000 -0.20927
       4     C     3.15301  3.15301  0.00000 -0.30603
       5     C     3.08884  3.08884  0.00000 -0.17768
       6     H     0.44334  0.44334  0.00000  0.11333
       7     H     0.44731  0.44731  0.00000  0.10539
       8     C     3.08546  3.08546  0.00000 -0.17091
       9     H     0.43855  0.43855  0.00000  0.12290
      10     H     0.45427  0.45427  0.00000  0.09146
      11     C     3.14946  3.14946  0.00000 -0.29892
      12     H     0.45346  0.45346  0.00000  0.09307
      13     H     0.45534  0.45534  0.00000  0.08933
      14     H     0.45281  0.45281  0.00000  0.09437
      15     H     0.45495  0.45495  0.00000  0.09010
      16     H     0.44822  0.44822  0.00000  0.10355
      17     H     0.43642  0.43642  0.00000  0.12716
      18     H     0.44946  0.44946  0.00000  0.10108
      19     H     0.45030  0.45030  0.00000  0.09940

   Total alpha = 28.00000, Total beta = 28.00000, Total charge = -0.00000

*** Psi4 exiting successfully. Buy a developer a beer!
