  ==> Input File <==

--------------------------------------------------------------------------
set {
	reference rhf
	basis 6-31G*
}

set_num_threads( 4 )
memory 2 gb

molecule MOL {
0 1

H	 2.465338	 -2.224223	 0.000000
O	 2.784187	 -1.332015	 0.000000
C	 1.765313	 -0.449364	 0.000000
C	 1.983569	 0.777946	 0.618077
C	 0.543033	 -0.724118	 -0.581958
H	 2.942127	 0.967491	 1.063157
C	 0.979487	 1.723354	 0.651054
H	 0.347416	 -1.661188	 -1.064823
C	 -0.443070	 0.247880	 -0.530581
H	 1.156587	 2.668230	 1.130326
C	 -0.257643	 1.471176	 0.073334
N	 -1.734237	 -0.047887	 -1.147750
H	 -1.046246	 2.194503	 0.090859
O	 -1.869595	 -1.115720	 -1.664898
O	 -2.577501	 0.794019	 -1.099144

	symmetry c1
}
set optking {
	frozen_dihedral = ("
		4 3 2 1
	")
}

ee = optimize('scf')
oeprop('DIPOLE', 'QUADRUPOLE', 'MULLIKEN_CHARGES')
f=open( 'psi4out.xyz', 'w' )
f.write( "15  " )
f.write( str(ee) + "\n" )
f.write( MOL.save_string_xyz() )
f.close()
--------------------------------------------------------------------------

    Molecular point group: c1
  Charge       = 0
  Multiplicity = 1
  Basis Set: 6-31G*
  Basis Set:
  @DF-RHF Final Energy:  -509.02648040754417
    Total Energy =                       -509.0264804075444545
    Molecular point group: c1
  Basis Set: 6-31G*
  Basis Set:
  Basis Set: 6-31G*
  Basis Set:
  @DF-RHF Final Energy:  -509.02643635727770
    Total Energy =                       -509.0264363572777029
  Basis Set: 6-31G*
  Basis Set:
  Basis Set: 6-31G*
  Basis Set:
  @DF-RHF Final Energy:  -509.02107973503513
    Total Energy =                       -509.0210797350353005
  Basis Set: 6-31G*
  Basis Set:
  Basis Set: 6-31G*
  Basis Set:
  @DF-RHF Final Energy:  -509.02636795091519
    Total Energy =                       -509.0263679509149597
  Basis Set: 6-31G*
  Basis Set:
  Basis Set: 6-31G*
  Basis Set:
  @DF-RHF Final Energy:  -509.02654494196844
    Total Energy =                       -509.0265449419687229
  Basis Set: 6-31G*
  Basis Set:
  Basis Set: 6-31G*
  Basis Set:
  @DF-RHF Final Energy:  -509.02655114856310
    Total Energy =                       -509.0265511485629304
  Basis Set: 6-31G*
  Basis Set:
  Charge       = 0
  Multiplicity = 1
  Basis Set: 6-31G*
  Basis Set:

    Orbital Energies (a.u.)
    -----------------------

    Doubly Occupied:

       1A    -20.611776     2A    -20.605047     3A    -20.604573
       4A    -15.859506     5A    -11.328165     6A    -11.310870
       7A    -11.267806     8A    -11.266799     9A    -11.265010
      10A    -11.261598    11A     -1.638265    12A     -1.431638
      13A     -1.421571    14A     -1.200704    15A     -1.094979
      16A     -1.046528    17A     -0.965747    18A     -0.876339
      19A     -0.828974    20A     -0.791244    21A     -0.749281
      22A     -0.737205    23A     -0.723902    24A     -0.708130
      25A     -0.673931    26A     -0.636902    27A     -0.623795
      28A     -0.580298    29A     -0.557215    30A     -0.543043
      31A     -0.514832    32A     -0.491823    33A     -0.489595
      34A     -0.454956    35A     -0.377295    36A     -0.346589

  @DF-RHF Final Energy:  -509.02655153841675

   => Energetics <=

    Nuclear Repulsion Energy =            503.3158736665738502
    One-Electron Energy =               -1692.9129907430308322
    Two-Electron Energy =                 680.5705655380402277
    DFT Exchange-Correlation Energy =       0.0000000000000000
    Empirical Dispersion Energy =           0.0000000000000000
    PCM Polarization Energy =               0.0000000000000000
    EFP Energy =                            0.0000000000000000
    Total Energy =                       -509.0265515384166974
    Molecular point group: c1
  Basis Set: 6-31G*
  Basis Set:

  -Total Gradient:
     Atom            X                  Y                   Z
    ------   -----------------  -----------------  -----------------
       1        0.000018590503    -0.000020387530     0.002423402126
       2       -0.000269613083    -0.000312351637    -0.002308805077
       3        0.000768193132     0.000952980713    -0.001682046488
       4       -0.000604787528    -0.000583701696     0.001531084094
       5        0.000073050825    -0.000035381585     0.000034407583
       6        0.000006213784    -0.000006314452    -0.000003166799
       7        0.000085332449    -0.000030133920     0.000049326304
       8       -0.000004117221     0.000003250380    -0.000009454961
       9       -0.000049201939     0.000065397683     0.000063680823
      10       -0.000008970751    -0.000001540525     0.000002624043
      11       -0.000040154063    -0.000043266437    -0.000104881152
      12       -0.000006060700     0.000012712247    -0.000075413448
      13       -0.000001011882     0.000001367015     0.000009953651
      14        0.000028705352    -0.000024496903     0.000029812561
      15        0.000003831120     0.000021866654     0.000039476741

  **** Optimization is complete! (in 7 steps) ****
    Final optimized geometry and variables:
    Molecular point group: c1

    Geometry (in Angstrom), charge = 0, multiplicity = 1:

    H            2.392403514135    -2.307280480445     0.389068516773
    O            2.715073856119    -1.416484660971     0.393454813905
    C            1.694521615942    -0.528475258121     0.407170285751
    C            1.909703987524     0.695107674948     1.029669633656
    C            0.473635517535    -0.803981858510    -0.178414132382
    H            2.864851906851     0.881370753462     1.483538793515
    C            0.908145072168     1.645904672096     1.052781466255
    H            0.286523393615    -1.738205908975    -0.669504498339
    C           -0.513789523462     0.165189555271    -0.125905772500
    H            1.083339263653     2.590541920100     1.533174247465
    C           -0.326656772037     1.391788850174     0.474105148006
    N           -1.805789492557    -0.131604458622    -0.739946542577
    H           -1.115701938956     2.114752020702     0.489552633965
    O           -1.951263943561    -1.210366124593    -1.230656655314
    O           -2.640322462449     0.720196360909    -0.713442588666

  Mulliken Charges: (a.u.)
   Center  Symbol    Alpha    Beta     Spin     Total
       1     H     0.26777  0.26777  0.00000  0.46446
       2     O     4.37842  4.37842  0.00000 -0.75684
       3     C     2.79775  2.79775  0.00000  0.40449
       4     C     3.10688  3.10688  0.00000 -0.21376
       5     C     3.13084  3.13084  0.00000 -0.26168
       6     H     0.38099  0.38099  0.00000  0.23802
       7     C     3.10184  3.10184  0.00000 -0.20368
       8     H     0.36605  0.36605  0.00000  0.26789
       9     C     2.91474  2.91474  0.00000  0.17052
      10     H     0.38653  0.38653  0.00000  0.22693
      11     C     3.09586  3.09586  0.00000 -0.19173
      12     N     3.24032  3.24032  0.00000  0.51935
      13     H     0.36492  0.36492  0.00000  0.27015
      14     O     4.23508  4.23508  0.00000 -0.47016
      15     O     4.23199  4.23199  0.00000 -0.46397

   Total alpha = 36.00000, Total beta = 36.00000, Total charge =  0.00000
