  ==> Input File <==

--------------------------------------------------------------------------
set {
	reference rhf
	basis 6-31G*
}

set_num_threads( 4 )
memory 2 gb

molecule MOL {
0 1

H	 -0.821032	 -1.655889	 0.000000
O	 -1.037828	 -0.728600	 0.000000
C	 0.100509	 -0.036935	 0.000000
C	 0.578273	 0.253359	 -1.394049
O	 0.643661	 0.293090	 1.002642
H	 0.731741	 -0.677297	 -1.927943
H	 1.500032	 0.813429	 -1.351244
H	 -0.177022	 0.818339	 -1.927943

	symmetry c1
}
set optking {
	frozen_dihedral = ("
		4 3 2 1
	")
}

ee = optimize('scf')
oeprop('DIPOLE', 'QUADRUPOLE', 'MULLIKEN_CHARGES')
f=open( 'psi4out.xyz', 'w' )
f.write( "8  " )
f.write( str(ee) + "\n" )
f.write( MOL.save_string_xyz() )
f.close()
--------------------------------------------------------------------------

    Molecular point group: c1
  Charge       = 0
  Multiplicity = 1
  Basis Set: 6-31G*
  Basis Set:
  @DF-RHF Final Energy:  -227.78680333474020
    Total Energy =                       -227.7868033347401422
    Molecular point group: c1
  Basis Set: 6-31G*
  Basis Set:
  Basis Set: 6-31G*
  Basis Set:
  @DF-RHF Final Energy:  -227.78827483561867
    Total Energy =                       -227.7882748356187221
  Basis Set: 6-31G*
  Basis Set:
  Basis Set: 6-31G*
  Basis Set:
  @DF-RHF Final Energy:  -227.78808195347733
    Total Energy =                       -227.7880819534774730
  Basis Set: 6-31G*
  Basis Set:
  Basis Set: 6-31G*
  Basis Set:
  @DF-RHF Final Energy:  -227.78843241271676
    Total Energy =                       -227.7884324127167304
  Basis Set: 6-31G*
  Basis Set:
  Basis Set: 6-31G*
  Basis Set:
  @DF-RHF Final Energy:  -227.78843740809253
    Total Energy =                       -227.7884374080925056
  Basis Set: 6-31G*
  Basis Set:
  Charge       = 0
  Multiplicity = 1
  Basis Set: 6-31G*
  Basis Set:

    Orbital Energies (a.u.)
    -----------------------

    Doubly Occupied:

       1A    -20.596085     2A    -20.564594     3A    -11.386328
       4A    -11.243031     5A     -1.462261     6A     -1.369676
       7A     -1.023000     8A     -0.826290     9A     -0.709130
      10A     -0.669463    11A     -0.660655    12A     -0.590879
      13A     -0.577037    14A     -0.506428    15A     -0.503743
      16A     -0.450391

  @DF-RHF Final Energy:  -227.78843777955115

   => Energetics <=

    Nuclear Repulsion Energy =            121.6712559663724278
    One-Electron Energy =                -552.6414092191205327
    Two-Electron Energy =                 203.1817154731969595
    DFT Exchange-Correlation Energy =       0.0000000000000000
    Empirical Dispersion Energy =           0.0000000000000000
    PCM Polarization Energy =               0.0000000000000000
    EFP Energy =                            0.0000000000000000
    Total Energy =                       -227.7884377795511455
    Molecular point group: c1
  Basis Set: 6-31G*
  Basis Set:

  -Total Gradient:
     Atom            X                  Y                   Z
    ------   -----------------  -----------------  -----------------
       1       -0.000042449899    -0.000009115081    -0.001947919694
       2        0.000399938400    -0.000416397130     0.002434735909
       3       -0.001048949841     0.001459563702    -0.000490943827
       4        0.000656009962    -0.001059539326    -0.000010263986
       5        0.000030964470     0.000020783507     0.000016658482
       6       -0.000002189494     0.000004921342     0.000001138023
       7        0.000003411138     0.000002598594    -0.000003528498
       8        0.000003265265    -0.000002815609     0.000000123593

  **** Optimization is complete! (in 6 steps) ****
    Final optimized geometry and variables:
    Molecular point group: c1

    Geometry (in Angstrom), charge = 0, multiplicity = 1:

    H           -0.943924951803    -1.601322917024     0.121420000919
    O           -1.104796824518    -0.665391972234     0.122853346634
    C            0.058760859726     0.042964559894     0.094664918987
    C            0.536907423243     0.349909869948    -1.298719168540
    O            0.596164672534     0.392677984503     1.083736402917
    H            0.703274951287    -0.574437236691    -1.842639753864
    H            1.450790229020     0.924018823327    -1.261975023729
    H           -0.230299068889     0.902021689021    -1.829792474009

  Mulliken Charges: (a.u.)
   Center  Symbol    Alpha    Beta     Spin     Total
       1     H     0.26573  0.26573  0.00000  0.46854
       2     O     4.36465  4.36465  0.00000 -0.72931
       3     C     2.64422  2.64422  0.00000  0.71157
       4     C     3.28480  3.28480  0.00000 -0.56959
       5     O     4.24047  4.24047  0.00000 -0.48095
       6     H     0.40853  0.40853  0.00000  0.18295
       7     H     0.39557  0.39557  0.00000  0.20886
       8     H     0.39603  0.39603  0.00000  0.20794

   Total alpha = 16.00000, Total beta = 16.00000, Total charge = -0.00000
