                              Psi4 1.0.54 Driver

  ==> Input File <==

--------------------------------------------------------------------------
set {
	reference rhf
	basis cc-pvtz
}

set_num_threads( 4 )
memory 2 gb

molecule MOL {
0 1

H	 -3.737770	 -2.558564	 1.311209
C	 -3.169951	 -1.687927	 1.054536
C	 -1.964823	 -1.827042	 0.558894
H	 -3.606257	 -0.720732	 1.209356
O	 -1.189946	 -0.765863	 0.237511
H	 -1.521185	 -2.791599	 0.391732
C	 0.026572	 -0.995256	 -0.379403
C	 1.057223	 0.049888	 -0.004615
H	 -0.054361	 -1.010670	 -1.459674
H	 0.397526	 -1.952058	 -0.044198
F	 2.203233	 -0.234060	 -0.590375
F	 0.698147	 1.254887	 -0.392621
F	 1.266440	 0.094219	 1.288722

	symmetry c1
}
set optking {
	frozen_dihedral = ("
		3 5 7 9
	")
}

ee,wfn = optimize('scf', return_wfn=True)
oeprop( wfn, 'DIPOLE', 'QUADRUPOLE', 'MULLIKEN_CHARGES')
f=open( 'psi4out.xyz', 'w' )
f.write( "13  " )
f.write( str(ee) + "\n" )
f.write( MOL.save_string_xyz() )
f.close()
--------------------------------------------------------------------------

    Molecular point group: c1
  Charge       = 0
  Multiplicity = 1
  Basis Set: CC-PVTZ
  Basis Set:
  @DF-RHF Final Energy:  -527.74005360190654
    Total Energy =                       -527.7400536019065385
    Molecular point group: c1
  Basis Set: CC-PVTZ
  Basis Set:
  Basis Set: CC-PVTZ
  Basis Set:
  @DF-RHF Final Energy:  -527.74117024292059
    Total Energy =                       -527.7411702429205889
  Basis Set: CC-PVTZ
  Basis Set:
  Basis Set: CC-PVTZ
  Basis Set:
  @DF-RHF Final Energy:  -527.74143110212617
    Total Energy =                       -527.7414311021259437
  Basis Set: CC-PVTZ
  Basis Set:
  Basis Set: CC-PVTZ
  Basis Set:
  @DF-RHF Final Energy:  -527.74148473799949
    Total Energy =                       -527.7414847379990306
  Basis Set: CC-PVTZ
  Basis Set:
  @DF-RHF Final Energy:  -527.74151916979019
    Total Energy =                       -527.7415191697900809
  Basis Set: CC-PVTZ
  Basis Set:
  @DF-RHF Final Energy:  -527.74157385919932
    Total Energy =                       -527.7415738591990930
  Basis Set: CC-PVTZ
  Basis Set:
  Basis Set: CC-PVTZ
  Basis Set:
  @DF-RHF Final Energy:  -527.74158485528744
    Total Energy =                       -527.7415848552873285
  Basis Set: CC-PVTZ
  Basis Set:
  Basis Set: CC-PVTZ
  Basis Set:
  @DF-RHF Final Energy:  -527.74158624029587
    Total Energy =                       -527.7415862402959874
  Basis Set: CC-PVTZ
  Basis Set:
  Charge       = 0
  Multiplicity = 1
  Basis Set: CC-PVTZ
  Basis Set:

    Orbital Energies (a.u.)
    -----------------------

    Doubly Occupied:

       1A    -26.339772     2A    -26.336646     3A    -26.336150
       4A    -20.603046     5A    -11.497744     6A    -11.319638
       7A    -11.300951     8A    -11.218498     9A     -1.748436
      10A     -1.644545    11A     -1.643083    12A     -1.445303
      13A     -1.091099    14A     -1.019967    15A     -0.929904
      16A     -0.844535    17A     -0.838167    18A     -0.812207
      19A     -0.805304    20A     -0.730045    21A     -0.719492
      22A     -0.705932    23A     -0.684640    24A     -0.664808
      25A     -0.659708    26A     -0.648250    27A     -0.641294
      28A     -0.589902    29A     -0.563838    30A     -0.531059
      31A     -0.513364    32A     -0.361756

  @DF-RHF Final Energy:  -527.74158649488311

   => Energetics <=

    Nuclear Repulsion Energy =            408.0230005335539545
    One-Electron Energy =               -1539.9510065967690480
    Two-Electron Energy =                 604.1864195683322123
    DFT Exchange-Correlation Energy =       0.0000000000000000
    Empirical Dispersion Energy =           0.0000000000000000
    PCM Polarization Energy =               0.0000000000000000
    EFP Energy =                            0.0000000000000000
    Total Energy =                       -527.7415864948827675
    Molecular point group: c1
  Basis Set: CC-PVTZ
  Basis Set:

  -Total Gradient:
     Atom            X                  Y                   Z
    ------   -----------------  -----------------  -----------------
       1        0.000002966658     0.000003538058     0.000016458314
       2        0.000005559316    -0.000011598203     0.000006774642
       3        0.000262640770    -0.000109379645     0.000456203050
       4       -0.000004005733     0.000006531242     0.000001039679
       5       -0.000362128282     0.000351678191    -0.000761538210
       6       -0.000003081505    -0.000001703039     0.000024055546
       7       -0.000074105975    -0.000946805408     0.000278749638
       8       -0.000017728679    -0.000018146720    -0.000013183291
       9        0.000174275154     0.000706667937    -0.000003134325
      10        0.000013790421    -0.000000738768    -0.000007335317
      11       -0.000009212447     0.000003157546    -0.000002818462
      12        0.000008477361     0.000020203581    -0.000005829704
      13        0.000002552943    -0.000003404781     0.000010558441

  **** Optimization is complete! (in 9 steps) ****
    Final optimized geometry and variables:
    Molecular point group: c1

    Geometry (in Angstrom), charge = 0, multiplicity = 1:

    H           -3.858293625399    -1.971951746744     1.050230737565
    C           -3.263001759089    -1.137550889164     0.740142962604
    C           -1.987883474512    -1.310091310207     0.490372314062
    H           -3.725369320213    -0.173478981870     0.658766896447
    O           -1.170095153089    -0.289732041953     0.153297529772
    H           -1.513171561000    -2.272439511245     0.569545533820
    C           -0.021533762621    -0.597068353126    -0.555891943698
    C            1.035261451278     0.433633209977    -0.232931334267
    H           -0.196804777892    -0.567539372841    -1.624987845010
    H            0.378263198757    -1.567499173182    -0.287416358137
    F            2.127220314749     0.165485861573    -0.921909534502
    F            0.653098292757     1.648425494391    -0.545730900014
    F            1.354060522845     0.426874482149     1.040168251587

  Mulliken Charges: (a.u.)
   Center  Symbol    Alpha    Beta     Spin     Total
       1     H     0.42493  0.42493  0.00000  0.15014
       2     C     3.19133  3.19133  0.00000 -0.38266
       3     C     2.96806  2.96806  0.00000  0.06389
       4     H     0.42320  0.42320  0.00000  0.15359
       5     O     4.14162  4.14162  0.00000 -0.28324
       6     H     0.43586  0.43586  0.00000  0.12828
       7     C     3.00066  3.00066  0.00000 -0.00133
       8     C     2.67394  2.67394  0.00000  0.65211
       9     H     0.45321  0.45321  0.00000  0.09358
      10     H     0.45986  0.45986  0.00000  0.08029
      11     F     4.61251  4.61251  0.00000 -0.22503
      12     F     4.60671  4.60671  0.00000 -0.21342
      13     F     4.60810  4.60810  0.00000 -0.21620

   Total alpha = 32.00000, Total beta = 32.00000, Total charge = -0.00000

*** Psi4 exiting successfully. Buy a developer a beer!
