  ==> Input File <==

--------------------------------------------------------------------------
set {
	reference rhf
	basis 6-31G*
}

set_num_threads( 4 )
memory 2 gb

molecule MOL {
0 1

H	 2.287376	 -1.918087	 -0.079581
O	 2.826016	 -1.159218	 0.122261
C	 2.077727	 -0.067559	 -0.035091
C	 0.624473	 -0.343591	 0.253101
O	 2.542965	 0.974826	 -0.363729
C	 -0.265902	 0.883932	 0.072916
H	 0.324016	 -1.163849	 -0.390541
H	 0.565024	 -0.726111	 1.268924
C	 -1.728698	 0.646073	 0.462102
H	 -0.209144	 1.219470	 -0.958188
H	 0.135059	 1.692851	 0.673903
C	 -2.482460	 -0.343073	 -0.431425
H	 -2.245265	 1.602650	 0.432430
H	 -1.779332	 0.308348	 1.496285
C	 -3.960546	 -0.461025	 -0.060175
H	 -2.395034	 -0.026811	 -1.468912
H	 -2.024850	 -1.327147	 -0.371646
H	 -4.472726	 -1.168004	 -0.705284
H	 -4.465146	 0.496508	 -0.151489
H	 -4.081218	 -0.800940	 0.964585

	symmetry c1
}
set optking {
	frozen_dihedral = ("
		1 2 3 5
	")
}

ee = optimize('scf')
oeprop('DIPOLE', 'QUADRUPOLE', 'MULLIKEN_CHARGES')
f=open( 'psi4out.xyz', 'w' )
f.write( "20  " )
f.write( str(ee) + "\n" )
f.write( MOL.save_string_xyz() )
f.close()
--------------------------------------------------------------------------

    Molecular point group: c1
  Charge       = 0
  Multiplicity = 1
  Basis Set: 6-31G*
  Basis Set:
  @DF-RHF Final Energy:  -383.93315104146211
    Total Energy =                       -383.9331510414617696
    Molecular point group: c1
  Basis Set: 6-31G*
  Basis Set:
  Basis Set: 6-31G*
  Basis Set:
  @DF-RHF Final Energy:  -383.93455456897573
    Total Energy =                       -383.9345545689754431
  Basis Set: 6-31G*
  Basis Set:
  Basis Set: 6-31G*
  Basis Set:
  @DF-RHF Final Energy:  -383.93472798990308
    Total Energy =                       -383.9347279899030241
  Basis Set: 6-31G*
  Basis Set:
  Basis Set: 6-31G*
  Basis Set:
  @DF-RHF Final Energy:  -383.93473104972628
    Total Energy =                       -383.9347310497265653
  Basis Set: 6-31G*
  Basis Set:
  Basis Set: 6-31G*
  Basis Set:
  @DF-RHF Final Energy:  -383.93472588929632
    Total Energy =                       -383.9347258892963168
  Basis Set: 6-31G*
  Basis Set:
  Basis Set: 6-31G*
  Basis Set:
  @DF-RHF Final Energy:  -383.93473218963021
    Total Energy =                       -383.9347321896302674
  Basis Set: 6-31G*
  Basis Set:
  Charge       = 0
  Multiplicity = 1
  Basis Set: 6-31G*
  Basis Set:

    Orbital Energies (a.u.)
    -----------------------

    Doubly Occupied:

       1A    -20.608086     2A    -20.550772     3A    -11.380488
       4A    -11.250739     5A    -11.228224     6A    -11.225938
       7A    -11.225068     8A    -11.216670     9A     -1.465697
      10A     -1.369806    11A     -1.101032    12A     -1.044065
      13A     -0.960715    14A     -0.866289    15A     -0.828510
      16A     -0.792151    17A     -0.719733    18A     -0.669640
      19A     -0.659373    20A     -0.637836    21A     -0.612050
      22A     -0.593407    23A     -0.575402    24A     -0.563944
      25A     -0.539021    26A     -0.518082    27A     -0.499990
      28A     -0.482659    29A     -0.474820    30A     -0.469429
      31A     -0.462253    32A     -0.440515

  @DF-RHF Final Energy:  -383.93473214996379

   => Energetics <=

    Nuclear Repulsion Energy =            375.7590116627850421
    One-Electron Energy =               -1267.3226794845381846
    Two-Electron Energy =                 507.6289356717891792
    DFT Exchange-Correlation Energy =       0.0000000000000000
    Empirical Dispersion Energy =           0.0000000000000000
    PCM Polarization Energy =               0.0000000000000000
    EFP Energy =                            0.0000000000000000
    Total Energy =                       -383.9347321499639634
    Molecular point group: c1
  Basis Set: 6-31G*
  Basis Set:

  -Total Gradient:
     Atom            X                  Y                   Z
    ------   -----------------  -----------------  -----------------
       1        0.001683569726     0.000432581099    -0.005980165459
       2       -0.002483277516    -0.001133579538     0.005253531722
       3        0.001561187629     0.001997325737     0.005907200733
       4       -0.000006730753     0.000001823960    -0.000001462975
       5       -0.000775615237    -0.001294242738    -0.005169907848
       6       -0.000001537236    -0.000000253486    -0.000002506443
       7        0.000004189266    -0.000000556365    -0.000004735325
       8        0.000002738398    -0.000001974111     0.000003250869
       9        0.000015715313    -0.000017938376     0.000014130323
      10       -0.000004296941    -0.000007665150    -0.000002426437
      11       -0.000003835169     0.000012253928     0.000001630426
      12       -0.000006348233     0.000013058864    -0.000017537563
      13        0.000019757175     0.000003591136    -0.000002222248
      14        0.000000787336    -0.000001138988     0.000003468769
      15        0.000002084847    -0.000007294623     0.000005410452
      16       -0.000005478184     0.000002276500    -0.000008378963
      17       -0.000004301988     0.000003685867     0.000000076326
      18        0.000001413910    -0.000003898430     0.000003436096
      19        0.000000694389    -0.000001833037    -0.000004912123
      20       -0.000000716743     0.000003777751     0.000002119668

  **** Optimization is complete! (in 7 steps) ****
    Final optimized geometry and variables:
    Molecular point group: c1

    Geometry (in Angstrom), charge = 0, multiplicity = 1:

    H            2.455170207623    -1.945289029900    -0.068487997002
    O            2.902079690980    -1.129969688689     0.116923092279
    C            2.090974674407    -0.069013749712    -0.032553539567
    C            0.628588274137    -0.343642128499     0.253304247958
    O            2.529385824133     0.976405399972    -0.362787888676
    C           -0.260769369526     0.884886608802     0.073190535915
    H            0.309674075310    -1.157130923362    -0.395312461327
    H            0.561538094970    -0.725478480800     1.269910307580
    C           -1.724011739128     0.652034969907     0.463092624457
    H           -0.201205568915     1.219552655937    -0.957669960104
    H            0.145435864480     1.690490902365     0.674207913926
    C           -2.483853368208    -0.332294889797    -0.430714785337
    H           -2.235550077106     1.611121772935     0.434179284452
    H           -1.776012173329     0.314459474156     1.497244777568
    C           -3.962585179018    -0.441525660924    -0.059463313921
    H           -2.394402287844    -0.016775444710    -1.468216484224
    H           -2.032818735615    -1.319837301609    -0.370938891456
    H           -4.478710055316    -1.146387398943    -0.703660537383
    H           -4.461348099826     0.518753667906    -0.152428429392
    H           -4.085352572364    -0.778993554597     0.965819285119

  Mulliken Charges: (a.u.)
   Center  Symbol    Alpha    Beta     Spin     Total
       1     H     0.26949  0.26949  0.00000  0.46103
       2     O     4.35580  4.35580  0.00000 -0.71161
       3     C     2.61059  2.61059  0.00000  0.77882
       4     C     3.23265  3.23265  0.00000 -0.46531
       5     O     4.25869  4.25869  0.00000 -0.51737
       6     C     3.15274  3.15274  0.00000 -0.30547
       7     H     0.40987  0.40987  0.00000  0.18025
       8     H     0.39985  0.39985  0.00000  0.20030
       9     C     3.15631  3.15631  0.00000 -0.31262
      10     H     0.41051  0.41051  0.00000  0.17899
      11     H     0.40468  0.40468  0.00000  0.19063
      12     C     3.15469  3.15469  0.00000 -0.30937
      13     H     0.41630  0.41630  0.00000  0.16739
      14     H     0.42347  0.42347  0.00000  0.15306
      15     C     3.23927  3.23927  0.00000 -0.47854
      16     H     0.42069  0.42069  0.00000  0.15862
      17     H     0.42567  0.42567  0.00000  0.14865
      18     H     0.41803  0.41803  0.00000  0.16394
      19     H     0.41959  0.41959  0.00000  0.16082
      20     H     0.42110  0.42110  0.00000  0.15780

   Total alpha = 32.00000, Total beta = 32.00000, Total charge =  0.00000
