  ==> Input File <==

--------------------------------------------------------------------------
set {
	reference rhf
	basis 6-31G*
}

set_num_threads( 4 )
memory 2 gb

molecule MOL {
0 1

O	 -2.821601	 1.309235	 -0.001213
C	 -2.668563	 0.129746	 -0.000350
C	 -3.801572	 -0.864014	 -0.000442
O	 -1.481751	 -0.454642	 0.000584
H	 -4.417280	 -0.689587	 -0.874708
H	 -3.443784	 -1.883046	 -0.000565
H	 -4.417179	 -0.689832	 0.873954
C	 -0.334255	 0.388708	 0.000906
C	 0.891947	 -0.504646	 0.000751
H	 -0.365390	 1.025305	 -0.873475
H	 -0.365484	 1.024911	 0.875569
C	 2.191998	 0.301789	 0.000897
H	 0.855148	 -1.151283	 -0.871571
H	 0.855132	 -1.151660	 0.872805
C	 3.441114	 -0.581407	 0.000108
H	 2.215074	 0.954890	 -0.869742
H	 2.215465	 0.953923	 0.872248
C	 3.185378	 -1.973498	 -0.575694
H	 3.816166	 -0.674103	 1.016877
H	 4.226488	 -0.092361	 -0.571811
H	 2.427649	 -2.501434	 -0.003729
H	 4.088523	 -2.575492	 -0.562668
H	 2.841392	 -1.915346	 -1.604432

	symmetry c1
}
set optking {
	frozen_dihedral = ("
		19 15 12 16
	")
}

ee = optimize('scf')
oeprop('DIPOLE', 'QUADRUPOLE', 'MULLIKEN_CHARGES')
f=open( 'psi4out.xyz', 'w' )
f.write( "23  " )
f.write( str(ee) + "\n" )
f.write( MOL.save_string_xyz() )
f.close()
--------------------------------------------------------------------------

    Molecular point group: c1
  Charge       = 0
  Multiplicity = 1
  Basis Set: 6-31G*
  Basis Set:
  @DF-RHF Final Energy:  -422.96969337902095
    Total Energy =                       -422.9696933790213507
    Molecular point group: c1
  Basis Set: 6-31G*
  Basis Set:
  Basis Set: 6-31G*
  Basis Set:
  @DF-RHF Final Energy:  -422.97077936556195
    Total Energy =                       -422.9707793655619525
  Basis Set: 6-31G*
  Basis Set:
  Basis Set: 6-31G*
  Basis Set:
  @DF-RHF Final Energy:  -422.97290335734226
    Total Energy =                       -422.9729033573428296
  Basis Set: 6-31G*
  Basis Set:
  Basis Set: 6-31G*
  Basis Set:
  @DF-RHF Final Energy:  -422.97311953596034
    Total Energy =                       -422.9731195359604499
  Basis Set: 6-31G*
  Basis Set:
  @DF-RHF Final Energy:  -422.97309212618427
    Total Energy =                       -422.9730921261844969
  @DF-RHF Final Energy:  -422.97301088083003
    Total Energy =                       -422.9730108808305431
  Basis Set: 6-31G*
  Basis Set:
  @DF-RHF Final Energy:  -422.97315077636159
    Total Energy =                       -422.9731507763615355
  Basis Set: 6-31G*
  Basis Set:
  Basis Set: 6-31G*
  Basis Set:
  @DF-RHF Final Energy:  -422.97315465704071
    Total Energy =                       -422.9731546570402543
  Basis Set: 6-31G*
  Basis Set:
  Basis Set: 6-31G*
  Basis Set:
  @DF-RHF Final Energy:  -422.97315579539406
    Total Energy =                       -422.9731557953939500
  Basis Set: 6-31G*
  Basis Set:
  Charge       = 0
  Multiplicity = 1
  Basis Set: 6-31G*
  Basis Set:

    Orbital Energies (a.u.)
    -----------------------

    Doubly Occupied:

       1A    -20.602946     2A    -20.540490     3A    -11.374052
       4A    -11.281412     5A    -11.232364     6A    -11.224471
       7A    -11.223833     8A    -11.222018     9A    -11.213290
      10A     -1.467920    11A     -1.360698    12A     -1.092549
      13A     -1.040068    14A     -1.001683    15A     -0.931608
      16A     -0.858588    17A     -0.789713    18A     -0.769270
      19A     -0.691593    20A     -0.684633    21A     -0.670000
      22A     -0.640075    23A     -0.609274    24A     -0.602283
      25A     -0.574177    26A     -0.567569    27A     -0.550618
      28A     -0.538142    29A     -0.527846    30A     -0.506804
      31A     -0.499362    32A     -0.472244    33A     -0.467072
      34A     -0.458328    35A     -0.451287    36A     -0.435381

  @DF-RHF Final Energy:  -422.97315582166993

   => Energetics <=

    Nuclear Repulsion Energy =            454.8048473161201173
    One-Electron Energy =               -1477.2086845999526759
    Two-Electron Energy =                 599.4306814621633066
    DFT Exchange-Correlation Energy =       0.0000000000000000
    Empirical Dispersion Energy =           0.0000000000000000
    PCM Polarization Energy =               0.0000000000000000
    EFP Energy =                            0.0000000000000000
    Total Energy =                       -422.9731558216692520
    Molecular point group: c1
  Basis Set: 6-31G*
  Basis Set:

  -Total Gradient:
     Atom            X                  Y                   Z
    ------   -----------------  -----------------  -----------------
       1       -0.000000283503     0.000001442668     0.000009379950
       2        0.000003233398     0.000002201135    -0.000024032180
       3        0.000001960199    -0.000000628472     0.000013813611
       4        0.000000192785    -0.000003090340     0.000000165823
       5        0.000002875544     0.000000005675    -0.000002289194
       6       -0.000000061167    -0.000000519294    -0.000000152805
       7       -0.000001335447     0.000000781279    -0.000002078653
       8       -0.000002310254    -0.000000889090     0.000009756849
       9       -0.000007372587    -0.000000317816     0.000003062815
      10       -0.000002491179     0.000000618185    -0.000003096957
      11        0.000001220935    -0.000001221100    -0.000000982001
      12       -0.002448512430    -0.004232045794    -0.004290374513
      13        0.000000236071    -0.000003145686    -0.000000275643
      14       -0.000004538062     0.000004661439    -0.000000643820
      15       -0.003487158851    -0.005233768246     0.001663005021
      16        0.002610313592     0.004388746015     0.003346241105
      17        0.000004562396     0.000008116213    -0.000006330229
      18        0.000004511468    -0.000006897840    -0.000003594847
      19        0.003315426138     0.005076601553    -0.000719425740
      20        0.000004095066     0.000001541781     0.000010303746
      21        0.000007702721    -0.000000838755    -0.000001294007
      22        0.000002045884    -0.000001414802    -0.000003182522
      23       -0.000004312704     0.000000061288     0.000002024192

  **** Optimization is complete! (in 10 steps) ****
    Final optimized geometry and variables:
    Molecular point group: c1

    Geometry (in Angstrom), charge = 0, multiplicity = 1:

    O           -2.642093564904     1.608819963985     0.082700509170
    C           -2.520006740007     0.425712273251     0.084297707424
    C           -3.678704305423    -0.537850288269     0.100364503219
    O           -1.349101399231    -0.189759420081     0.072474980672
    H           -4.300921375661    -0.348270820337    -0.766093686685
    H           -3.347926605600    -1.565968398015     0.097198760716
    H           -4.278091852628    -0.346476843202     0.982407555778
    C           -0.179807585095     0.623068462832     0.057105245231
    C            1.022025196698    -0.303031084698     0.043413395636
    H           -0.204458618569     1.258340481795    -0.818538267820
    H           -0.184006258667     1.261687334714     0.930452259153
    C            2.333237377540     0.483970511220     0.013756911237
    H            0.944351906344    -0.957508915424    -0.818148383400
    H            0.984577564378    -0.936688637426     0.925325503137
    C            3.629366841158    -0.351881564618     0.098687450931
    H            2.372763703000     1.127333191776    -0.862348696981
    H            2.334998204693     1.176527597231     0.853565582206
    C            3.585288839641    -1.741982856545    -0.534784626718
    H            3.951029806631    -0.415935751410     1.134729404759
    H            4.416545365804     0.217234879708    -0.390065877156
    H            2.880459022744    -2.397534632246    -0.034781590910
    H            4.562772876446    -2.210716064918    -0.480305956905
    H            3.304789406773    -1.690235156314    -1.583010604334

  Mulliken Charges: (a.u.)
   Center  Symbol    Alpha    Beta     Spin     Total
       1     O     4.28393  4.28393  0.00000 -0.56786
       2     C     2.61535  2.61535  0.00000  0.76930
       3     C     3.28774  3.28774  0.00000 -0.57548
       4     O     4.31291  4.31291  0.00000 -0.62582
       5     H     0.39750  0.39750  0.00000  0.20500
       6     H     0.39990  0.39990  0.00000  0.20021
       7     H     0.39751  0.39751  0.00000  0.20498
       8     C     2.99523  2.99523  0.00000  0.00954
       9     C     3.16722  3.16722  0.00000 -0.33444
      10     H     0.41062  0.41062  0.00000  0.17875
      11     H     0.41062  0.41062  0.00000  0.17875
      12     C     3.16436  3.16436  0.00000 -0.32872
      13     H     0.41158  0.41158  0.00000  0.17685
      14     H     0.41421  0.41421  0.00000  0.17157
      15     C     3.15329  3.15329  0.00000 -0.30657
      16     H     0.41914  0.41914  0.00000  0.16171
      17     H     0.41947  0.41947  0.00000  0.16105
      18     C     3.24337  3.24337  0.00000 -0.48673
      19     H     0.41978  0.41978  0.00000  0.16044
      20     H     0.41938  0.41938  0.00000  0.16125
      21     H     0.41857  0.41857  0.00000  0.16287
      22     H     0.41755  0.41755  0.00000  0.16489
      23     H     0.42077  0.42077  0.00000  0.15845

   Total alpha = 36.00000, Total beta = 36.00000, Total charge =  0.00000
