  ==> Input File <==

--------------------------------------------------------------------------
set {
	reference rhf
	basis 6-31G*
}

set_num_threads( 4 )
memory 2 gb

molecule MOL {
0 1

H	 1.396844	 0.777785	 0.888788
C	 0.850167	 0.441173	 0.000644
C	 -0.623425	 0.760064	 0.000248
O	 1.421199	 -0.126662	 -0.872987
C	 -1.518387	 -0.473136	 -0.000101
H	 -0.818289	 1.390622	 -0.866171
H	 -0.818694	 1.390413	 0.866696
H	 -1.333417	 -1.085530	 -0.874338
H	 -2.563510	 -0.183466	 -0.000351
H	 -1.333864	 -1.085676	 0.874123

	symmetry c1
}
set optking {
	frozen_dihedral = ("
		4 2 3 6
	")
}

ee = optimize('scf')
oeprop('DIPOLE', 'QUADRUPOLE', 'MULLIKEN_CHARGES')
f=open( 'psi4out.xyz', 'w' )
f.write( "10  " )
f.write( str(ee) + "\n" )
f.write( MOL.save_string_xyz() )
f.close()
--------------------------------------------------------------------------

    Molecular point group: c1
  Charge       = 0
  Multiplicity = 1
  Basis Set: 6-31G*
  Basis Set:
  @DF-RHF Final Energy:  -191.94800628159842
    Total Energy =                       -191.9480062815984240
    Molecular point group: c1
  Basis Set: 6-31G*
  Basis Set:
  Basis Set: 6-31G*
  Basis Set:
  @DF-RHF Final Energy:  -191.94870326949004
    Total Energy =                       -191.9487032694900961
  Basis Set: 6-31G*
  Basis Set:
  Basis Set: 6-31G*
  Basis Set:
  @DF-RHF Final Energy:  -191.94760308938027
    Total Energy =                       -191.9476030893803227
  Basis Set: 6-31G*
  Basis Set:
  Basis Set: 6-31G*
  Basis Set:
  @DF-RHF Final Energy:  -191.94876593644506
    Total Energy =                       -191.9487659364449428
  Basis Set: 6-31G*
  Basis Set:
  Basis Set: 6-31G*
  Basis Set:
  @DF-RHF Final Energy:  -191.94877403942610
    Total Energy =                       -191.9487740394261550
  Basis Set: 6-31G*
  Basis Set:
  Charge       = 0
  Multiplicity = 1
  Basis Set: 6-31G*
  Basis Set:

    Orbital Energies (a.u.)
    -----------------------

    Doubly Occupied:

       1A    -20.563896     2A    -11.328693     3A    -11.238609
       4A    -11.227001     5A     -1.404373     6A     -1.060124
       7A     -0.905355     8A     -0.783287     9A     -0.683005
      10A     -0.638665    11A     -0.609798    12A     -0.566580
      13A     -0.536665    14A     -0.511123    15A     -0.491757
      16A     -0.412224

  @DF-RHF Final Energy:  -191.94877412040555

   => Energetics <=

    Nuclear Repulsion Energy =            118.5829212028672544
    One-Electron Energy =                -495.1410753051251277
    Two-Electron Energy =                 184.6093799818523848
    DFT Exchange-Correlation Energy =       0.0000000000000000
    Empirical Dispersion Energy =           0.0000000000000000
    PCM Polarization Energy =               0.0000000000000000
    EFP Energy =                            0.0000000000000000
    Total Energy =                       -191.9487741204054601
    Molecular point group: c1
  Basis Set: 6-31G*
  Basis Set:

  -Total Gradient:
     Atom            X                  Y                   Z
    ------   -----------------  -----------------  -----------------
       1       -0.000006763132     0.000001272181    -0.000004018322
       2       -0.000185282252    -0.000822022934     0.000318740259
       3        0.000165317327     0.000763130844     0.000261054113
       4        0.000123905325     0.000499131003    -0.000277913541
       5        0.000021093307     0.000018987797    -0.000011220752
       6       -0.000111112770    -0.000471569654    -0.000285050540
       7       -0.000005835047     0.000015717354     0.000005079821
       8       -0.000002273156    -0.000015320386    -0.000002021478
       9        0.000000296161     0.000006374082    -0.000001033394
      10        0.000000654238     0.000004299714    -0.000003616165

  **** Optimization is complete! (in 6 steps) ****
    Final optimized geometry and variables:
    Molecular point group: c1

    Geometry (in Angstrom), charge = 0, multiplicity = 1:

    H            1.431112185832     0.652456361756     1.076667987018
    C            0.831653695405     0.309721629110     0.226792961018
    C           -0.641738040943     0.657198397588     0.244722761532
    O            1.343493762504    -0.303070397519    -0.653849149707
    C           -1.519091694122    -0.599589635189     0.216828506851
    H           -0.842433799312     1.257422127517    -0.638191077821
    H           -0.866009175469     1.264821228875     1.115225741348
    H           -1.286498254290    -1.201525228937    -0.652563380053
    H           -2.568134674725    -0.328324881990     0.178146918692
    H           -1.363985847658    -1.208642507844     1.101777488407

  Mulliken Charges: (a.u.)
   Center  Symbol    Alpha    Beta     Spin     Total
       1     H     0.42618  0.42618  0.00000  0.14765
       2     C     2.84515  2.84515  0.00000  0.30971
       3     C     3.20015  3.20015  0.00000 -0.40031
       4     O     4.23587  4.23587  0.00000 -0.47175
       5     C     3.24463  3.24463  0.00000 -0.48926
       6     H     0.39973  0.39973  0.00000  0.20054
       7     H     0.41560  0.41560  0.00000  0.16880
       8     H     0.40239  0.40239  0.00000  0.19521
       9     H     0.41366  0.41366  0.00000  0.17269
      10     H     0.41664  0.41664  0.00000  0.16672

   Total alpha = 16.00000, Total beta = 16.00000, Total charge =  0.00000
