  ==> Input File <==

--------------------------------------------------------------------------
set {
	reference rhf
	basis 6-31G*
}

set_num_threads( 1 )
memory 2 gb

molecule MOL {
0 1

H	 -2.798360	 -0.862255	 -0.071053
N	 -1.863561	 -0.715187	 0.256814
C	 -1.344686	 0.554728	 -0.219830
H	 -1.300452	 -1.461917	 -0.101532
C	 -2.057076	 1.697200	 0.473274
H	 -0.271358	 0.675537	 -0.066950
H	 -1.531874	 0.627503	 -1.286810
O	 -1.748337	 1.643871	 1.836697
H	 -1.736591	 2.650640	 0.053893
H	 -3.130564	 1.602191	 0.325516
C	 -2.408665	 2.592341	 2.612547
H	 -2.092254	 2.455532	 3.637664
H	 -2.159879	 3.605057	 2.300308
H	 -3.488318	 2.469538	 2.557060

	symmetry c1
}
set optking {
	frozen_dihedral = ("
		8 5 3 6,
		5 8 11 13,
		11 8 5 3
	")
}

ee = energy('scf')
oeprop('DIPOLE', 'QUADRUPOLE', 'MULLIKEN_CHARGES')
f=open( 'psi4out.xyz', 'w' )
f.write( "14  " )
f.write( str(ee) + "\n" )
f.write( MOL.save_string_xyz() )
f.close()
--------------------------------------------------------------------------

    Molecular point group: c1

    Geometry (in Angstrom), charge = 0, multiplicity = 1:

       Center              X                  Y                   Z               Mass
    ------------   -----------------  -----------------  -----------------  -----------------
           H         -0.900894890285    -2.011391447294    -1.067097545686     1.007825032070
           N          0.033904109715    -1.864323447294    -0.739230545686    14.003074004780
           C          0.552779109715    -0.594408447294    -1.215874545686    12.000000000000
           H          0.597013109715    -2.611053447294    -1.097576545686     1.007825032070
           C         -0.159610890285     0.548063552706    -0.522770545686    12.000000000000
           H          1.626107109715    -0.473599447294    -1.062994545686     1.007825032070
           H          0.365591109715    -0.521633447294    -2.282854545686     1.007825032070
           O          0.149128109715     0.494734552706     0.840652454314    15.994914619560
           H          0.160874109715     1.501503552706    -0.942151545686     1.007825032070
           H         -1.233098890285     0.453054552706    -0.670528545686     1.007825032070
           C         -0.511199890285     1.443204552706     1.616502454314    12.000000000000
           H         -0.194788890285     1.306395552706     2.641619454314     1.007825032070
           H         -0.262413890285     2.455920552706     1.304263454314     1.007825032070
           H         -1.590852890285     1.320401552706     1.561015454314     1.007825032070

  Charge       = 0
  Multiplicity = 1
  Basis Set: 6-31G*
  Basis Set:

    Orbital Energies (a.u.)
    -----------------------

    Doubly Occupied:

       1A    -20.546986     2A    -15.530010     3A    -11.265560
       4A    -11.259485     5A    -11.242953     6A     -1.371617
       7A     -1.176554     8A     -0.997370     9A     -0.901402
      10A     -0.816580    11A     -0.682328    12A     -0.662894
      13A     -0.645570    14A     -0.616549    15A     -0.590012
      16A     -0.555095    17A     -0.521264    18A     -0.500664
      19A     -0.461392    20A     -0.411526    21A     -0.376790

  @DF-RHF Final Energy:  -248.11693225337686

   => Energetics <=

    Nuclear Repulsion Energy =            194.0998883598934128
    One-Electron Energy =                -722.1683242261651685
    Two-Electron Energy =                 279.9515036128942711
    DFT Exchange-Correlation Energy =       0.0000000000000000
    Empirical Dispersion Energy =           0.0000000000000000
    PCM Polarization Energy =               0.0000000000000000
    EFP Energy =                            0.0000000000000000
    Total Energy =                       -248.1169322533775130

  Mulliken Charges: (a.u.)
   Center  Symbol    Alpha    Beta     Spin     Total
       1     H     0.33537  0.33537  0.00000  0.32926
       2     N     3.91191  3.91191  0.00000 -0.82382
       3     C     3.07405  3.07405  0.00000 -0.14811
       4     H     0.33239  0.33239  0.00000  0.33522
       5     C     2.98490  2.98490  0.00000  0.03019
       6     H     0.41101  0.41101  0.00000  0.17797
       7     H     0.43356  0.43356  0.00000  0.13288
       8     O     4.29667  4.29667  0.00000 -0.59335
       9     H     0.43102  0.43102  0.00000  0.13797
      10     H     0.43538  0.43538  0.00000  0.12923
      11     C     3.07765  3.07765  0.00000 -0.15530
      12     H     0.41176  0.41176  0.00000  0.17648
      13     H     0.43323  0.43323  0.00000  0.13355
      14     H     0.43109  0.43109  0.00000  0.13782

   Total alpha = 21.00000, Total beta = 21.00000, Total charge = -0.00000
