                              Psi4 1.0.54 Driver

  ==> Input File <==

--------------------------------------------------------------------------
set {
	reference rhf
	basis cc-pvtz
}

set_num_threads( 4 )
memory 2 gb

molecule MOL {
0 1

H	 -3.108651	 3.058329	 -0.518058
C	 -3.521279	 2.131112	 -0.097473
C	 -2.653809	 0.914422	 -0.273689
O	 -4.576984	 2.141364	 0.434212
C	 -1.216901	 1.136108	 0.207794
H	 -3.121224	 0.081500	 0.235330
H	 -2.643562	 0.692310	 -1.338520
C	 -0.247837	 0.040196	 -0.230469
H	 -0.872882	 2.093195	 -0.169002
H	 -1.209325	 1.218376	 1.291938
C	 1.181757	 0.280428	 0.247371
H	 -0.259600	 -0.030819	 -1.314870
H	 -0.591284	 -0.923375	 0.136958
C	 2.151032	 -0.811012	 -0.202643
H	 1.515939	 1.247397	 -0.115449
H	 1.191514	 0.341223	 1.333422
C	 3.580021	 -0.656538	 0.320835
H	 2.170545	 -0.847575	 -1.289412
H	 1.766632	 -1.772905	 0.124928
C	 4.327657	 0.562694	 -0.213579
H	 4.138806	 -1.549270	 0.057813
H	 3.561991	 -0.620783	 1.406976
H	 4.355973	 0.557257	 -1.298551
H	 3.867136	 1.491650	 0.100501
H	 5.351524	 0.571613	 0.142204

	symmetry c1
}
set optking {
	frozen_dihedral = ("
		6 3 5 8
	")
}

ee,wfn = optimize('scf', return_wfn=True)
oeprop( wfn, 'DIPOLE', 'QUADRUPOLE', 'MULLIKEN_CHARGES')
f=open( 'psi4out.xyz', 'w' )
f.write( "25  " )
f.write( str(ee) + "\n" )
f.write( MOL.save_string_xyz() )
f.close()
--------------------------------------------------------------------------

    Molecular point group: c1
  Charge       = 0
  Multiplicity = 1
  Basis Set: CC-PVTZ
  Basis Set:
  @DF-RHF Final Energy:  -387.26053925550502
    Total Energy =                       -387.2605392555046819
    Molecular point group: c1
  Basis Set: CC-PVTZ
  Basis Set:
  Basis Set: CC-PVTZ
  Basis Set:
  @DF-RHF Final Energy:  -387.26064135112989
    Total Energy =                       -387.2606413511300616
  Basis Set: CC-PVTZ
  Basis Set:
  Basis Set: CC-PVTZ
  Basis Set:
  @DF-RHF Final Energy:  -387.26002514077999
    Total Energy =                       -387.2600251407798169
  Basis Set: CC-PVTZ
  Basis Set:
  Basis Set: CC-PVTZ
  Basis Set:
  @DF-RHF Final Energy:  -387.26069445499013
    Total Energy =                       -387.2606944549904711
  Basis Set: CC-PVTZ
  Basis Set:
  @DF-RHF Final Energy:  -387.26071260188377
    Total Energy =                       -387.2607126018837107
  Basis Set: CC-PVTZ
  Basis Set:
  @DF-RHF Final Energy:  -387.26071687571965
    Total Energy =                       -387.2607168757198224
  Basis Set: CC-PVTZ
  Basis Set:
  Basis Set: CC-PVTZ
  Basis Set:
  @DF-RHF Final Energy:  -387.26072012311516
    Total Energy =                       -387.2607201231148792
  Basis Set: CC-PVTZ
  Basis Set:
  Basis Set: CC-PVTZ
  Basis Set:
  @DF-RHF Final Energy:  -387.26072261016014
    Total Energy =                       -387.2607226101602009
  Basis Set: CC-PVTZ
  Basis Set:
  Charge       = 0
  Multiplicity = 1
  Basis Set: CC-PVTZ
  Basis Set:

    Orbital Energies (a.u.)
    -----------------------

    Doubly Occupied:

       1A    -20.551639     2A    -11.320693     3A    -11.233827
       4A    -11.233211     5A    -11.224195     6A    -11.218903
       7A    -11.217677     8A    -11.216885     9A    -11.209991
      10A     -1.406421    11A     -1.106214    12A     -1.072038
      13A     -1.016450    14A     -0.945817    15A     -0.875997
      16A     -0.813854    17A     -0.794974    18A     -0.782007
      19A     -0.680781    20A     -0.658838    21A     -0.636903
      22A     -0.622506    23A     -0.612856    24A     -0.592073
      25A     -0.572649    26A     -0.554975    27A     -0.535087
      28A     -0.525885    29A     -0.513744    30A     -0.497878
      31A     -0.487387    32A     -0.480421    33A     -0.466932
      34A     -0.460731    35A     -0.453190    36A     -0.409302

  @DF-RHF Final Energy:  -387.26072278150292

   => Energetics <=

    Nuclear Repulsion Energy =            432.5524132321187949
    One-Electron Energy =               -1381.6204176501646543
    Two-Electron Energy =                 561.8072816365430526
    DFT Exchange-Correlation Energy =       0.0000000000000000
    Empirical Dispersion Energy =           0.0000000000000000
    PCM Polarization Energy =               0.0000000000000000
    EFP Energy =                            0.0000000000000000
    Total Energy =                       -387.2607227815027500
    Molecular point group: c1
  Basis Set: CC-PVTZ
  Basis Set:

  -Total Gradient:
     Atom            X                  Y                   Z
    ------   -----------------  -----------------  -----------------
       1        0.000002550306     0.000012217201    -0.000005931022
       2        0.000002041913    -0.000004271500     0.000002871839
       3        0.000785468457    -0.001065644934    -0.001813676411
       4       -0.000001914313    -0.000004236463     0.000001245129
       5       -0.000452666455    -0.000542068861     0.001661731505
       6       -0.000546862656     0.001018102964     0.001143341401
       7       -0.000002256715     0.000002557382    -0.000002051221
       8        0.000221615462     0.000581306411    -0.000994642739
       9        0.000001377077     0.000003217692    -0.000001065546
      10       -0.000000023401     0.000000336283     0.000001955065
      11       -0.000011364842    -0.000000106562     0.000008325173
      12       -0.000004299031    -0.000001269119    -0.000004161109
      13        0.000004110666     0.000001936266     0.000001583659
      14        0.000005328998    -0.000003025050    -0.000002588542
      15       -0.000001983853    -0.000001976444    -0.000001103331
      16        0.000003174008     0.000002478326     0.000003678485
      17       -0.000001489195     0.000002703504     0.000001543985
      18       -0.000000709305     0.000000940295     0.000000989601
      19        0.000002113468    -0.000000659054     0.000000104260
      20       -0.000001460209    -0.000001585705    -0.000000710415
      21       -0.000001233547     0.000002511154     0.000000066555
      22       -0.000001409107     0.000000928951    -0.000001423764
      23       -0.000001566801     0.000000268941    -0.000001463870
      24        0.000001016711    -0.000003002964     0.000001283184
      25        0.000000442361    -0.000001658713     0.000000098130

  **** Optimization is complete! (in 9 steps) ****
    Final optimized geometry and variables:
    Molecular point group: c1

    Geometry (in Angstrom), charge = 0, multiplicity = 1:

    H           -3.086694755976     2.388052828692    -0.619053841241
    C           -3.420038742259     1.477246971172    -0.104105847119
    C           -2.551040564076     0.268344273078    -0.319322142628
    O           -4.395157446445     1.498757549499     0.563936150124
    C           -1.112646096858     0.515427046551     0.145321615747
    H           -2.998600029692    -0.562996475352     0.209071864912
    H           -2.557711289757     0.047241496796    -1.384171027996
    C           -0.149564484926    -0.583720155686    -0.294264741956
    H           -0.764705998368     1.467621290728    -0.247847361341
    H           -1.099750706678     0.606860877012     1.226942880150
    C            1.278733967639    -0.364017329429     0.196766357145
    H           -0.152678667674    -0.645187459632    -1.379573714006
    H           -0.511188672439    -1.543171547050     0.066386687459
    C            2.238902460943    -1.462138467984    -0.256612567200
    H            1.626952837456     0.602494115592    -0.153913602856
    H            1.280120782240    -0.314158638504     1.283121202695
    C            3.664834345330    -1.330630969655     0.281211402429
    H            2.268188933389    -1.487301076284    -1.343626501727
    H            1.840111264632    -2.422829329174     0.057373213413
    C            4.431287319738    -0.114250502148    -0.232562314741
    H            4.215482887621    -2.226884205725     0.012963089985
    H            3.637173658259    -1.306924795446     1.367388397665
    H            4.468329651349    -0.107024350686    -1.317296260747
    H            3.979576417530     0.816347185302     0.089218098460
    H            5.452247372713    -0.122131012132     0.131387973284

  Mulliken Charges: (a.u.)
   Center  Symbol    Alpha    Beta     Spin     Total
       1     H     0.46545  0.46545  0.00000  0.06911
       2     C     2.90965  2.90965  0.00000  0.18069
       3     C     3.07640  3.07640  0.00000 -0.15279
       4     O     4.16446  4.16446  0.00000 -0.32893
       5     C     3.10628  3.10628  0.00000 -0.21257
       6     H     0.44219  0.44219  0.00000  0.11562
       7     H     0.45021  0.45021  0.00000  0.09957
       8     C     3.08909  3.08909  0.00000 -0.17818
       9     H     0.45235  0.45235  0.00000  0.09530
      10     H     0.44436  0.44436  0.00000  0.11128
      11     C     3.09264  3.09264  0.00000 -0.18527
      12     H     0.45327  0.45327  0.00000  0.09346
      13     H     0.45055  0.45055  0.00000  0.09890
      14     C     3.09600  3.09600  0.00000 -0.19200
      15     H     0.45210  0.45210  0.00000  0.09579
      16     H     0.45278  0.45278  0.00000  0.09445
      17     C     3.09057  3.09057  0.00000 -0.18113
      18     H     0.45372  0.45372  0.00000  0.09256
      19     H     0.44887  0.44887  0.00000  0.10225
      20     C     3.15267  3.15267  0.00000 -0.30534
      21     H     0.44783  0.44783  0.00000  0.10433
      22     H     0.45413  0.45413  0.00000  0.09173
      23     H     0.45484  0.45484  0.00000  0.09033
      24     H     0.45394  0.45394  0.00000  0.09212
      25     H     0.44564  0.44564  0.00000  0.10871

   Total alpha = 36.00000, Total beta = 36.00000, Total charge = -0.00000

*** Psi4 exiting successfully. Buy a developer a beer!
