                              Psi4 1.0.54 Driver

  ==> Input File <==

--------------------------------------------------------------------------
set {
	reference rhf
	basis cc-pvtz
}

set_num_threads( 4 )
memory 2 gb

molecule MOL {
0 1

O	 0.749630	 1.305591	 -0.000460
C	 0.576499	 0.134701	 -0.003900
C	 -0.765656	 -0.550508	 -0.002152
O	 1.564816	 -0.744612	 -0.000631
C	 -1.945526	 0.411052	 0.000603
H	 -0.794329	 -1.203792	 -0.868145
H	 -0.791555	 -1.205429	 0.862701
C	 -3.282915	 -0.321280	 0.002596
H	 -1.880300	 1.059126	 -0.864925
H	 -1.877207	 1.057892	 0.866807
H	 -3.388495	 -0.952755	 -0.873419
H	 -4.107811	 0.380864	 0.004116
H	 -3.385717	 -0.953283	 0.878571
C	 2.884321	 -0.237805	 0.007371
H	 3.066213	 0.365157	 -0.869788
H	 3.533040	 -1.098531	 0.008689
H	 3.057249	 0.361078	 0.889117

	symmetry c1
}
set optking {
	frozen_dihedral = ("
		14 4 2 1
	")
}

ee,wfn = optimize('scf', return_wfn=True)
oeprop( wfn, 'DIPOLE', 'QUADRUPOLE', 'MULLIKEN_CHARGES')
f=open( 'psi4out.xyz', 'w' )
f.write( "17  " )
f.write( str(ee) + "\n" )
f.write( MOL.save_string_xyz() )
f.close()
--------------------------------------------------------------------------

    Molecular point group: c1
  Charge       = 0
  Multiplicity = 1
  Basis Set: CC-PVTZ
  Basis Set:
  @DF-RHF Final Energy:  -345.03541292803413
    Total Energy =                       -345.0354129280338498
    Molecular point group: c1
  Basis Set: CC-PVTZ
  Basis Set:
  Basis Set: CC-PVTZ
  Basis Set:
  @DF-RHF Final Energy:  -345.03529096280795
    Total Energy =                       -345.0352909628079487
  Basis Set: CC-PVTZ
  Basis Set:
  Charge       = 0
  Multiplicity = 1
  Basis Set: CC-PVTZ
  Basis Set:

    Orbital Energies (a.u.)
    -----------------------

    Doubly Occupied:

       1A    -20.596690     2A    -20.534505     3A    -11.364966
       4A    -11.278771     5A    -11.234384     6A    -11.220117
       7A    -11.212750     8A     -1.472607     9A     -1.366180
      10A     -1.081757    11A     -1.002555    12A     -0.940367
      13A     -0.827866    14A     -0.769348    15A     -0.702669
      16A     -0.686728    17A     -0.676285    18A     -0.637771
      19A     -0.596856    20A     -0.575554    21A     -0.569788
      22A     -0.528754    23A     -0.523263    24A     -0.500466
      25A     -0.487786    26A     -0.479759    27A     -0.460083
      28A     -0.441512

  @DF-RHF Final Energy:  -345.03541706191334

   => Energetics <=

    Nuclear Repulsion Energy =            313.0168828521409523
    One-Electron Energy =               -1090.5643299230637240
    Two-Electron Energy =                 432.5120300090093792
    DFT Exchange-Correlation Energy =       0.0000000000000000
    Empirical Dispersion Energy =           0.0000000000000000
    PCM Polarization Energy =               0.0000000000000000
    EFP Energy =                            0.0000000000000000
    Total Energy =                       -345.0354170619133924
    Molecular point group: c1
  Basis Set: CC-PVTZ
  Basis Set:

  -Total Gradient:
     Atom            X                  Y                   Z
    ------   -----------------  -----------------  -----------------
       1        0.000024762613    -0.000022032598    -0.000010663472
       2        0.000033460368    -0.000034221501     0.000026911748
       3       -0.000014193843     0.000022728948    -0.000009551015
       4       -0.000052035243     0.000001691437    -0.000006708897
       5       -0.000020819791    -0.000023259378     0.000008012988
       6       -0.000004331721     0.000004890811    -0.000002225729
       7       -0.000006856965     0.000004633522     0.000002667367
       8       -0.000006618488     0.000017098603    -0.000004393473
       9       -0.000003244245    -0.000009117996    -0.000004504257
      10       -0.000002128753    -0.000003098066     0.000004539117
      11       -0.000000908774     0.000005139386    -0.000005151375
      12       -0.000011884149    -0.000008991128     0.000000725515
      13        0.000004553135     0.000007840724     0.000002644256
      14        0.000059063133     0.000046148963    -0.000003095872
      15       -0.000001932890    -0.000009228775    -0.000000230472
      16        0.000005676765     0.000008845270     0.000000391221
      17       -0.000002561151    -0.000009068219     0.000000632351

  **** Optimization is complete! (in 3 steps) ****
    Final optimized geometry and variables:
    Molecular point group: c1

    Geometry (in Angstrom), charge = 0, multiplicity = 1:

    O            0.750188775418     1.305153620543    -0.002079091526
    C            0.576518681493     0.134310843324    -0.002379980465
    C           -0.766014217074    -0.550676221700     0.002901293222
    O            1.565121604321    -0.744712236105    -0.007781668794
    C           -1.945721075638     0.411091829600     0.009396045095
    H           -0.797276945145    -1.203766476205    -0.863223505097
    H           -0.789488548450    -1.205911821651     0.867648615381
    C           -3.283318002989    -0.320810771482     0.014398577796
    H           -1.882777979868     1.059700056071    -0.855992729257
    H           -1.875065519894     1.057526355774     0.875823142397
    H           -3.391679799848    -0.951307449313    -0.862050639242
    H           -4.108102310037     0.381522946646     0.019143227223
    H           -3.383718250216    -0.953794355173     0.889997847771
    C            2.884302360852    -0.237348936467    -0.013419580110
    H            3.057521150885     0.364543123899    -0.893140544761
    H            3.533973481433    -1.097438099738    -0.017158547700
    H            3.065628100768     0.363017508886     0.865709516681

  Mulliken Charges: (a.u.)
   Center  Symbol    Alpha    Beta     Spin     Total
       1     O     4.19665  4.19665  0.00000 -0.39330
       2     C     2.80665  2.80665  0.00000  0.38670
       3     C     3.09575  3.09575  0.00000 -0.19149
       4     O     4.14692  4.14692  0.00000 -0.29385
       5     C     3.07853  3.07853  0.00000 -0.15706
       6     H     0.44099  0.44099  0.00000  0.11801
       7     H     0.44099  0.44099  0.00000  0.11802
       8     C     3.15133  3.15133  0.00000 -0.30267
       9     H     0.44679  0.44679  0.00000  0.10642
      10     H     0.44680  0.44680  0.00000  0.10641
      11     H     0.45584  0.45584  0.00000  0.08832
      12     H     0.44557  0.44557  0.00000  0.10885
      13     H     0.45585  0.45585  0.00000  0.08831
      14     C     3.03743  3.03743  0.00000 -0.07487
      15     H     0.45431  0.45431  0.00000  0.09138
      16     H     0.44528  0.44528  0.00000  0.10944
      17     H     0.45431  0.45431  0.00000  0.09138

   Total alpha = 28.00000, Total beta = 28.00000, Total charge =  0.00000

*** Psi4 exiting successfully. Buy a developer a beer!
