  ==> Input File <==

--------------------------------------------------------------------------
set {
	reference rhf
	basis 6-31G*
}

set_num_threads( 4 )
memory 2 gb

molecule MOL {
0 1

H	 3.272118	 0.027357	 -1.461557
O	 2.345583	 -0.154256	 -1.337839
C	 2.077727	 -0.067559	 -0.035091
C	 0.624473	 -0.343591	 0.253101
O	 2.914455	 0.197712	 0.765243
C	 -0.265902	 0.883932	 0.072916
H	 0.324016	 -1.163849	 -0.390541
H	 0.565024	 -0.726111	 1.268924
C	 -1.728698	 0.646073	 0.462102
H	 -0.209144	 1.219470	 -0.958188
H	 0.135059	 1.692851	 0.673903
C	 -2.482460	 -0.343073	 -0.431425
H	 -2.245265	 1.602650	 0.432430
H	 -1.779332	 0.308348	 1.496285
C	 -3.960546	 -0.461025	 -0.060175
H	 -2.395034	 -0.026811	 -1.468912
H	 -2.024850	 -1.327147	 -0.371646
H	 -4.472726	 -1.168004	 -0.705284
H	 -4.465146	 0.496508	 -0.151489
H	 -4.081218	 -0.800940	 0.964585

	symmetry c1
}
set optking {
	frozen_dihedral = ("
		5 3 4 7
	")
}

ee = optimize('scf')
oeprop('DIPOLE', 'QUADRUPOLE', 'MULLIKEN_CHARGES')
f=open( 'psi4out.xyz', 'w' )
f.write( "20  " )
f.write( str(ee) + "\n" )
f.write( MOL.save_string_xyz() )
f.close()
--------------------------------------------------------------------------

    Molecular point group: c1
  Charge       = 0
  Multiplicity = 1
  Basis Set: 6-31G*
  Basis Set:
  @DF-RHF Final Energy:  -383.94663795968012
    Total Energy =                       -383.9466379596802312
    Molecular point group: c1
  Basis Set: 6-31G*
  Basis Set:
  Basis Set: 6-31G*
  Basis Set:
  @DF-RHF Final Energy:  -383.94679510509093
    Total Energy =                       -383.9467951050911552
  Basis Set: 6-31G*
  Basis Set:
  Basis Set: 6-31G*
  Basis Set:
  @DF-RHF Final Energy:  -383.94644029614977
    Total Energy =                       -383.9464402961500582
  Basis Set: 6-31G*
  Basis Set:
  Basis Set: 6-31G*
  Basis Set:
  @DF-RHF Final Energy:  -383.94734361251221
    Total Energy =                       -383.9473436125119292
  Basis Set: 6-31G*
  Basis Set:
  Basis Set: 6-31G*
  Basis Set:
  @DF-RHF Final Energy:  -383.94734469569249
    Total Energy =                       -383.9473446956922089
  Basis Set: 6-31G*
  Basis Set:
  Basis Set: 6-31G*
  Basis Set:
  @DF-RHF Final Energy:  -383.94734157117739
    Total Energy =                       -383.9473415711770485
  Basis Set: 6-31G*
  Basis Set:
  Charge       = 0
  Multiplicity = 1
  Basis Set: 6-31G*
  Basis Set:

    Orbital Energies (a.u.)
    -----------------------

    Doubly Occupied:

       1A    -20.612712     2A    -20.548870     3A    -11.379262
       4A    -11.238128     5A    -11.233416     6A    -11.224547
       7A    -11.222523     8A    -11.214104     9A     -1.473341
      10A     -1.363659    11A     -1.099749    12A     -1.042525
      13A     -0.961130    14A     -0.865299    15A     -0.820953
      16A     -0.790168    17A     -0.700729    18A     -0.685780
      19A     -0.649172    20A     -0.631498    21A     -0.617946
      22A     -0.592796    23A     -0.575725    24A     -0.553242
      25A     -0.550232    26A     -0.515210    27A     -0.503805
      28A     -0.480205    29A     -0.476422    30A     -0.466601
      31A     -0.461890    32A     -0.435408

  @DF-RHF Final Energy:  -383.94734606930757

   => Energetics <=

    Nuclear Repulsion Energy =            376.8219862943469138
    One-Electron Energy =               -1269.5645727252481265
    Two-Electron Energy =                 508.7952403615940398
    DFT Exchange-Correlation Energy =       0.0000000000000000
    Empirical Dispersion Energy =           0.0000000000000000
    PCM Polarization Energy =               0.0000000000000000
    EFP Energy =                            0.0000000000000000
    Total Energy =                       -383.9473460693071161
    Molecular point group: c1
  Basis Set: 6-31G*
  Basis Set:

  -Total Gradient:
     Atom            X                  Y                   Z
    ------   -----------------  -----------------  -----------------
       1        0.000005833992     0.000003782425    -0.000004196221
       2       -0.000000547256    -0.000010382372     0.000002819703
       3        0.000104020526    -0.000460117558     0.000003682561
       4        0.000060309487    -0.000107641399     0.000297902856
       5       -0.000103389658     0.000352411163    -0.000048559347
       6        0.000029015528    -0.000010824357     0.000000163546
       7       -0.000094982396     0.000241177587    -0.000242146070
       8        0.000002072685    -0.000004375037    -0.000009191307
       9       -0.000014133346    -0.000006207933     0.000004815758
      10       -0.000003276886     0.000002161879     0.000002808088
      11       -0.000004310578    -0.000000272627    -0.000003734500
      12        0.000004905218    -0.000002086570    -0.000005210482
      13        0.000005860934     0.000001812867    -0.000001932783
      14        0.000002713212     0.000000488949    -0.000000124197
      15        0.000001996445     0.000002344709     0.000004192427
      16       -0.000000056509    -0.000000246904    -0.000001421776
      17        0.000003018995    -0.000002516037    -0.000000418830
      18        0.000002807131     0.000000324563    -0.000000069866
      19       -0.000000947482     0.000000497959    -0.000000283680
      20       -0.000000910059    -0.000000331305     0.000000904119

  **** Optimization is complete! (in 7 steps) ****
    Final optimized geometry and variables:
    Molecular point group: c1

    Geometry (in Angstrom), charge = 0, multiplicity = 1:

    H            3.272357780003     0.121809767017    -1.394212022583
    O            2.356630997247    -0.113558609460    -1.280343970286
    C            2.090667312582    -0.119981451803     0.025824498479
    C            0.646312363043    -0.431531613536     0.313648771896
    O            2.919508224214     0.129090849625     0.840088810752
    C           -0.231327265746     0.816397149935     0.112899488146
    H            0.326501949417    -1.230532887416    -0.343489594752
    H            0.585876781675    -0.772346503533     1.339385054834
    C           -1.697390600871     0.606019444998     0.505224463573
    H           -0.171481661888     1.133290520403    -0.924351148122
    H            0.178142021659     1.624108421655     0.713041167121
    C           -2.462105390061    -0.389888203122    -0.370724381583
    H           -2.199654437269     1.569503033659     0.456770282381
    H           -1.749912563825     0.289195511130     1.545247784676
    C           -3.941881068570    -0.480751341289     0.001558561666
    H           -2.369254229065    -0.095239227050    -1.413994624729
    H           -2.017249420582    -1.378056023476    -0.290722119305
    H           -4.462207775255    -1.193927720223    -0.629911477248
    H           -4.434172423232     0.481083314008    -0.109649567334
    H           -4.067769501931    -0.798539355423     1.032703234322

  Mulliken Charges: (a.u.)
   Center  Symbol    Alpha    Beta     Spin     Total
       1     H     0.26790  0.26790  0.00000  0.46420
       2     O     4.34768  4.34768  0.00000 -0.69535
       3     C     2.63327  2.63327  0.00000  0.73346
       4     C     3.19893  3.19893  0.00000 -0.39787
       5     O     4.27870  4.27870  0.00000 -0.55741
       6     C     3.16840  3.16840  0.00000 -0.33680
       7     H     0.40072  0.40072  0.00000  0.19856
       8     H     0.39849  0.39849  0.00000  0.20301
       9     C     3.15353  3.15353  0.00000 -0.30707
      10     H     0.40950  0.40950  0.00000  0.18100
      11     H     0.40836  0.40836  0.00000  0.18328
      12     C     3.15510  3.15510  0.00000 -0.31020
      13     H     0.41774  0.41774  0.00000  0.16451
      14     H     0.42051  0.42051  0.00000  0.15897
      15     C     3.23961  3.23961  0.00000 -0.47921
      16     H     0.42096  0.42096  0.00000  0.15808
      17     H     0.42141  0.42141  0.00000  0.15718
      18     H     0.41779  0.41779  0.00000  0.16443
      19     H     0.42069  0.42069  0.00000  0.15862
      20     H     0.42070  0.42070  0.00000  0.15860

   Total alpha = 32.00000, Total beta = 32.00000, Total charge =  0.00000
