                              Psi4 1.0.54 Driver

  ==> Input File <==

--------------------------------------------------------------------------
set {
	reference rhf
	basis cc-pvtz
}

set_num_threads( 4 )
memory 2 gb

molecule MOL {
0 1

H	 -1.119032	 3.241914	 -2.487126
C	 -0.123808	 3.701158	 -2.412896
C	 0.375547	 3.907742	 -1.008667
O	 0.463708	 4.001271	 -3.393744
C	 0.300595	 2.635252	 -0.159652
H	 1.384187	 4.297329	 -1.055604
H	 -0.257667	 4.672072	 -0.563532
C	 1.260053	 1.537682	 -0.614582
H	 0.515352	 2.897386	 0.870642
H	 -0.718503	 2.256362	 -0.168366
C	 1.181757	 0.280428	 0.247371
H	 2.275392	 1.924876	 -0.598048
H	 1.055706	 1.275858	 -1.649531
C	 2.151032	 -0.811012	 -0.202643
H	 1.378282	 0.549598	 1.280459
H	 0.166809	 -0.110049	 0.220824
C	 3.580021	 -0.656538	 0.320835
H	 2.170545	 -0.847575	 -1.289412
H	 1.766632	 -1.772905	 0.124928
C	 4.327657	 0.562694	 -0.213579
H	 4.138806	 -1.549270	 0.057813
H	 3.561991	 -0.620783	 1.406976
H	 4.355973	 0.557257	 -1.298551
H	 3.867136	 1.491650	 0.100501
H	 5.351524	 0.571613	 0.142204

	symmetry c1
}
set optking {
	frozen_dihedral = ("
		8 11 14 18
	")
}

ee,wfn = optimize('scf', return_wfn=True)
oeprop( wfn, 'DIPOLE', 'QUADRUPOLE', 'MULLIKEN_CHARGES')
f=open( 'psi4out.xyz', 'w' )
f.write( "25  " )
f.write( str(ee) + "\n" )
f.write( MOL.save_string_xyz() )
f.close()
--------------------------------------------------------------------------

    Molecular point group: c1
  Charge       = 0
  Multiplicity = 1
  Basis Set: CC-PVTZ
  Basis Set:
  @DF-RHF Final Energy:  -387.25221519627723
    Total Energy =                       -387.2522151962768930
    Molecular point group: c1
  Basis Set: CC-PVTZ
  Basis Set:
  Basis Set: CC-PVTZ
  Basis Set:
  @DF-RHF Final Energy:  -387.25501990365791
    Total Energy =                       -387.2550199036577396
  Basis Set: CC-PVTZ
  Basis Set:
  Basis Set: CC-PVTZ
  Basis Set:
  @DF-RHF Final Energy:  -387.25554932931141
    Total Energy =                       -387.2555493293111795
  Basis Set: CC-PVTZ
  Basis Set:
  Basis Set: CC-PVTZ
  Basis Set:
  @DF-RHF Final Energy:  -387.25545300896556
    Total Energy =                       -387.2554530089655600
  Basis Set: CC-PVTZ
  Basis Set:
  Basis Set: CC-PVTZ
  Basis Set:
  @DF-RHF Final Energy:  -387.25540953968789
    Total Energy =                       -387.2554095396878893
  Basis Set: CC-PVTZ
  Basis Set:
  Basis Set: CC-PVTZ
  Basis Set:
  @DF-RHF Final Energy:  -387.25560193393204
    Total Energy =                       -387.2556019339323257
  Basis Set: CC-PVTZ
  Basis Set:
  Basis Set: CC-PVTZ
  Basis Set:
  @DF-RHF Final Energy:  -387.25561085911471
    Total Energy =                       -387.2556108591145403
  Basis Set: CC-PVTZ
  Basis Set:
  Charge       = 0
  Multiplicity = 1
  Basis Set: CC-PVTZ
  Basis Set:

    Orbital Energies (a.u.)
    -----------------------

    Doubly Occupied:

       1A    -20.551213     2A    -11.320829     3A    -11.233604
       4A    -11.232403     5A    -11.220269     6A    -11.218707
       7A    -11.216603     8A    -11.215706     9A    -11.208378
      10A     -1.406200    11A     -1.104088    12A     -1.068764
      13A     -1.012415    14A     -0.947962    15A     -0.876594
      16A     -0.821859    17A     -0.788591    18A     -0.778358
      19A     -0.667868    20A     -0.662438    21A     -0.633173
      22A     -0.622326    23A     -0.609241    24A     -0.595036
      25A     -0.567228    26A     -0.561241    27A     -0.532869
      28A     -0.525716    29A     -0.519517    30A     -0.496671
      31A     -0.489651    32A     -0.483356    33A     -0.463507
      34A     -0.449493    35A     -0.442901    36A     -0.411686

  @DF-RHF Final Energy:  -387.25561012429722

   => Energetics <=

    Nuclear Repulsion Energy =            448.0347768277237606
    One-Electron Energy =               -1412.6678463033049411
    Two-Electron Energy =                 577.3774593512836191
    DFT Exchange-Correlation Energy =       0.0000000000000000
    Empirical Dispersion Energy =           0.0000000000000000
    PCM Polarization Energy =               0.0000000000000000
    EFP Energy =                            0.0000000000000000
    Total Energy =                       -387.2556101242975046
    Molecular point group: c1
  Basis Set: CC-PVTZ
  Basis Set:

  -Total Gradient:
     Atom            X                  Y                   Z
    ------   -----------------  -----------------  -----------------
       1       -0.000062613936     0.000003321386    -0.000030054648
       2       -0.000037363582    -0.000085899419     0.000060257005
       3        0.000058968053     0.000025446105     0.000029543285
       4        0.000011168482     0.000049816376    -0.000047374970
       5       -0.000095304367    -0.000067277784    -0.000099316365
       6        0.000062870812    -0.000008490674    -0.000018322135
       7        0.000000392768     0.000047654502     0.000071143228
       8        0.000678138171     0.000380175000     0.000570117542
       9       -0.000021734797     0.000044824347     0.000002230944
      10       -0.000013143352    -0.000017368188    -0.000032207149
      11       -0.001079617124    -0.000673403059    -0.000709809185
      12        0.000022696154     0.000000038397    -0.000030237161
      13        0.000010915659    -0.000026163544     0.000027002273
      14        0.001322564811     0.001099400549     0.000150026888
      15        0.000003046815     0.000005231806     0.000003330209
      16       -0.000005593792    -0.000005801540     0.000001970555
      17       -0.000026214715    -0.000032008515     0.000004213865
      18       -0.000861812004    -0.000768000857     0.000043466074
      19        0.000003302796    -0.000004457002     0.000000573575
      20        0.000009476912     0.000018702737     0.000004382677
      21        0.000006798606    -0.000031990091    -0.000004143082
      22       -0.000002207029     0.000004505473     0.000023378624
      23       -0.000006546616     0.000001616868    -0.000048955734
      24       -0.000009268549     0.000052969147     0.000014194443
      25        0.000031079824    -0.000012842014     0.000014589240

  **** Optimization is complete! (in 8 steps) ****
    Final optimized geometry and variables:
    Molecular point group: c1

    Geometry (in Angstrom), charge = 0, multiplicity = 1:

    H           -2.751916000873     1.453133695323    -1.636103681272
    C           -1.785682056578     1.973011274003    -1.579854713059
    C           -1.275504224232     2.213481988118    -0.184840658083
    O           -1.235230456591     2.306989247352    -2.571260056686
    C           -1.259397731108     0.941303777078     0.667742156043
    H           -0.293144752634     2.663170736508    -0.250057003997
    H           -1.945898747599     2.939835143764     0.269579359121
    C           -0.232548836874    -0.091742340574     0.206928023086
    H           -1.053534436069     1.220412790580     1.695532026832
    H           -2.251523088059     0.496428010228     0.669277167430
    C           -0.241885403553    -1.351122358156     1.073824702254
    H            0.747847274469     0.367189744589     0.203512174045
    H           -0.434799518401    -0.374009511765    -0.823290230726
    C            0.729542825422    -2.463121567763     0.652134928154
    H           -0.050281851659    -1.079838602950     2.109707146783
    H           -1.249016171775    -1.757659922323     1.054885417067
    C            2.165519900806    -2.377382049755     1.179289922545
    H            0.738033786564    -2.543187288031    -0.432387484364
    H            0.323910615464    -3.404751775654     1.009257825569
    C            3.016177640231    -1.211557630915     0.680600866565
    H            2.665382287987    -3.302924036555     0.909718167241
    H            2.138995309248    -2.358460621915     2.265788241899
    H            3.006970225461    -1.149625575240    -0.402586894227
    H            2.676044759578    -0.261134798042     1.071711611536
    H            4.046268553345    -1.337173105513     0.994490029034

  Mulliken Charges: (a.u.)
   Center  Symbol    Alpha    Beta     Spin     Total
       1     H     0.46424  0.46424  0.00000  0.07153
       2     C     2.90472  2.90472  0.00000  0.19055
       3     C     3.08818  3.08818  0.00000 -0.17635
       4     O     4.16626  4.16626  0.00000 -0.33252
       5     C     3.11798  3.11798  0.00000 -0.23596
       6     H     0.44332  0.44332  0.00000  0.11337
       7     H     0.44037  0.44037  0.00000  0.11926
       8     C     3.09370  3.09370  0.00000 -0.18740
       9     H     0.44285  0.44285  0.00000  0.11431
      10     H     0.44877  0.44877  0.00000  0.10246
      11     C     3.10174  3.10174  0.00000 -0.20349
      12     H     0.44504  0.44504  0.00000  0.10992
      13     H     0.44777  0.44777  0.00000  0.10446
      14     C     3.10296  3.10296  0.00000 -0.20591
      15     H     0.45210  0.45210  0.00000  0.09581
      16     H     0.44644  0.44644  0.00000  0.10713
      17     C     3.08341  3.08341  0.00000 -0.16682
      18     H     0.45240  0.45240  0.00000  0.09521
      19     H     0.44495  0.44495  0.00000  0.11010
      20     C     3.16143  3.16143  0.00000 -0.32286
      21     H     0.44880  0.44880  0.00000  0.10240
      22     H     0.45479  0.45479  0.00000  0.09042
      23     H     0.45032  0.45032  0.00000  0.09937
      24     H     0.45443  0.45443  0.00000  0.09115
      25     H     0.44306  0.44306  0.00000  0.11388

   Total alpha = 36.00000, Total beta = 36.00000, Total charge = -0.00000

*** Psi4 exiting successfully. Buy a developer a beer!
