  ==> Input File <==

--------------------------------------------------------------------------
set {
	reference rhf
	basis cc-pvtz
}

set_num_threads( 4 )
memory 2 gb

molecule MOL {
0 1

H	 -2.906974	 -0.642679	 0.683762
C	 -2.819879	 -0.128467	 -0.270640
O	 -1.492604	 0.013101	 -0.652532
H	 -3.321194	 -0.713616	 -1.027722
H	 -3.317480	 0.836142	 -0.188130
C	 -0.718530	 0.758693	 0.228682
C	 0.718529	 0.758687	 -0.228709
H	 -1.076433	 1.787453	 0.267774
H	 -0.773887	 0.345928	 1.233665
O	 1.401606	 -0.295166	 0.366636
H	 0.748705	 0.673477	 -1.312803
H	 1.176496	 1.708671	 0.046552
C	 2.714315	 -0.441627	 -0.061017
H	 2.765292	 -0.641548	 -1.128869
H	 3.305661	 0.447341	 0.150952
H	 3.143725	 -1.278506	 0.470147

	symmetry c1
}
set optking {
	frozen_dihedral = ("
		3 6 7 11
	")
}

ee = optimize('scf')
oeprop('DIPOLE', 'QUADRUPOLE', 'MULLIKEN_CHARGES')
f=open( 'psi4out.xyz', 'w' )
f.write( "16  " )
f.write( str(ee) + "\n" )
f.write( MOL.save_string_xyz() )
f.close()
--------------------------------------------------------------------------

    Molecular point group: c1
  Charge       = 0
  Multiplicity = 1
  Basis Set: CC-PVTZ
  Basis Set:
  @DF-RHF Final Energy:  -307.09649290506593
    Total Energy =                       -307.0964929050656451
    Molecular point group: c1
  Basis Set: CC-PVTZ
  Basis Set:
  Basis Set: CC-PVTZ
  Basis Set:
  @DF-RHF Final Energy:  -307.09666025762931
    Total Energy =                       -307.0966602576294804
  Basis Set: CC-PVTZ
  Basis Set:
  Basis Set: CC-PVTZ
  Basis Set:
  @DF-RHF Final Energy:  -307.09669420667285
    Total Energy =                       -307.0966942066727370
  Basis Set: CC-PVTZ
  Basis Set:
  Charge       = 0
  Multiplicity = 1
  Basis Set: CC-PVTZ
  Basis Set:

    Orbital Energies (a.u.)
    -----------------------

    Doubly Occupied:

       1A    -20.549101     2A    -20.548324     3A    -11.267134
       4A    -11.266469     5A    -11.262206     6A    -11.261840
       7A     -1.390708     8A     -1.375525     9A     -1.030827
      10A     -0.938148    11A     -0.889384    12A     -0.827627
      13A     -0.685019    14A     -0.683914    15A     -0.658791
      16A     -0.637105    17A     -0.634360    18A     -0.599390
      19A     -0.544430    20A     -0.541720    21A     -0.509540
      22A     -0.480776    23A     -0.465408    24A     -0.425249
      25A     -0.413144

  @DF-RHF Final Energy:  -307.09669536010455

   => Energetics <=

    Nuclear Repulsion Energy =            257.6903061930628951
    One-Electron Energy =                -929.8017231583364719
    Two-Electron Energy =                 365.0147216051689156
    DFT Exchange-Correlation Energy =       0.0000000000000000
    Empirical Dispersion Energy =           0.0000000000000000
    PCM Polarization Energy =               0.0000000000000000
    EFP Energy =                            0.0000000000000000
    Total Energy =                       -307.0966953601046043
    Molecular point group: c1
  Basis Set: CC-PVTZ
  Basis Set:

  -Total Gradient:
     Atom            X                  Y                   Z
    ------   -----------------  -----------------  -----------------
       1        0.000000873472     0.000007169432    -0.000005346856
       2       -0.000030988662    -0.000038355036    -0.000048587294
       3       -0.000419627519     0.002158549263    -0.001376831063
       4       -0.000034385089    -0.000006509534     0.000011342862
       5        0.000003690241     0.000002812518     0.000008581401
       6        0.000571846509    -0.003530678507     0.001927295404
       7       -0.000135956100     0.004685716893    -0.000759181081
       8       -0.000016812766     0.000017543001     0.000027960282
       9       -0.000012121958    -0.000016112920    -0.000021792470
      10       -0.000059697663     0.000113073494    -0.000045419147
      11        0.000080294876    -0.003340548529     0.000277272492
      12       -0.000001159293    -0.000010025164     0.000001179361
      13        0.000055658680    -0.000051591780     0.000010036888
      14        0.000003079884     0.000005319576     0.000001315265
      15       -0.000012936042    -0.000001356569    -0.000001013784
      16        0.000008241432     0.000004993862    -0.000006812256

  **** Optimization is complete! (in 4 steps) ****
    Final optimized geometry and variables:
    Molecular point group: c1

    Geometry (in Angstrom), charge = 0, multiplicity = 1:

    H           -2.864967909470    -0.756711743253     0.788417253499
    C           -2.778421959645    -0.247177552698    -0.168399784021
    O           -1.450671251656    -0.094709740775    -0.545565330857
    H           -3.271357633737    -0.840698197627    -0.924527611063
    H           -3.284635767859     0.713463983716    -0.093202999767
    C           -0.688570621099     0.668659615585     0.335025401188
    C            0.755883138186     0.673891658286    -0.117477461575
    H           -1.068347901846     1.689576561672     0.354995941562
    H           -0.742186122716     0.270699073891     1.344468395961
    O            1.427075654083    -0.398955468909     0.467932396004
    H            0.781374506457     0.576514895786    -1.199286714539
    H            1.233723092723     1.610129231701     0.164384519512
    C            2.737122996759    -0.557687904565     0.036225095068
    H            2.784056953402    -0.746308097309    -1.033893120847
    H            3.339819302610     0.321483957141     0.256648439406
    H            3.157261803495    -1.405457447998     0.557562239460

  Mulliken Charges: (a.u.)
   Center  Symbol    Alpha    Beta     Spin     Total
       1     H     0.46982  0.46982  0.00000  0.06036
       2     C     3.03083  3.03083  0.00000 -0.06165
       3     O     4.17271  4.17271  0.00000 -0.34541
       4     H     0.44653  0.44653  0.00000  0.10694
       5     H     0.47343  0.47343  0.00000  0.05315
       6     C     2.96040  2.96040  0.00000  0.07921
       7     C     2.96143  2.96143  0.00000  0.07714
       8     H     0.47711  0.47711  0.00000  0.04578
       9     H     0.46894  0.46894  0.00000  0.06212
      10     O     4.17342  4.17342  0.00000 -0.34684
      11     H     0.46894  0.46894  0.00000  0.06211
      12     H     0.47533  0.47533  0.00000  0.04934
      13     C     3.03068  3.03068  0.00000 -0.06136
      14     H     0.47030  0.47030  0.00000  0.05940
      15     H     0.47354  0.47354  0.00000  0.05291
      16     H     0.44660  0.44660  0.00000  0.10681

   Total alpha = 25.00000, Total beta = 25.00000, Total charge =  0.00000
