  ==> Input File <==

--------------------------------------------------------------------------
set {
	reference rhf
	basis cc-pvtz
}

set_num_threads( 4 )
memory 2 gb

molecule MOL {
0 1

H	 -1.152061	 -0.000160	 0.802122
N	 -0.712187	 0.000026	 -0.093397
C	 0.734067	 -0.000020	 0.038424
H	 -1.026508	 0.815255	 -0.575112
H	 1.140372	 -0.872115	 -0.458226
H	 1.140363	 0.872301	 -0.457869
H	 1.095085	 -0.000244	 1.065614

	symmetry c1
}
set optking {
	frozen_dihedral = ("
		1 2 3 7
	")
}

ee = optimize('scf')
oeprop('DIPOLE', 'QUADRUPOLE', 'MULLIKEN_CHARGES')
f=open( 'psi4out.xyz', 'w' )
f.write( "7  " )
f.write( str(ee) + "\n" )
f.write( MOL.save_string_xyz() )
f.close()
--------------------------------------------------------------------------

    Molecular point group: c1
  Charge       = 0
  Multiplicity = 1
  Basis Set: CC-PVTZ
  Basis Set:
  @DF-RHF Final Energy:   -95.24977062280884
    Total Energy =                        -95.2497706228088532
    Molecular point group: c1
  Basis Set: CC-PVTZ
  Basis Set:
  Basis Set: CC-PVTZ
  Basis Set:
  @DF-RHF Final Energy:   -95.25030420511433
    Total Energy =                        -95.2503042051143467
  Basis Set: CC-PVTZ
  Basis Set:
  Basis Set: CC-PVTZ
  Basis Set:
  @DF-RHF Final Energy:   -95.25041081212468
    Total Energy =                        -95.2504108121247555
  Basis Set: CC-PVTZ
  Basis Set:
  Basis Set: CC-PVTZ
  Basis Set:
  @DF-RHF Final Energy:   -95.25041356878390
    Total Energy =                        -95.2504135687838698
  Basis Set: CC-PVTZ
  Basis Set:
  Charge       = 0
  Multiplicity = 1
  Basis Set: CC-PVTZ
  Basis Set:

    Orbital Energies (a.u.)
    -----------------------

    Doubly Occupied:

       1A    -15.526018     2A    -11.235594     3A     -1.168857
       4A     -0.898052     5A     -0.666082     6A     -0.600143
       7A     -0.560879     8A     -0.517845     9A     -0.382875

  @DF-RHF Final Energy:   -95.25041402168875

   => Energetics <=

    Nuclear Repulsion Energy =             42.3031574003140847
    One-Electron Energy =                -211.9944513950511293
    Two-Electron Energy =                  74.4408799730482684
    DFT Exchange-Correlation Energy =       0.0000000000000000
    Empirical Dispersion Energy =           0.0000000000000000
    PCM Polarization Energy =               0.0000000000000000
    EFP Energy =                            0.0000000000000000
    Total Energy =                        -95.2504140216887691
    Molecular point group: c1
  Basis Set: CC-PVTZ
  Basis Set:

  -Total Gradient:
     Atom            X                  Y                   Z
    ------   -----------------  -----------------  -----------------
       1       -0.000008654405    -0.000043691786    -0.000004237206
       2       -0.000070538258     0.000084640604    -0.000004148302
       3        0.000103807834    -0.000119340652     0.000004586146
       4        0.000002585341     0.000001029968     0.000005807333
       5       -0.000000836273     0.000019281264    -0.000002204913
       6       -0.000020562155    -0.000000874069     0.000001680422
       7       -0.000005802081     0.000058954672    -0.000001483480

  **** Optimization is complete! (in 5 steps) ****
    Final optimized geometry and variables:
    Molecular point group: c1

    Geometry (in Angstrom), charge = 0, multiplicity = 1:

    H           -1.152162111933    -0.025340135061     0.829898479081
    N           -0.717725607877    -0.023205059472    -0.065465121292
    C            0.737291552311    -0.027904995859     0.037478056886
    H           -1.051282394061     0.773639288747    -0.559627906744
    H            1.154311218117    -0.905048922459    -0.443656120442
    H            1.176322826556     0.844240649608    -0.433654684132
    H            1.066337250413    -0.032811651423     1.070390755088

  Mulliken Charges: (a.u.)
   Center  Symbol    Alpha    Beta     Spin     Total
       1     H     0.42708  0.42708  0.00000  0.14585
       2     N     3.68880  3.68880  0.00000 -0.37760
       3     C     3.06894  3.06894  0.00000 -0.13788
       4     H     0.42709  0.42709  0.00000  0.14582
       5     H     0.46142  0.46142  0.00000  0.07716
       6     H     0.46341  0.46341  0.00000  0.07318
       7     H     0.46326  0.46326  0.00000  0.07347

   Total alpha =  9.00000, Total beta =  9.00000, Total charge = -0.00000
