  ==> Input File <==

--------------------------------------------------------------------------
set {
	reference rhf
	basis 6-31G*
}

set_num_threads( 4 )
memory 2 gb

molecule MOL {
0 1

O	 -1.139842	 -1.096854	 2.065749
C	 -0.451170	 -1.129930	 1.097049
C	 0.801727	 -1.959116	 0.945507
O	 -0.698257	 -0.426125	 0.001050
C	 1.124911	 -2.785238	 2.184071
H	 1.613075	 -1.280220	 0.700432
H	 0.669725	 -2.590969	 0.072237
H	 1.272053	 -2.149836	 3.048928
H	 2.030738	 -3.360307	 2.024106
H	 0.320287	 -3.472711	 2.414906
C	 -1.853104	 0.406779	 0.000512
C	 -3.066105	 -0.499277	 -0.000959
H	 -1.828410	 1.043074	 -0.873618
H	 -1.829857	 1.042383	 0.875188
H	 -3.071820	 -1.133106	 -0.880383
H	 -3.972708	 0.097145	 -0.001528
H	 -3.073405	 -1.133813	 0.877999

	symmetry c1
}
set optking {
	frozen_dihedral = ("
		2 4 11 13
	")
}

ee = optimize('scf')
oeprop('DIPOLE', 'QUADRUPOLE', 'MULLIKEN_CHARGES')
f=open( 'psi4out.xyz', 'w' )
f.write( "17  " )
f.write( str(ee) + "\n" )
f.write( MOL.save_string_xyz() )
f.close()
--------------------------------------------------------------------------

    Molecular point group: c1
  Charge       = 0
  Multiplicity = 1
  Basis Set: 6-31G*
  Basis Set:
  @DF-RHF Final Energy:  -344.90672816692137
    Total Energy =                       -344.9067281669214253
    Molecular point group: c1
  Basis Set: 6-31G*
  Basis Set:
  Basis Set: 6-31G*
  Basis Set:
  @DF-RHF Final Energy:  -344.91011342263846
    Total Energy =                       -344.9101134226386876
  Basis Set: 6-31G*
  Basis Set:
  Basis Set: 6-31G*
  Basis Set:
  @DF-RHF Final Energy:  -344.91037099029546
    Total Energy =                       -344.9103709902956325
  Basis Set: 6-31G*
  Basis Set:
  Basis Set: 6-31G*
  Basis Set:
  @DF-RHF Final Energy:  -344.91043681422008
    Total Energy =                       -344.9104368142200201
  Basis Set: 6-31G*
  Basis Set:
  Basis Set: 6-31G*
  Basis Set:
  @DF-RHF Final Energy:  -344.91054118330726
    Total Energy =                       -344.9105411833073731
  Basis Set: 6-31G*
  Basis Set:
  Basis Set: 6-31G*
  Basis Set:
  @DF-RHF Final Energy:  -344.91056001148934
    Total Energy =                       -344.9105600114893377
  Basis Set: 6-31G*
  Basis Set:
  Charge       = 0
  Multiplicity = 1
  Basis Set: 6-31G*
  Basis Set:

    Orbital Energies (a.u.)
    -----------------------

    Doubly Occupied:

       1A    -20.600652     2A    -20.544520     3A    -11.372362
       4A    -11.286046     5A    -11.237377     6A    -11.216425
       7A    -11.215781     8A     -1.466635     9A     -1.362197
      10A     -1.068746    11A     -1.027678    12A     -0.916309
      13A     -0.854679    14A     -0.755581    15A     -0.702767
      16A     -0.679613    17A     -0.660376    18A     -0.621755
      19A     -0.611209    20A     -0.567871    21A     -0.546442
      22A     -0.531067    23A     -0.520955    24A     -0.515985
      25A     -0.496423    26A     -0.491193    27A     -0.450420
      28A     -0.434569

  @DF-RHF Final Energy:  -344.91056058805981

   => Energetics <=

    Nuclear Repulsion Energy =            319.2438401204501019
    One-Electron Energy =               -1102.7975351093741665
    Two-Electron Energy =                 438.6431344008641986
    DFT Exchange-Correlation Energy =       0.0000000000000000
    Empirical Dispersion Energy =           0.0000000000000000
    PCM Polarization Energy =               0.0000000000000000
    EFP Energy =                            0.0000000000000000
    Total Energy =                       -344.9105605880598091
    Molecular point group: c1
  Basis Set: 6-31G*
  Basis Set:

  -Total Gradient:
     Atom            X                  Y                   Z
    ------   -----------------  -----------------  -----------------
       1        0.000006862079     0.000023018426    -0.000003899929
       2       -0.001370743379    -0.002083835642    -0.001042298587
       3       -0.000041797512    -0.000073563248    -0.000020467262
       4        0.001764329694     0.002558730382     0.001189960553
       5        0.000026269061     0.000027986733     0.000012815313
       6        0.000016203542     0.000023180064     0.000019821859
       7        0.000015755926     0.000029715754     0.000005094648
       8       -0.000004418953    -0.000005837248    -0.000001357068
       9       -0.000003071233    -0.000007149267    -0.000000335034
      10       -0.000003641581    -0.000006136124    -0.000002622944
      11        0.001039804484     0.001576620784     0.001457061662
      12        0.000004928897     0.000027008259    -0.000010032563
      13       -0.001427656113    -0.002108204207    -0.001587664020
      14       -0.000028578574     0.000014869666    -0.000007966969
      15       -0.000000570149    -0.000006367460    -0.000003938423
      16       -0.000004575730    -0.000007745574     0.000004967681
      17        0.000010899540     0.000017708702    -0.000009138916

  **** Optimization is complete! (in 7 steps) ****
    Final optimized geometry and variables:
    Molecular point group: c1

    Geometry (in Angstrom), charge = 0, multiplicity = 1:

    O           -0.316671459673    -0.034403365370     1.214205664715
    C            0.335703286068    -0.066880460065     0.220221715186
    C            1.579967778397    -0.900232616330     0.024948272717
    O            0.063877366004     0.646151253714    -0.863810352886
    C            1.950075034672    -1.720003219366     1.254589398154
    H            2.382334765181    -0.224874365947    -0.256399739274
    H            1.411847727289    -1.536785362758    -0.838665023661
    H            2.133103327361    -1.079994238135     2.109119308973
    H            2.847447145418    -2.298343420211     1.062071518766
    H            1.153719158844    -2.404130166151     1.521349313206
    C           -1.117461236589     1.444134997986    -0.882437041641
    C           -2.384026608970     0.610419702025    -0.981237223679
    H           -1.010754219869     2.046017769150    -1.773108370484
    H           -1.130020797798     2.083299866252    -0.011384361627
    H           -2.335999564129    -0.047660850810    -1.842658169255
    H           -3.238270307578     1.268913924871    -1.106861634868
    H           -2.538542142020     0.016476473703    -0.091418593291

  Mulliken Charges: (a.u.)
   Center  Symbol    Alpha    Beta     Spin     Total
       1     O     4.28769  4.28769  0.00000 -0.57538
       2     C     2.60491  2.60491  0.00000  0.79018
       3     C     3.20495  3.20495  0.00000 -0.40991
       4     O     4.31467  4.31467  0.00000 -0.62935
       5     C     3.23878  3.23878  0.00000 -0.47756
       6     H     0.40024  0.40024  0.00000  0.19951
       7     H     0.40102  0.40102  0.00000  0.19795
       8     H     0.41000  0.41000  0.00000  0.18001
       9     H     0.41820  0.41820  0.00000  0.16360
      10     H     0.41024  0.41024  0.00000  0.17952
      11     C     3.00252  3.00252  0.00000 -0.00504
      12     C     3.26003  3.26003  0.00000 -0.52006
      13     H     0.40956  0.40956  0.00000  0.18087
      14     H     0.40681  0.40681  0.00000  0.18639
      15     H     0.41557  0.41557  0.00000  0.16887
      16     H     0.41781  0.41781  0.00000  0.16437
      17     H     0.39699  0.39699  0.00000  0.20603

   Total alpha = 28.00000, Total beta = 28.00000, Total charge = -0.00000
