  ==> Input File <==

--------------------------------------------------------------------------
set {
	reference rhf
	basis 6-31G*
}

set_num_threads( 4 )
memory 2 gb

molecule MOL {
0 1

H	 -3.420663	 1.227371	 -1.044276
O	 -3.452007	 0.283848	 -0.965577
C	 -3.181085	 -0.079926	 0.364119
C	 -1.765924	 0.277073	 0.805136
H	 -3.327791	 -1.152017	 0.410903
H	 -3.905698	 0.375695	 1.036898
C	 -0.677594	 -0.417312	 -0.014550
H	 -1.637766	 1.358238	 0.744969
H	 -1.659588	 0.017670	 1.857098
C	 0.738335	 -0.034840	 0.421385
H	 -0.814977	 -0.178223	 -1.064632
H	 -0.802730	 -1.495410	 0.071702
C	 1.621066	 -1.253121	 0.705393
H	 1.192185	 0.580698	 -0.351630
H	 0.686863	 0.586009	 1.314975
C	 3.022504	 -0.921472	 1.230881
H	 1.710155	 -1.851528	 -0.199962
H	 1.119025	 -1.883579	 1.436348
C	 3.919963	 -0.190004	 0.230918
H	 3.509470	 -1.849135	 1.521735
H	 2.934980	 -0.328067	 2.138853
H	 4.015751	 -0.754632	 -0.692748
H	 4.917229	 -0.051741	 0.637341
H	 3.532816	 0.791944	 -0.020199

	symmetry c1
}
set optking {
	frozen_dihedral = ("
		13 10 7 11
	")
}

ee = optimize('scf')
oeprop('DIPOLE', 'QUADRUPOLE', 'MULLIKEN_CHARGES')
f=open( 'psi4out.xyz', 'w' )
f.write( "24  " )
f.write( str(ee) + "\n" )
f.write( MOL.save_string_xyz() )
f.close()
--------------------------------------------------------------------------

    Molecular point group: c1
  Charge       = 0
  Multiplicity = 1
  Basis Set: 6-31G*
  Basis Set:
  @DF-RHF Final Energy:  -349.24215814894450
    Total Energy =                       -349.2421581489446680
    Molecular point group: c1
  Basis Set: 6-31G*
  Basis Set:
  Basis Set: 6-31G*
  Basis Set:
  @DF-RHF Final Energy:  -349.24238660899942
    Total Energy =                       -349.2423866089991975
  Basis Set: 6-31G*
  Basis Set:
  Basis Set: 6-31G*
  Basis Set:
  @DF-RHF Final Energy:  -349.24243757942753
    Total Energy =                       -349.2424375794275306
  Basis Set: 6-31G*
  Basis Set:
  Basis Set: 6-31G*
  Basis Set:
  @DF-RHF Final Energy:  -349.24244841713022
    Total Energy =                       -349.2424484171306176
  Basis Set: 6-31G*
  Basis Set:
  Basis Set: 6-31G*
  Basis Set:
  @DF-RHF Final Energy:  -349.24247152007155
    Total Energy =                       -349.2424715200713763
  Basis Set: 6-31G*
  Basis Set:
  Charge       = 0
  Multiplicity = 1
  Basis Set: 6-31G*
  Basis Set:

    Orbital Energies (a.u.)
    -----------------------

    Doubly Occupied:

       1A    -20.553593     2A    -11.267454     3A    -11.217682
       4A    -11.214178     5A    -11.212646     6A    -11.211879
       7A    -11.210734     8A    -11.207324     9A     -1.360114
      10A     -1.087027    11A     -1.047855    12A     -0.984394
      13A     -0.914789    14A     -0.851267    15A     -0.801402
      16A     -0.776792    17A     -0.679165    18A     -0.650602
      19A     -0.623911    20A     -0.620541    21A     -0.594970
      22A     -0.576383    23A     -0.572506    24A     -0.528922
      25A     -0.525143    26A     -0.511742    27A     -0.491278
      28A     -0.480214    29A     -0.466008    30A     -0.459511
      31A     -0.454980    32A     -0.442785    33A     -0.419997

  @DF-RHF Final Energy:  -349.24247060983350

   => Energetics <=

    Nuclear Repulsion Energy =            384.0564222007441231
    One-Electron Energy =               -1234.5622122213553666
    Two-Electron Energy =                 501.2633194107778536
    DFT Exchange-Correlation Energy =       0.0000000000000000
    Empirical Dispersion Energy =           0.0000000000000000
    PCM Polarization Energy =               0.0000000000000000
    EFP Energy =                            0.0000000000000000
    Total Energy =                       -349.2424706098333900
    Molecular point group: c1
  Basis Set: 6-31G*
  Basis Set:

  -Total Gradient:
     Atom            X                  Y                   Z
    ------   -----------------  -----------------  -----------------
       1       -0.000002533284     0.000005941475    -0.000005792731
       2       -0.000012037186     0.000008508084     0.000025086435
       3       -0.000059500906    -0.000022085451     0.000019910803
       4        0.000041270752    -0.000062985946    -0.000101264401
       5        0.000003046281     0.000006989198    -0.000001753656
       6       -0.000047109990    -0.000002471194    -0.000008983909
       7        0.000698920355    -0.002150676188     0.000074513242
       8        0.000022695136    -0.000014671125    -0.000028398322
       9        0.000032558922    -0.000011621056    -0.000040354947
      10        0.000328476816     0.000301377848    -0.001736494388
      11       -0.000668719870     0.001801166744     0.000512595871
      12       -0.000059151270     0.000001131422    -0.000011714285
      13       -0.000491308945     0.000130845342     0.001379710159
      14        0.000089888919     0.000005778357    -0.000063190664
      15        0.000102423473    -0.000015243692    -0.000026648378
      16        0.000059020677    -0.000075522076     0.000042763597
      17        0.000014196705     0.000065686618     0.000007228117
      18       -0.000060442486     0.000023104079    -0.000034675345
      19       -0.000032826895     0.000008217156     0.000008085553
      20        0.000056357396     0.000001274662    -0.000003215858
      21        0.000011062104    -0.000028172397    -0.000001022688
      22        0.000012298398    -0.000005592098     0.000009426055
      23       -0.000005935731     0.000017258243     0.000009276623
      24       -0.000032649364     0.000011761994    -0.000025086881

  **** Optimization is complete! (in 6 steps) ****
    Final optimized geometry and variables:
    Molecular point group: c1

    Geometry (in Angstrom), charge = 0, multiplicity = 1:

    H           -3.386299298214     1.520192360638    -1.370798383456
    O           -3.422962023817     0.576060695705    -1.302835587264
    C           -3.169146341426     0.196685252907     0.026094169162
    C           -1.756928107093     0.539979239089     0.486207840089
    H           -3.323046409523    -0.874876249003     0.059955821237
    H           -3.898692144281     0.649653644432     0.695352469864
    C           -0.661917346536    -0.157978197487    -0.324092168678
    H           -1.618623175657     1.620360675999     0.433790292638
    H           -1.663515486738     0.273612829692     1.537792010464
    C            0.765791920155     0.227595975441     0.122408753675
    H           -0.807162151023     0.086731469122    -1.370134514803
    H           -0.800458263374    -1.233310252810    -0.238818466129
    C            1.659908555248    -0.984993420623     0.399442458180
    H            1.223015121007     0.862771214480    -0.629694260646
    H            0.716956948750     0.827604250752     1.029456901501
    C            3.065087558270    -0.644647534517     0.907985098070
    H            1.741431085597    -1.587802928219    -0.503916149456
    H            1.166190455030    -1.613163079796     1.138274228640
    C            3.950732422580     0.079856271050    -0.107581740916
    H            3.557938332550    -1.568003915334     1.202757105786
    H            2.984595360345    -0.042990132549     1.811307331888
    H            4.042759875481    -0.495452380442    -1.024924150550
    H            4.950206617003     0.228526092145     0.289643725826
    H            3.556288836779     1.056400994179    -0.367938706141

  Mulliken Charges: (a.u.)
   Center  Symbol    Alpha    Beta     Spin     Total
       1     H     0.28335  0.28335  0.00000  0.43330
       2     O     4.36835  4.36835  0.00000 -0.73671
       3     C     2.99687  2.99687  0.00000  0.00627
       4     C     3.17057  3.17057  0.00000 -0.34114
       5     H     0.41632  0.41632  0.00000  0.16737
       6     H     0.42817  0.42817  0.00000  0.14365
       7     C     3.15552  3.15552  0.00000 -0.31104
       8     H     0.42779  0.42779  0.00000  0.14442
       9     H     0.42253  0.42253  0.00000  0.15495
      10     C     3.15667  3.15667  0.00000 -0.31335
      11     H     0.40942  0.40942  0.00000  0.18116
      12     H     0.42087  0.42087  0.00000  0.15825
      13     C     3.15400  3.15400  0.00000 -0.30800
      14     H     0.41888  0.41888  0.00000  0.16223
      15     H     0.42360  0.42360  0.00000  0.15280
      16     C     3.15302  3.15302  0.00000 -0.30604
      17     H     0.42306  0.42306  0.00000  0.15387
      18     H     0.42299  0.42299  0.00000  0.15402
      19     C     3.24092  3.24092  0.00000 -0.48184
      20     H     0.42113  0.42113  0.00000  0.15774
      21     H     0.42398  0.42398  0.00000  0.15205
      22     H     0.42191  0.42191  0.00000  0.15618
      23     H     0.41958  0.41958  0.00000  0.16085
      24     H     0.42049  0.42049  0.00000  0.15902

   Total alpha = 33.00000, Total beta = 33.00000, Total charge =  0.00000
