                              Psi4 1.0.54 Driver

  ==> Input File <==

--------------------------------------------------------------------------
set {
	reference rhf
	basis cc-pvtz
}

set_num_threads( 4 )
memory 2 gb

molecule MOL {
0 1

H	 3.037503	 -1.079504	 1.128671
O	 2.130519	 -1.319420	 1.185646
C	 1.342725	 -0.401333	 0.592381
C	 1.856546	 0.736244	 -0.011430
C	 -0.019227	 -0.622843	 0.598764
H	 2.917762	 0.907225	 -0.015481
C	 1.008747	 1.648375	 -0.606583
H	 -0.419145	 -1.500456	 1.064280
C	 -0.861704	 0.296439	 0.000000
H	 1.417624	 2.524880	 -1.070677
C	 -0.354905	 1.434205	 -0.604538
C	 -2.330689	 0.069587	 0.000000
H	 -1.016637	 2.141705	 -1.066536
O	 -2.848621	 -0.993976	 0.000000
H	 -2.934306	 0.982410	 0.000000

	symmetry c1
}
set optking {
	frozen_dihedral = ("
		11 9 12 14
	")
}

ee,wfn = optimize('scf', return_wfn=True)
oeprop( wfn, 'DIPOLE', 'QUADRUPOLE', 'MULLIKEN_CHARGES')
f=open( 'psi4out.xyz', 'w' )
f.write( "15  " )
f.write( str(ee) + "\n" )
f.write( MOL.save_string_xyz() )
f.close()
--------------------------------------------------------------------------

    Molecular point group: c1
  Charge       = 0
  Multiplicity = 1
  Basis Set: CC-PVTZ
  Basis Set:
  @DF-RHF Final Energy:  -418.43608872856544
    Total Energy =                       -418.4360887285655508
    Molecular point group: c1
  Basis Set: CC-PVTZ
  Basis Set:
  Basis Set: CC-PVTZ
  Basis Set:
  @DF-RHF Final Energy:  -418.43444334198836
    Total Energy =                       -418.4344433419884126
  Basis Set: CC-PVTZ
  Basis Set:
  Basis Set: CC-PVTZ
  Basis Set:
  @DF-RHF Final Energy:  -418.43630346643215
    Total Energy =                       -418.4363034664321503
  Basis Set: CC-PVTZ
  Basis Set:
  Basis Set: CC-PVTZ
  Basis Set:
  @DF-RHF Final Energy:  -418.43647141283139
    Total Energy =                       -418.4364714128315654
  Basis Set: CC-PVTZ
  Basis Set:
  Basis Set: CC-PVTZ
  Basis Set:
  @DF-RHF Final Energy:  -418.43647281623095
    Total Energy =                       -418.4364728162308893
  Basis Set: CC-PVTZ
  Basis Set:
  Charge       = 0
  Multiplicity = 1
  Basis Set: CC-PVTZ
  Basis Set:

    Orbital Energies (a.u.)
    -----------------------

    Doubly Occupied:

       1A    -20.595735     2A    -20.556365     3A    -11.328556
       4A    -11.311705     5A    -11.251727     6A    -11.250714
       7A    -11.245857     8A    -11.242005     9A    -11.237300
      10A     -1.427526    11A     -1.411816    12A     -1.173842
      13A     -1.051723    14A     -1.030311    15A     -0.902469
      16A     -0.849453    17A     -0.817630    18A     -0.740630
      19A     -0.705814    20A     -0.688988    21A     -0.647121
      22A     -0.642101    23A     -0.615685    24A     -0.608085
      25A     -0.581820    26A     -0.552806    27A     -0.544184
      28A     -0.516699    29A     -0.493458    30A     -0.427155
      31A     -0.358014    32A     -0.330190

  @DF-RHF Final Energy:  -418.43647312103514

   => Energetics <=

    Nuclear Repulsion Energy =            404.0447062031276459
    One-Electron Energy =               -1370.6873859543038634
    Two-Electron Energy =                 548.2062066301410823
    DFT Exchange-Correlation Energy =       0.0000000000000000
    Empirical Dispersion Energy =           0.0000000000000000
    PCM Polarization Energy =               0.0000000000000000
    EFP Energy =                            0.0000000000000000
    Total Energy =                       -418.4364731210351920
    Molecular point group: c1
  Basis Set: CC-PVTZ
  Basis Set:

  -Total Gradient:
     Atom            X                  Y                   Z
    ------   -----------------  -----------------  -----------------
       1       -0.000000012978     0.000010263872     0.000016440692
       2        0.000001922972    -0.000012961575    -0.000031238570
       3       -0.000019716026     0.000000728608     0.000027322344
       4       -0.000005178966     0.000008661150    -0.000014167564
       5        0.000017149130     0.000009889983     0.000034830326
       6        0.000001055712    -0.000001205779    -0.000004764346
       7        0.000014328404    -0.000001001547     0.000008296056
       8       -0.000001334342     0.000008244358    -0.000001388728
       9       -0.000626938652     0.002805562637     0.002582502499
      10        0.000001035180    -0.000002372587    -0.000000572259
      11        0.000525044554    -0.001970043423    -0.003314115603
      12       -0.000159869646    -0.000776599000     0.005560566601
      13       -0.000001531930     0.000002501136    -0.000000552760
      14        0.000247314785    -0.000062144009    -0.004861928832
      15        0.000006731797    -0.000019523826    -0.000001229856

  **** Optimization is complete! (in 6 steps) ****
    Final optimized geometry and variables:
    Molecular point group: c1

    Geometry (in Angstrom), charge = 0, multiplicity = 1:

    H            3.037445748019    -1.108168649173     0.995154062848
    O            2.130478690045    -1.349227417440     1.050260273250
    C            1.343934366482    -0.430398271320     0.457529358324
    C            1.856617368670     0.712618215986    -0.135471945432
    C           -0.017233226468    -0.661897486445     0.446366753380
    H            2.917159284320     0.887789507514    -0.132924477995
    C            1.007270171591     1.624375008178    -0.729589440458
    H           -0.411304995005    -1.557491817315     0.882348022481
    C           -0.861181531732     0.267027661289    -0.133071808503
    H            1.415151544409     2.501977113661    -1.192640843287
    C           -0.356473181756     1.411740667100    -0.726379536940
    C           -2.323753299130    -0.000077210807    -0.207584468449
    H           -1.018651100514     2.124344039187    -1.180171709799
    O           -2.805813568474    -1.079669089172    -0.220171628943
    H           -2.951428876660     0.891612927483    -0.303260011740

  Mulliken Charges: (a.u.)
   Center  Symbol    Alpha    Beta     Spin     Total
       1     H     0.38714  0.38714  0.00000  0.22572
       2     O     4.16996  4.16996  0.00000 -0.33992
       3     C     2.84051  2.84051  0.00000  0.31898
       4     C     3.12919  3.12919  0.00000 -0.25839
       5     C     3.12133  3.12133  0.00000 -0.24267
       6     H     0.43158  0.43158  0.00000  0.13685
       7     C     3.06201  3.06201  0.00000 -0.12402
       8     H     0.40769  0.40769  0.00000  0.18461
       9     C     2.95739  2.95739  0.00000  0.08521
      10     H     0.41940  0.41940  0.00000  0.16120
      11     C     3.11157  3.11157  0.00000 -0.22314
      12     C     2.91671  2.91671  0.00000  0.16659
      13     H     0.42375  0.42375  0.00000  0.15250
      14     O     4.16499  4.16499  0.00000 -0.32999
      15     H     0.45677  0.45677  0.00000  0.08646

   Total alpha = 32.00000, Total beta = 32.00000, Total charge = -0.00000

*** Psi4 exiting successfully. Buy a developer a beer!
