  ==> Input File <==

--------------------------------------------------------------------------
set {
	reference rhf
	basis 6-31G*
}

set_num_threads( 1 )
memory 2 gb

molecule MOL {
0 1

H	 -3.420663	 1.227371	 -1.044276
O	 -3.452007	 0.283848	 -0.965577
C	 -3.181085	 -0.079926	 0.364119
C	 -1.765924	 0.277073	 0.805136
H	 -3.327791	 -1.152017	 0.410903
H	 -3.905698	 0.375695	 1.036898
C	 -1.689642	 1.562042	 1.630699
H	 -1.353056	 -0.553283	 1.378731
H	 -1.143788	 0.370195	 -0.083399
C	 -0.268592	 1.898939	 2.087094
H	 -2.340010	 1.469587	 2.495096
H	 -2.083681	 2.386938	 1.039367
C	 -0.199384	 3.189541	 2.907850
H	 0.122537	 1.067460	 2.668541
H	 0.378669	 1.993544	 1.216055
C	 1.215931	 3.616909	 3.313307
H	 -0.810723	 3.080098	 3.802267
H	 -0.650159	 3.993763	 2.330055
C	 1.913751	 2.664274	 4.285901
H	 1.160327	 4.601852	 3.770564
H	 1.826583	 3.732068	 2.419973
H	 1.319520	 2.520014	 5.184354
H	 2.877970	 3.060888	 4.588915
H	 2.088317	 1.688646	 3.844494

	symmetry c1
}
set optking {
	frozen_dihedral = ("
		20 16 13 17,
		17 13 10 7,
		13 10 7 11,
		11 7 4 3,
		1 2 3 5
	")
}

ee = energy('scf')
oeprop('DIPOLE', 'QUADRUPOLE', 'MULLIKEN_CHARGES')
f=open( 'psi4out.xyz', 'w' )
f.write( "24  " )
f.write( str(ee) + "\n" )
f.write( MOL.save_string_xyz() )
f.close()
--------------------------------------------------------------------------

    Molecular point group: c1

    Geometry (in Angstrom), charge = 0, multiplicity = 1:

       Center              X                  Y                   Z               Mass
    ------------   -----------------  -----------------  -----------------  -----------------
           H         -2.454008637146    -0.427663916403    -2.806398111891     1.007825032070
           O         -2.485352637146    -1.371186916403    -2.727699111891    15.994914619560
           C         -2.214430637146    -1.734960916403    -1.398003111891    12.000000000000
           C         -0.799269637146    -1.377961916403    -0.956986111891    12.000000000000
           H         -2.361136637146    -2.807051916403    -1.351219111891     1.007825032070
           H         -2.939043637146    -1.279339916403    -0.725224111891     1.007825032070
           C         -0.722987637146    -0.092992916403    -0.131423111891    12.000000000000
           H         -0.386401637146    -2.208317916403    -0.383391111891     1.007825032070
           H         -0.177133637146    -1.284839916403    -1.845521111891     1.007825032070
           C          0.698062362854     0.243904083597     0.324971888109    12.000000000000
           H         -1.373355637146    -0.185447916403     0.732973888109     1.007825032070
           H         -1.117026637146     0.731903083597    -0.722755111891     1.007825032070
           C          0.767270362854     1.534506083597     1.145727888109    12.000000000000
           H          1.089191362854    -0.587574916403     0.906418888109     1.007825032070
           H          1.345323362854     0.338509083597    -0.546067111891     1.007825032070
           C          2.182585362854     1.961874083597     1.551184888109    12.000000000000
           H          0.155931362854     1.425063083597     2.040144888109     1.007825032070
           H          0.316495362854     2.338728083597     0.567932888109     1.007825032070
           C          2.880405362854     1.009239083597     2.523778888109    12.000000000000
           H          2.126981362854     2.946817083597     2.008441888109     1.007825032070
           H          2.793237362854     2.077033083597     0.657850888109     1.007825032070
           H          2.286174362854     0.864979083597     3.422231888109     1.007825032070
           H          3.844624362854     1.405853083597     2.826792888109     1.007825032070
           H          3.054971362854     0.033611083597     2.082371888109     1.007825032070

  Charge       = 0
  Multiplicity = 1
  Basis Set: 6-31G*
  Basis Set:

    Orbital Energies (a.u.)
    -----------------------

    Doubly Occupied:

       1A    -20.551330     2A    -11.265758     3A    -11.220818
       4A    -11.217261     5A    -11.217082     6A    -11.215948
       7A    -11.214644     8A    -11.209752     9A     -1.358209
      10A     -1.093533    11A     -1.051633    12A     -0.987352
      13A     -0.917210    14A     -0.852430    15A     -0.802556
      16A     -0.780654    17A     -0.688420    18A     -0.657197
      19A     -0.623401    20A     -0.615769    21A     -0.597082
      22A     -0.586515    23A     -0.560866    24A     -0.535160
      25A     -0.534480    26A     -0.507178    27A     -0.493289
      28A     -0.486101    29A     -0.475684    30A     -0.463126
      31A     -0.457891    32A     -0.441881    33A     -0.422713

  @DF-RHF Final Energy:  -349.24270702966021

   => Energetics <=

    Nuclear Repulsion Energy =            382.1957465502009654
    One-Electron Energy =               -1230.6709459748881272
    Two-Electron Energy =                 499.2324923950266111
    DFT Exchange-Correlation Energy =       0.0000000000000000
    Empirical Dispersion Energy =           0.0000000000000000
    PCM Polarization Energy =               0.0000000000000000
    EFP Energy =                            0.0000000000000000
    Total Energy =                       -349.2427070296605507

  Mulliken Charges: (a.u.)
   Center  Symbol    Alpha    Beta     Spin     Total
       1     H     0.28345  0.28345  0.00000  0.43310
       2     O     4.36956  4.36956  0.00000 -0.73912
       3     C     2.99509  2.99509  0.00000  0.00982
       4     C     3.17374  3.17374  0.00000 -0.34748
       5     H     0.41439  0.41439  0.00000  0.17123
       6     H     0.42985  0.42985  0.00000  0.14029
       7     C     3.15628  3.15628  0.00000 -0.31256
       8     H     0.42040  0.42040  0.00000  0.15921
       9     H     0.41148  0.41148  0.00000  0.17705
      10     C     3.15371  3.15371  0.00000 -0.30742
      11     H     0.42123  0.42123  0.00000  0.15754
      12     H     0.42935  0.42935  0.00000  0.14131
      13     C     3.15251  3.15251  0.00000 -0.30502
      14     H     0.42034  0.42034  0.00000  0.15931
      15     H     0.42289  0.42289  0.00000  0.15421
      16     C     3.15247  3.15247  0.00000 -0.30494
      17     H     0.42415  0.42415  0.00000  0.15170
      18     H     0.42282  0.42282  0.00000  0.15437
      19     C     3.24133  3.24133  0.00000 -0.48267
      20     H     0.42077  0.42077  0.00000  0.15845
      21     H     0.42311  0.42311  0.00000  0.15379
      22     H     0.42227  0.42227  0.00000  0.15546
      23     H     0.41886  0.41886  0.00000  0.16228
      24     H     0.41996  0.41996  0.00000  0.16009

   Total alpha = 33.00000, Total beta = 33.00000, Total charge =  0.00000
