                              Psi4 1.0.54 Driver

  ==> Input File <==

--------------------------------------------------------------------------
set {
	reference rhf
	basis cc-pvtz
}

set_num_threads( 4 )
memory 2 gb

molecule MOL {
0 1

H	 2.228832	 -1.069982	 0.896990
O	 2.012307	 -0.863440	 0.000222
C	 1.050374	 0.054877	 0.000135
C	 -0.318151	 -0.570512	 0.000144
O	 1.286319	 1.213453	 -0.000040
C	 -1.454884	 0.441630	 -0.000560
H	 -0.371613	 -1.223646	 -0.864985
H	 -0.371920	 -1.222758	 0.865929
C	 -2.822577	 -0.232186	 0.000063
H	 -1.359760	 1.084704	 -0.867077
H	 -1.359641	 1.085996	 0.864983
H	 -2.954352	 -0.858985	 -0.875745
H	 -3.615886	 0.505352	 0.000019
H	 -2.953878	 -0.858359	 0.876394

	symmetry c1
}
set optking {
	frozen_dihedral = ("
		1 2 3 5
	")
}

ee,wfn = optimize('scf', return_wfn=True)
oeprop( wfn, 'DIPOLE', 'QUADRUPOLE', 'MULLIKEN_CHARGES')
f=open( 'psi4out.xyz', 'w' )
f.write( "14  " )
f.write( str(ee) + "\n" )
f.write( MOL.save_string_xyz() )
f.close()
--------------------------------------------------------------------------

    Molecular point group: c1
  Charge       = 0
  Multiplicity = 1
  Basis Set: CC-PVTZ
  Basis Set:
  @DF-RHF Final Energy:  -305.97964048034930
    Total Energy =                       -305.9796404803493601
    Molecular point group: c1
  Basis Set: CC-PVTZ
  Basis Set:
  Basis Set: CC-PVTZ
  Basis Set:
  @DF-RHF Final Energy:  -305.98004744158209
    Total Energy =                       -305.9800474415824283
  Basis Set: CC-PVTZ
  Basis Set:
  Basis Set: CC-PVTZ
  Basis Set:
  @DF-RHF Final Energy:  -305.98104347745692
    Total Energy =                       -305.9810434774567511
  Basis Set: CC-PVTZ
  Basis Set:
  Basis Set: CC-PVTZ
  Basis Set:
  @DF-RHF Final Energy:  -305.98131822596099
    Total Energy =                       -305.9813182259609903
  Basis Set: CC-PVTZ
  Basis Set:
  Basis Set: CC-PVTZ
  Basis Set:
  @DF-RHF Final Energy:  -305.98132644196903
    Total Energy =                       -305.9813264419689176
  Basis Set: CC-PVTZ
  Basis Set:
  Charge       = 0
  Multiplicity = 1
  Basis Set: CC-PVTZ
  Basis Set:

    Orbital Energies (a.u.)
    -----------------------

    Doubly Occupied:

       1A    -20.586062     2A    -20.551228     3A    -11.374630
       4A    -11.242158     5A    -11.225543     6A    -11.217236
       7A     -1.463662     8A     -1.370817     9A     -1.084811
      10A     -0.978004    11A     -0.853501    12A     -0.800031
      13A     -0.714014    14A     -0.678701    15A     -0.665763
      16A     -0.632052    17A     -0.580245    18A     -0.560253
      19A     -0.544922    20A     -0.509695    21A     -0.499595
      22A     -0.484865    23A     -0.484521    24A     -0.447736

  @DF-RHF Final Energy:  -305.98133493538609

   => Energetics <=

    Nuclear Repulsion Energy =            239.6270341828812320
    One-Electron Energy =                -892.1166463868643177
    Two-Electron Energy =                 346.5082772685969985
    DFT Exchange-Correlation Energy =       0.0000000000000000
    Empirical Dispersion Energy =           0.0000000000000000
    PCM Polarization Energy =               0.0000000000000000
    EFP Energy =                            0.0000000000000000
    Total Energy =                       -305.9813349353861440
    Molecular point group: c1
  Basis Set: CC-PVTZ
  Basis Set:

  -Total Gradient:
     Atom            X                  Y                   Z
    ------   -----------------  -----------------  -----------------
       1       -0.001596582905    -0.001621686383     0.000051257531
       2        0.001869303429     0.002094995950    -0.000980902945
       3       -0.000044097639    -0.000464131796     0.002890337470
       4        0.000014334785     0.000048645536     0.000003818184
       5       -0.000212258142    -0.000053284389    -0.001975042983
       6       -0.000006799081    -0.000004050789     0.000012359271
       7        0.000014054250    -0.000002670553    -0.000001639689
       8       -0.000015290292     0.000001909576    -0.000010670518
       9       -0.000013090125     0.000010553775     0.000001467472
      10        0.000004528817    -0.000015441145     0.000013081360
      11       -0.000006446746     0.000005761900    -0.000002233718
      12        0.000002179085     0.000001847508     0.000002005579
      13       -0.000010457262    -0.000004709988    -0.000000165270
      14        0.000000621825     0.000002260795    -0.000003671744

  **** Optimization is complete! (in 6 steps) ****
    Final optimized geometry and variables:
    Molecular point group: c1

    Geometry (in Angstrom), charge = 0, multiplicity = 1:

    H            2.385947186261    -1.094296038403     0.733419678129
    O            2.043949056150    -0.875681290915    -0.117401033587
    C            1.053685586552     0.054262145203    -0.042887780595
    C           -0.322534427592    -0.552433357367     0.027747303447
    O            1.286804580439     1.203435253570    -0.094743461106
    C           -1.454164455839     0.464317780569     0.060859864503
    H           -0.413277675133    -1.219035185482    -0.824276691086
    H           -0.348595525318    -1.197094052312     0.902664679791
    C           -2.824673838467    -0.200870929792     0.125142002323
    H           -1.389904372758     1.095096171268    -0.817336048029
    H           -1.321262371152     1.120143071337     0.913147416153
    H           -2.994560149695    -0.838149479329    -0.736322409345
    H           -3.613350350786     0.541261344335     0.146870424672
    H           -2.924771078532    -0.814796305025     1.014302734415

  Mulliken Charges: (a.u.)
   Center  Symbol    Alpha    Beta     Spin     Total
       1     H     0.38824  0.38824  0.00000  0.22352
       2     O     4.17551  4.17551  0.00000 -0.35101
       3     C     2.80096  2.80096  0.00000  0.39809
       4     C     3.11013  3.11013  0.00000 -0.22025
       5     O     4.16102  4.16102  0.00000 -0.32205
       6     C     3.08070  3.08070  0.00000 -0.16140
       7     H     0.43709  0.43709  0.00000  0.12583
       8     H     0.44868  0.44868  0.00000  0.10265
       9     C     3.15020  3.15020  0.00000 -0.30040
      10     H     0.44454  0.44454  0.00000  0.11092
      11     H     0.44717  0.44717  0.00000  0.10567
      12     H     0.45483  0.45483  0.00000  0.09034
      13     H     0.44473  0.44473  0.00000  0.11054
      14     H     0.45622  0.45622  0.00000  0.08757

   Total alpha = 24.00000, Total beta = 24.00000, Total charge =  0.00000

*** Psi4 exiting successfully. Buy a developer a beer!
