                              Psi4 1.0.54 Driver

  ==> Input File <==

--------------------------------------------------------------------------
set {
	reference rhf
	basis cc-pvtz
}

set_num_threads( 4 )
memory 2 gb

molecule MOL {
0 1

O	 1.847685	 1.294399	 -0.000190
C	 1.704209	 0.119472	 -0.000093
C	 0.380337	 -0.600947	 -0.000234
O	 2.715427	 -0.733672	 0.000025
C	 -0.824290	 0.329213	 -0.000115
H	 0.371455	 -1.255476	 -0.865660
H	 0.371410	 -1.255787	 0.864952
C	 -2.146151	 -0.432825	 -0.000068
H	 -0.773936	 0.979158	 -0.866319
H	 -0.773838	 0.979034	 0.866186
C	 -3.366283	 0.483552	 0.000557
H	 -2.189286	 -1.084450	 -0.869996
H	 -2.188867	 -1.085083	 0.869399
C	 -4.604073	 -0.166592	 -0.608213
H	 -3.131159	 1.392893	 -0.545312
H	 -3.583874	 0.789060	 1.020105
H	 -4.428996	 -0.452501	 -1.640123
H	 -5.450651	 0.510007	 -0.592278
H	 -4.885531	 -1.060890	 -0.062094
C	 4.020999	 -0.192556	 0.000019
H	 4.182809	 0.412891	 -0.879449
H	 4.692590	 -1.035653	 0.000152
H	 4.182726	 0.413087	 0.879368

	symmetry c1
}
set optking {
	frozen_dihedral = ("
		15 11 8 12
	")
}

ee,wfn = optimize('scf', return_wfn=True)
oeprop( wfn, 'DIPOLE', 'QUADRUPOLE', 'MULLIKEN_CHARGES')
f=open( 'psi4out.xyz', 'w' )
f.write( "23  " )
f.write( str(ee) + "\n" )
f.write( MOL.save_string_xyz() )
f.close()
--------------------------------------------------------------------------

    Molecular point group: c1
  Charge       = 0
  Multiplicity = 1
  Basis Set: CC-PVTZ
  Basis Set:
  @DF-RHF Final Energy:  -423.12886050791809
    Total Energy =                       -423.1288605079186027
    Molecular point group: c1
  Basis Set: CC-PVTZ
  Basis Set:
  Basis Set: CC-PVTZ
  Basis Set:
  @DF-RHF Final Energy:  -423.12793493691322
    Total Energy =                       -423.1279349369139027
  Basis Set: CC-PVTZ
  Basis Set:
  Basis Set: CC-PVTZ
  Basis Set:
  @DF-RHF Final Energy:  -423.12911371631964
    Total Energy =                       -423.1291137163193525
  Basis Set: CC-PVTZ
  Basis Set:
  Basis Set: CC-PVTZ
  Basis Set:
  @DF-RHF Final Energy:  -423.12913408381803
    Total Energy =                       -423.1291340838179167
  Basis Set: CC-PVTZ
  Basis Set:
  Basis Set: CC-PVTZ
  Basis Set:
  @DF-RHF Final Energy:  -423.12893787219241
    Total Energy =                       -423.1289378721926369
  Basis Set: CC-PVTZ
  Basis Set:
  Basis Set: CC-PVTZ
  Basis Set:
  @DF-RHF Final Energy:  -423.12914517824032
    Total Energy =                       -423.1291451782401509
  Basis Set: CC-PVTZ
  Basis Set:
  Basis Set: CC-PVTZ
  Basis Set:
  @DF-RHF Final Energy:  -423.12914690305445
    Total Energy =                       -423.1291469030549024
  Basis Set: CC-PVTZ
  Basis Set:
  Charge       = 0
  Multiplicity = 1
  Basis Set: CC-PVTZ
  Basis Set:

    Orbital Energies (a.u.)
    -----------------------

    Doubly Occupied:

       1A    -20.596345     2A    -20.534149     3A    -11.364614
       4A    -11.278508     5A    -11.233810     6A    -11.217624
       7A    -11.215644     8A    -11.214326     9A    -11.208161
      10A     -1.472258    11A     -1.365816    12A     -1.094055
      13A     -1.044384    14A     -0.988219    15A     -0.932831
      16A     -0.844811    17A     -0.796122    18A     -0.769475
      19A     -0.699241    20A     -0.686791    21A     -0.675558
      22A     -0.649717    23A     -0.609898    24A     -0.601240
      25A     -0.574256    26A     -0.564715    27A     -0.553118
      28A     -0.525527    29A     -0.522640    30A     -0.507787
      31A     -0.487211    32A     -0.471545    33A     -0.463684
      34A     -0.462883    35A     -0.457824    36A     -0.438485

  @DF-RHF Final Energy:  -423.12914699860079

   => Energetics <=

    Nuclear Repulsion Energy =            452.8865971450621259
    One-Electron Energy =               -1473.7849402223098423
    Two-Electron Energy =                 597.7691960786472691
    DFT Exchange-Correlation Energy =       0.0000000000000000
    Empirical Dispersion Energy =           0.0000000000000000
    PCM Polarization Energy =               0.0000000000000000
    EFP Energy =                            0.0000000000000000
    Total Energy =                       -423.1291469986005040
    Molecular point group: c1
  Basis Set: CC-PVTZ
  Basis Set:

  -Total Gradient:
     Atom            X                  Y                   Z
    ------   -----------------  -----------------  -----------------
       1        0.000012808774    -0.000026092924     0.000008185347
       2        0.000012761431    -0.000024060285    -0.000010667386
       3        0.000003903389     0.000010955404     0.000004708850
       4       -0.000024506983     0.000042523867     0.000001820281
       5       -0.000000097168    -0.000005054041     0.000011870659
       6       -0.000001796780     0.000004081391     0.000003928185
       7       -0.000003421198     0.000001867727    -0.000006303973
       8        0.002641556377     0.003666564006    -0.002341088943
       9       -0.000003663482    -0.000007786427     0.000008870242
      10        0.000001937840    -0.000003313835    -0.000006566518
      11       -0.002104914087    -0.003224116836    -0.003328893569
      12       -0.001870997490    -0.002554596662     0.002491038666
      13        0.000004608053     0.000005693373    -0.000007219619
      14       -0.000016845759     0.000001993765     0.000001729396
      15        0.001332268527     0.002108818016     0.003172021251
      16       -0.000007242749    -0.000001286356    -0.000007825078
      17        0.000001162759     0.000007731381     0.000024212013
      18        0.000006577393    -0.000014091690    -0.000005242499
      19       -0.000001186724     0.000011591792    -0.000011166997
      20        0.000017436656     0.000001634061    -0.000005975542
      21       -0.000000137911    -0.000001777801     0.000005693054
      22        0.000003630549     0.000002409430     0.000000390618
      23       -0.000003841412    -0.000003687352    -0.000003518435

  **** Optimization is complete! (in 8 steps) ****
    Final optimized geometry and variables:
    Molecular point group: c1

    Geometry (in Angstrom), charge = 0, multiplicity = 1:

    O            1.801552181521     1.337215539053    -0.105701842538
    C            1.695574649875     0.167757785309     0.043306145765
    C            0.395332801731    -0.589754735704     0.127377307494
    O            2.733422647073    -0.644637263478     0.158280403134
    C           -0.837779830501     0.293015111368     0.001168962737
    H            0.415478214976    -1.349027080911    -0.647625181296
    H            0.398459311833    -1.128950593432     1.068930382405
    C           -2.134469936275    -0.504511301226     0.080190346651
    H           -0.796312427076     0.834035225085    -0.937123681485
    H           -0.821136932912     1.045171924642     0.782202836158
    C           -3.391935915300     0.367869913348     0.028494793930
    H           -2.172538700556    -1.248871052176    -0.711823265273
    H           -2.147393719041    -1.079265723138     1.003925913190
    C           -4.639020883441    -0.386053273119    -0.415683352772
    H           -3.216563649601     1.224401192734    -0.615907552052
    H           -3.563120165270     0.790461043055     1.014890984848
    H           -4.528729316151    -0.762839340722    -1.426920266412
    H           -5.514027012221     0.253127122563    -0.393333242556
    H           -4.833381093789    -1.234696194297     0.232256478589
    C            4.020983577107    -0.065302381697     0.097018155728
    H            4.172369864069     0.428237650059    -0.851518274787
    H            4.719126175741    -0.878933803770     0.208721175802
    H            4.154484104699     0.652374519738     0.892843064032

  Mulliken Charges: (a.u.)
   Center  Symbol    Alpha    Beta     Spin     Total
       1     O     4.19702  4.19702  0.00000 -0.39403
       2     C     2.80663  2.80663  0.00000  0.38675
       3     C     3.10195  3.10195  0.00000 -0.20390
       4     O     4.14646  4.14646  0.00000 -0.29292
       5     C     3.08295  3.08295  0.00000 -0.16590
       6     H     0.43983  0.43983  0.00000  0.12034
       7     H     0.43992  0.43992  0.00000  0.12015
       8     C     3.09136  3.09136  0.00000 -0.18272
       9     H     0.44622  0.44622  0.00000  0.10755
      10     H     0.44584  0.44584  0.00000  0.10833
      11     C     3.08511  3.08511  0.00000 -0.17022
      12     H     0.45594  0.45594  0.00000  0.08812
      13     H     0.45526  0.45526  0.00000  0.08948
      14     C     3.14907  3.14907  0.00000 -0.29814
      15     H     0.45315  0.45315  0.00000  0.09371
      16     H     0.45321  0.45321  0.00000  0.09357
      17     H     0.45520  0.45520  0.00000  0.08960
      18     H     0.44817  0.44817  0.00000  0.10366
      19     H     0.45495  0.45495  0.00000  0.09010
      20     C     3.03774  3.03774  0.00000 -0.07548
      21     H     0.45434  0.45434  0.00000  0.09133
      22     H     0.44533  0.44533  0.00000  0.10934
      23     H     0.45435  0.45435  0.00000  0.09129

   Total alpha = 36.00000, Total beta = 36.00000, Total charge = -0.00000

*** Psi4 exiting successfully. Buy a developer a beer!
