                              Psi4 1.0.54 Driver

  ==> Input File <==

--------------------------------------------------------------------------
set {
	reference rhf
	basis cc-pvtz
}

set_num_threads( 4 )
memory 2 gb

molecule MOL {
0 1

O	 -2.081319	 -0.951530	 -0.502732
N	 -1.613558	 0.006676	 0.014756
C	 -0.329345	 -0.171618	 0.743966
O	 -2.068523	 1.100482	 -0.024385
C	 0.835904	 0.041968	 -0.213982
H	 -0.346048	 -1.174374	 1.137184
H	 -0.333613	 0.555559	 1.538590
C	 2.177039	 -0.130175	 0.494460
H	 0.754456	 -0.665923	 -1.030569
H	 0.765464	 1.037260	 -0.637266
C	 2.916876	 1.191463	 0.668802
H	 2.797477	 -0.820081	 -0.069918
H	 2.015588	 -0.585064	 1.467299
H	 3.122130	 1.653836	 -0.290250
H	 2.333383	 1.891370	 1.256494
H	 3.863030	 1.041687	 1.174292

	symmetry c1
}
set optking {
	frozen_dihedral = ("
		11 8 5 9
	")
}

ee,wfn = optimize('scf', return_wfn=True)
oeprop( wfn, 'DIPOLE', 'QUADRUPOLE', 'MULLIKEN_CHARGES')
f=open( 'psi4out.xyz', 'w' )
f.write( "16  " )
f.write( str(ee) + "\n" )
f.write( MOL.save_string_xyz() )
f.close()
--------------------------------------------------------------------------

    Molecular point group: c1
  Charge       = 0
  Multiplicity = 1
  Basis Set: CC-PVTZ
  Basis Set:
  @DF-RHF Final Energy:  -360.90409359600136
    Total Energy =                       -360.9040935960014167
    Molecular point group: c1
  Basis Set: CC-PVTZ
  Basis Set:
  Basis Set: CC-PVTZ
  Basis Set:
  @DF-RHF Final Energy:  -360.90437924511201
    Total Energy =                       -360.9043792451121249
  Basis Set: CC-PVTZ
  Basis Set:
  Basis Set: CC-PVTZ
  Basis Set:
  @DF-RHF Final Energy:  -360.90284706197571
    Total Energy =                       -360.9028470619762743
  Basis Set: CC-PVTZ
  Basis Set:
  Basis Set: CC-PVTZ
  Basis Set:
  @DF-RHF Final Energy:  -360.90428316612463
    Total Energy =                       -360.9042831661244009
  Basis Set: CC-PVTZ
  Basis Set:
  Basis Set: CC-PVTZ
  Basis Set:
  @DF-RHF Final Energy:  -360.90445102394978
    Total Energy =                       -360.9044510239498891
  Basis Set: CC-PVTZ
  Basis Set:
  Basis Set: CC-PVTZ
  Basis Set:
  @DF-RHF Final Energy:  -360.90445271981639
    Total Energy =                       -360.9044527198163905
  Basis Set: CC-PVTZ
  Basis Set:
  Charge       = 0
  Multiplicity = 1
  Basis Set: CC-PVTZ
  Basis Set:

    Orbital Energies (a.u.)
    -----------------------

    Doubly Occupied:

       1A    -20.589718     2A    -20.589594     3A    -15.835995
       4A    -11.296874     5A    -11.250438     6A    -11.241908
       7A    -11.226503     8A     -1.635126     9A     -1.419476
      10A     -1.135594    11A     -1.058031    12A     -0.948920
      13A     -0.847006    14A     -0.827559    15A     -0.760194
      16A     -0.737463    17A     -0.727786    18A     -0.667375
      19A     -0.628865    20A     -0.603485    21A     -0.561666
      22A     -0.553665    23A     -0.514233    24A     -0.503147
      25A     -0.493565    26A     -0.484981    27A     -0.469241
      28A     -0.451860

  @DF-RHF Final Energy:  -360.90445325624086

   => Energetics <=

    Nuclear Repulsion Energy =            314.3118300079382266
    One-Electron Energy =               -1114.3120304770213806
    Two-Electron Energy =                 439.0957472128422978
    DFT Exchange-Correlation Energy =       0.0000000000000000
    Empirical Dispersion Energy =           0.0000000000000000
    PCM Polarization Energy =               0.0000000000000000
    EFP Energy =                            0.0000000000000000
    Total Energy =                       -360.9044532562409131
    Molecular point group: c1
  Basis Set: CC-PVTZ
  Basis Set:

  -Total Gradient:
     Atom            X                  Y                   Z
    ------   -----------------  -----------------  -----------------
       1       -0.000016596584    -0.000009789373     0.000012013848
       2        0.000036321275    -0.000002323036    -0.000040876154
       3       -0.000032371023    -0.000009099167     0.000018190190
       4       -0.000005856297     0.000008115054     0.000013254755
       5       -0.000816675996    -0.001916230300     0.001161541129
       6        0.000005672336     0.000005348401     0.000000060942
       7        0.000004788965     0.000000814503     0.000006759392
       8       -0.000778048788     0.000650559307     0.001598735948
       9        0.000881758974     0.001483705100    -0.001378554001
      10       -0.000001162743    -0.000012163292     0.000003218263
      11        0.000724266303    -0.000203801436    -0.001395357439
      12       -0.000007857565     0.000000782265     0.000006987112
      13        0.000006986280     0.000003428218    -0.000006819269
      14        0.000002349216    -0.000003686947     0.000000263588
      15       -0.000000943066     0.000004482094    -0.000000547930
      16       -0.000002631286    -0.000000141391     0.000001129625

  **** Optimization is complete! (in 7 steps) ****
    Final optimized geometry and variables:
    Molecular point group: c1

    Geometry (in Angstrom), charge = 0, multiplicity = 1:

    O           -2.039970431491    -1.089224514940    -0.670987893812
    N           -1.552444495163    -0.145344232050    -0.145368394964
    C           -0.267770670258    -0.355035435305     0.575146529573
    O           -1.988046572182     0.956844920205    -0.169528195845
    C            0.898255137352    -0.153185165331    -0.384508552804
    H           -0.300557826994    -1.361053422762     0.958378352785
    H           -0.254257482834     0.364330932974     1.377153163282
    C            2.254918234751    -0.294091378030     0.334167904726
    H            0.817389208046    -0.862178972133    -1.197662109312
    H            0.813821569607     0.832977320324    -0.824504709432
    C            2.985405152888     1.033871283382     0.509411662109
    H            2.886003255523    -0.969731129800    -0.230175991565
    H            2.115199284015    -0.761647633939     1.303873688576
    H            3.204439066931     1.483442229522    -0.452296021622
    H            2.389923560642     1.741938582758     1.076311610317
    H            3.923096500020     0.895209025230     1.034070591524

  Mulliken Charges: (a.u.)
   Center  Symbol    Alpha    Beta     Spin     Total
       1     O     4.17413  4.17413  0.00000 -0.34825
       2     N     3.27624  3.27624  0.00000  0.44752
       3     C     3.04154  3.04154  0.00000 -0.08308
       4     O     4.17382  4.17382  0.00000 -0.34763
       5     C     3.10896  3.10896  0.00000 -0.21792
       6     H     0.43330  0.43330  0.00000  0.13341
       7     H     0.43363  0.43363  0.00000  0.13274
       8     C     3.09703  3.09703  0.00000 -0.19407
       9     H     0.43111  0.43111  0.00000  0.13779
      10     H     0.43844  0.43844  0.00000  0.12312
      11     C     3.14564  3.14564  0.00000 -0.29127
      12     H     0.44300  0.44300  0.00000  0.11399
      13     H     0.45300  0.45300  0.00000  0.09399
      14     H     0.45105  0.45105  0.00000  0.09791
      15     H     0.45293  0.45293  0.00000  0.09413
      16     H     0.44618  0.44618  0.00000  0.10764

   Total alpha = 28.00000, Total beta = 28.00000, Total charge = -0.00000

*** Psi4 exiting successfully. Buy a developer a beer!
