  ==> Input File <==

--------------------------------------------------------------------------
set {
	reference rhf
	basis 6-31G*
}

set_num_threads( 4 )
memory 2 gb

molecule MOL {
0 1

H	 -3.784552	 0.081537	 2.271671
O	 -3.067760	 -0.475529	 2.003734
C	 -2.077913	 0.297838	 1.375485
C	 -0.946450	 -0.625926	 0.960518
H	 -2.485019	 0.804759	 0.501641
H	 -1.703804	 1.064731	 2.052432
C	 0.198102	 0.111031	 0.262842
H	 -1.353066	 -1.391688	 0.305536
H	 -0.579125	 -1.136073	 1.846689
C	 1.331804	 -0.827780	 -0.158768
H	 -0.191538	 0.634755	 -0.606679
H	 0.597366	 0.875502	 0.928193
C	 2.723619	 -0.410569	 0.329459
H	 1.342964	 -0.912588	 -1.244120
H	 1.116806	 -1.824343	 0.220779
C	 3.243875	 0.895854	 -0.272975
H	 3.424222	 -1.207124	 0.091250
H	 2.714788	 -0.329854	 1.414619
H	 3.251977	 0.848779	 -1.358681
H	 2.637085	 1.747371	 0.016682
H	 4.259473	 1.094070	 0.055697

	symmetry c1
}
set optking {
	frozen_dihedral = ("
		4 7 10 14
	")
}

ee = optimize('scf')
oeprop('DIPOLE', 'QUADRUPOLE', 'MULLIKEN_CHARGES')
f=open( 'psi4out.xyz', 'w' )
f.write( "21  " )
f.write( str(ee) + "\n" )
f.write( MOL.save_string_xyz() )
f.close()
--------------------------------------------------------------------------

    Molecular point group: c1
  Charge       = 0
  Multiplicity = 1
  Basis Set: 6-31G*
  Basis Set:
  @DF-RHF Final Energy:  -310.20776754279086
    Total Energy =                       -310.2077675427907479
    Molecular point group: c1
  Basis Set: 6-31G*
  Basis Set:
  Basis Set: 6-31G*
  Basis Set:
  @DF-RHF Final Energy:  -310.20805707400109
    Total Energy =                       -310.2080570740009762
  Basis Set: 6-31G*
  Basis Set:
  Basis Set: 6-31G*
  Basis Set:
  @DF-RHF Final Energy:  -310.20817075521705
    Total Energy =                       -310.2081707552168837
  Basis Set: 6-31G*
  Basis Set:
  Basis Set: 6-31G*
  Basis Set:
  @DF-RHF Final Energy:  -310.20816681165525
    Total Energy =                       -310.2081668116550759
  Basis Set: 6-31G*
  Basis Set:
  Basis Set: 6-31G*
  Basis Set:
  @DF-RHF Final Energy:  -310.20816969765974
    Total Energy =                       -310.2081696976595140
  Basis Set: 6-31G*
  Basis Set:
  Basis Set: 6-31G*
  Basis Set:
  @DF-RHF Final Energy:  -310.20817738600647
    Total Energy =                       -310.2081773860066960
  Basis Set: 6-31G*
  Basis Set:
  Charge       = 0
  Multiplicity = 1
  Basis Set: 6-31G*
  Basis Set:

    Orbital Energies (a.u.)
    -----------------------

    Doubly Occupied:

       1A    -20.551877     2A    -11.266882     3A    -11.215789
       4A    -11.214978     5A    -11.213272     6A    -11.211036
       7A    -11.208089     8A     -1.358673     9A     -1.084699
      10A     -1.033116    11A     -0.952482    12A     -0.875523
      13A     -0.809708    14A     -0.777942    15A     -0.692079
      16A     -0.658911    17A     -0.625787    18A     -0.605292
      19A     -0.581152    20A     -0.572796    21A     -0.538493
      22A     -0.521718    23A     -0.504510    24A     -0.489134
      25A     -0.481329    26A     -0.456918    27A     -0.453986
      28A     -0.443012    29A     -0.434201

  @DF-RHF Final Energy:  -310.20817741621676

   => Energetics <=

    Nuclear Repulsion Energy =            312.8399396075759000
    One-Electron Energy =               -1040.4294695438397866
    Two-Electron Energy =                 417.3813525200470735
    DFT Exchange-Correlation Energy =       0.0000000000000000
    Empirical Dispersion Energy =           0.0000000000000000
    PCM Polarization Energy =               0.0000000000000000
    EFP Energy =                            0.0000000000000000
    Total Energy =                       -310.2081774162168699
    Molecular point group: c1
  Basis Set: 6-31G*
  Basis Set:

  -Total Gradient:
     Atom            X                  Y                   Z
    ------   -----------------  -----------------  -----------------
       1        0.000007184614     0.000004257075    -0.000003923444
       2        0.000011266565    -0.000009034638    -0.000003550068
       3       -0.000006507844     0.000008691978    -0.000000918734
       4        0.000728539097     0.000191428512     0.001514160213
       5        0.000001106954     0.000000289690    -0.000001447486
       6        0.000000525292    -0.000001580489     0.000001814479
       7       -0.000687080677     0.000190330699    -0.002108060848
       8       -0.000000474421    -0.000004386390    -0.000000658173
       9       -0.000002006265    -0.000001106132     0.000003201139
      10       -0.001519558032    -0.002187176207     0.000672912251
      11       -0.000001452769     0.000011128807     0.000007228675
      12       -0.000003010980     0.000011228434    -0.000004890751
      13        0.000002579046    -0.000004344918    -0.000025556532
      14        0.001468473096     0.001806201495    -0.000061364562
      15        0.000020002014    -0.000012527188    -0.000012558381
      16       -0.000005200464    -0.000012066744     0.000013022790
      17        0.000001978717    -0.000000835089     0.000002207508
      18       -0.000000929940     0.000014302898    -0.000002768214
      19       -0.000008241002    -0.000006920644     0.000005277207
      20       -0.000013581715     0.000005884588     0.000003623177
      21        0.000006388718    -0.000003765739     0.000002249753

  **** Optimization is complete! (in 7 steps) ****
    Final optimized geometry and variables:
    Molecular point group: c1

    Geometry (in Angstrom), charge = 0, multiplicity = 1:

    H           -3.931718504467     0.224585348341     1.593248281549
    O           -3.218901946613    -0.335100237938     1.320225366223
    C           -2.217012330079     0.438952200813     0.712186991046
    C           -1.093300933843    -0.488915326115     0.286811238432
    H           -2.613131716569     0.966374730337    -0.154590432401
    H           -1.838797958090     1.189265129202     1.405426565912
    C            0.068066741367     0.248403688169    -0.383637424737
    H           -1.503057041455    -1.237380510309    -0.386242896654
    H           -0.735867470580    -1.020901250523     1.164260250582
    C            1.208584600711    -0.696589470914    -0.825895975152
    H           -0.302379499354     0.813411498415    -1.235122078183
    H            0.456318448666     0.985463291429     0.316150475439
    C            2.600006140938    -0.273940178033    -0.339385239075
    H            1.235421436665    -0.758543704604    -1.911094343451
    H            1.006735675609    -1.701309413723    -0.465477663042
    C            3.104463219521     1.026059237636    -0.967408094779
    H            3.306832011094    -1.069021209283    -0.564177605724
    H            2.587324648418    -0.174413772030     0.744240056141
    H            3.166545355698     0.935397899254    -2.048506621314
    H            2.449958394746     1.863129313087    -0.744648401707
    H            4.094450709541     1.278247517401    -0.599829655872

  Mulliken Charges: (a.u.)
   Center  Symbol    Alpha    Beta     Spin     Total
       1     H     0.28118  0.28118  0.00000  0.43765
       2     O     4.37168  4.37168  0.00000 -0.74335
       3     C     2.99040  2.99040  0.00000  0.01920
       4     C     3.16126  3.16126  0.00000 -0.32252
       5     H     0.43283  0.43283  0.00000  0.13434
       6     H     0.43298  0.43298  0.00000  0.13404
       7     C     3.16327  3.16327  0.00000 -0.32653
       8     H     0.41445  0.41445  0.00000  0.17111
       9     H     0.41470  0.41470  0.00000  0.17060
      10     C     3.15516  3.15516  0.00000 -0.31032
      11     H     0.42060  0.42060  0.00000  0.15880
      12     H     0.42160  0.42160  0.00000  0.15680
      13     C     3.15409  3.15409  0.00000 -0.30818
      14     H     0.42137  0.42137  0.00000  0.15725
      15     H     0.41700  0.41700  0.00000  0.16601
      16     C     3.24064  3.24064  0.00000 -0.48128
      17     H     0.42141  0.42141  0.00000  0.15718
      18     H     0.42338  0.42338  0.00000  0.15323
      19     H     0.42221  0.42221  0.00000  0.15558
      20     H     0.42046  0.42046  0.00000  0.15908
      21     H     0.41933  0.41933  0.00000  0.16134

   Total alpha = 29.00000, Total beta = 29.00000, Total charge =  0.00000
