  ==> Input File <==

--------------------------------------------------------------------------
set {
	reference rhf
	basis 6-31G*
}

set_num_threads( 1 )
memory 2 gb

molecule MOL {
0 1

O	 -2.821601	 1.309235	 -0.001213
C	 -2.668563	 0.129746	 -0.000350
C	 -3.801572	 -0.864014	 -0.000442
O	 -1.481751	 -0.454642	 0.000584
H	 -4.417280	 -0.689587	 -0.874708
H	 -3.443784	 -1.883046	 -0.000565
H	 -4.417179	 -0.689832	 0.873954
C	 -0.334255	 0.388708	 0.000906
C	 0.891947	 -0.504646	 0.000751
H	 -0.365390	 1.025305	 -0.873475
H	 -0.365484	 1.024911	 0.875569
C	 2.191998	 0.301789	 0.000897
H	 0.855148	 -1.151283	 -0.871571
H	 0.855132	 -1.151660	 0.872805
C	 3.435896	 -0.572965	 -0.165988
H	 2.162958	 1.038893	 -0.799677
H	 2.271598	 0.863421	 0.930045
C	 4.734274	 0.232689	 -0.167181
H	 3.358169	 -1.134645	 -1.094185
H	 3.467730	 -1.308653	 0.634524
H	 4.746964	 0.954998	 -0.978429
H	 5.597468	 -0.414402	 -0.287207
H	 4.857519	 0.779398	 0.763373

	symmetry c1
}
set optking {
	frozen_dihedral = ("
		13 9 8 10,
		2 4 8 10,
		19 15 12 16,
		1 2 4 8
	")
}

ee = energy('scf')
oeprop('DIPOLE', 'QUADRUPOLE', 'MULLIKEN_CHARGES')
f=open( 'psi4out.xyz', 'w' )
f.write( "23  " )
f.write( str(ee) + "\n" )
f.write( MOL.save_string_xyz() )
f.close()
--------------------------------------------------------------------------

    Molecular point group: c1

    Geometry (in Angstrom), charge = 0, multiplicity = 1:

       Center              X                  Y                   Z               Mass
    ------------   -----------------  -----------------  -----------------  -----------------
           O         -2.820426333337     1.307334657676     0.035858529816    15.994914619560
           C         -2.667388333337     0.127845657676     0.036721529816    12.000000000000
           C         -3.800397333337    -0.865914342324     0.036629529816    12.000000000000
           O         -1.480576333337    -0.456542342324     0.037655529816    15.994914619560
           H         -4.416105333337    -0.691487342324    -0.837636470184     1.007825032070
           H         -3.442609333337    -1.884946342324     0.036506529816     1.007825032070
           H         -4.416004333337    -0.691732342324     0.911025529816     1.007825032070
           C         -0.333080333337     0.386807657676     0.037977529816    12.000000000000
           C          0.893121666663    -0.506546342324     0.037822529816    12.000000000000
           H         -0.364215333337     1.023404657676    -0.836403470184     1.007825032070
           H         -0.364309333337     1.023010657676     0.912640529816     1.007825032070
           C          2.193172666663     0.299888657676     0.037968529816    12.000000000000
           H          0.856322666663    -1.153183342324    -0.834499470184     1.007825032070
           H          0.856306666663    -1.153560342324     0.909876529816     1.007825032070
           C          3.437070666663    -0.574865342324    -0.128916470184    12.000000000000
           H          2.164132666663     1.036992657676    -0.762605470184     1.007825032070
           H          2.272772666663     0.861520657676     0.967116529816     1.007825032070
           C          4.735448666663     0.230788657676    -0.130109470184    12.000000000000
           H          3.359343666663    -1.136545342324    -1.057113470184     1.007825032070
           H          3.468904666663    -1.310553342324     0.671595529816     1.007825032070
           H          4.748138666663     0.953097657676    -0.941357470184     1.007825032070
           H          5.598642666663    -0.416302342324    -0.250135470184     1.007825032070
           H          4.858693666663     0.777497657676     0.800444529816     1.007825032070

  Charge       = 0
  Multiplicity = 1
  Basis Set: 6-31G*
  Basis Set:

    Orbital Energies (a.u.)
    -----------------------

    Doubly Occupied:

       1A    -20.603022     2A    -20.540545     3A    -11.374106
       4A    -11.281547     5A    -11.232404     6A    -11.224403
       7A    -11.223792     8A    -11.221725     9A    -11.212968
      10A     -1.467994    11A     -1.360757    12A     -1.094276
      13A     -1.042275    14A     -1.003467    15A     -0.930937
      16A     -0.841687    17A     -0.802727    18A     -0.774461
      19A     -0.692215    20A     -0.685065    21A     -0.668017
      22A     -0.646569    23A     -0.606157    24A     -0.588424
      25A     -0.582187    26A     -0.566802    27A     -0.558727
      28A     -0.537139    29A     -0.523351    30A     -0.504881
      31A     -0.491121    32A     -0.478033    33A     -0.471036
      34A     -0.465702    35A     -0.451233    36A     -0.435340

  @DF-RHF Final Energy:  -422.97937179149898

   => Energetics <=

    Nuclear Repulsion Energy =            449.6460510099742010
    One-Electron Energy =               -1466.8806618862827236
    Two-Electron Energy =                 594.2552390848102277
    DFT Exchange-Correlation Energy =       0.0000000000000000
    Empirical Dispersion Energy =           0.0000000000000000
    PCM Polarization Energy =               0.0000000000000000
    EFP Energy =                            0.0000000000000000
    Total Energy =                       -422.9793717914983517

  Mulliken Charges: (a.u.)
   Center  Symbol    Alpha    Beta     Spin     Total
       1     O     4.28391  4.28391  0.00000 -0.56781
       2     C     2.61532  2.61532  0.00000  0.76935
       3     C     3.28774  3.28774  0.00000 -0.57549
       4     O     4.31273  4.31273  0.00000 -0.62545
       5     H     0.39750  0.39750  0.00000  0.20500
       6     H     0.39985  0.39985  0.00000  0.20029
       7     H     0.39750  0.39750  0.00000  0.20500
       8     C     2.99577  2.99577  0.00000  0.00847
       9     C     3.16480  3.16480  0.00000 -0.32959
      10     H     0.41057  0.41057  0.00000  0.17886
      11     H     0.41069  0.41069  0.00000  0.17862
      12     C     3.16007  3.16007  0.00000 -0.32015
      13     H     0.41439  0.41439  0.00000  0.17122
      14     H     0.41396  0.41396  0.00000  0.17208
      15     C     3.15152  3.15152  0.00000 -0.30303
      16     H     0.42113  0.42113  0.00000  0.15774
      17     H     0.42026  0.42026  0.00000  0.15948
      18     C     3.23989  3.23989  0.00000 -0.47979
      19     H     0.42136  0.42136  0.00000  0.15727
      20     H     0.42137  0.42137  0.00000  0.15725
      21     H     0.42080  0.42080  0.00000  0.15840
      22     H     0.41799  0.41799  0.00000  0.16401
      23     H     0.42087  0.42087  0.00000  0.15826

   Total alpha = 36.00000, Total beta = 36.00000, Total charge =  0.00000
