                              Psi4 1.0.54 Driver

  ==> Input File <==

--------------------------------------------------------------------------
set {
	reference rhf
	basis cc-pvtz
}

set_num_threads( 4 )
memory 2 gb

molecule MOL {
0 1

H	 -0.366580	 2.045936	 -0.305741
C	 0.351829	 1.335402	 0.083179
N	 -0.000018	 0.000080	 -0.334836
H	 1.327156	 1.599860	 -0.305475
H	 0.380566	 1.445403	 1.171445
C	 -0.876401	 0.006719	 -1.481260
C	 1.165485	 -0.822757	 -0.551133
H	 -1.175334	 -1.005139	 -1.723900
H	 -1.770803	 0.575174	 -1.259695
H	 -0.409737	 0.443440	 -2.369274
H	 1.763805	 -0.860885	 0.350389
H	 0.864391	 -1.833693	 -0.795011
H	 1.800327	 -0.454097	 -1.362413

	symmetry c1
}
set optking {
	frozen_dihedral = ("
		6 3 2 1
	")
}

ee,wfn = optimize('scf', return_wfn=True)
oeprop( wfn, 'DIPOLE', 'QUADRUPOLE', 'MULLIKEN_CHARGES')
f=open( 'psi4out.xyz', 'w' )
f.write( "13  " )
f.write( str(ee) + "\n" )
f.write( MOL.save_string_xyz() )
f.close()
--------------------------------------------------------------------------

    Molecular point group: c1
  Charge       = 0
  Multiplicity = 1
  Basis Set: CC-PVTZ
  Basis Set:
  @DF-RHF Final Energy:  -173.32907158075852
    Total Energy =                       -173.3290715807584661
    Molecular point group: c1
  Basis Set: CC-PVTZ
  Basis Set:
  Basis Set: CC-PVTZ
  Basis Set:
  @DF-RHF Final Energy:  -173.32991540481436
    Total Energy =                       -173.3299154048143009
  Basis Set: CC-PVTZ
  Basis Set:
  Basis Set: CC-PVTZ
  Basis Set:
  @DF-RHF Final Energy:  -173.33004854512484
    Total Energy =                       -173.3300485451248392
  Basis Set: CC-PVTZ
  Basis Set:
  Basis Set: CC-PVTZ
  Basis Set:
  @DF-RHF Final Energy:  -173.33005778049412
    Total Energy =                       -173.3300577804940303
  Basis Set: CC-PVTZ
  Basis Set:
  Charge       = 0
  Multiplicity = 1
  Basis Set: CC-PVTZ
  Basis Set:

    Orbital Energies (a.u.)
    -----------------------

    Doubly Occupied:

       1A    -15.535310     2A    -11.234432     3A    -11.234105
       4A    -11.234047     5A     -1.223152     6A     -0.953231
       7A     -0.952187     8A     -0.805780     9A     -0.639629
      10A     -0.631238    11A     -0.629763    12A     -0.548083
      13A     -0.544837    14A     -0.515462    15A     -0.503502
      16A     -0.502507    17A     -0.340903

  @DF-RHF Final Energy:  -173.33005862407254

   => Energetics <=

    Nuclear Repulsion Energy =            139.0592578512249133
    One-Electron Energy =                -508.7222993111100209
    Two-Electron Energy =                 196.3329828358126292
    DFT Exchange-Correlation Energy =       0.0000000000000000
    Empirical Dispersion Energy =           0.0000000000000000
    PCM Polarization Energy =               0.0000000000000000
    EFP Energy =                            0.0000000000000000
    Total Energy =                       -173.3300586240724783
    Molecular point group: c1
  Basis Set: CC-PVTZ
  Basis Set:

  -Total Gradient:
     Atom            X                  Y                   Z
    ------   -----------------  -----------------  -----------------
       1        0.002521316155     0.000639019055    -0.003886330144
       2       -0.004312231151    -0.000794035129     0.005819166001
       3        0.004590111099     0.000155315219    -0.004150979545
       4        0.000005578913     0.000018909746    -0.000017994364
       5        0.000001945365    -0.000034650634    -0.000022382153
       6       -0.002837449891     0.000011877635     0.002230949947
       7        0.000031857659     0.000020002687     0.000032884063
       8        0.000005391119     0.000003098946    -0.000001964039
       9       -0.000013523157    -0.000002412709    -0.000017247030
      10        0.000005215467    -0.000008945615     0.000015126414
      11        0.000019129997    -0.000012423371    -0.000001593575
      12       -0.000003521079     0.000002011135    -0.000000176678
      13       -0.000013820495     0.000002233036     0.000000541103

  **** Optimization is complete! (in 5 steps) ****
    Final optimized geometry and variables:
    Molecular point group: c1

    Geometry (in Angstrom), charge = 0, multiplicity = 1:

    H           -0.560337394656     1.928244000082     0.307093925886
    C            0.173680922123     1.218425135772     0.664316040130
    N           -0.158538971292    -0.118711867669     0.221402890782
    H            1.134258444659     1.555299507129     0.268794490839
    H            0.223211308645     1.272731400354     1.745641945685
    C           -1.051217135130    -0.162807023424    -0.908240306969
    C            0.994611636022    -0.967660646702     0.081676429797
    H           -1.327739484780    -1.189260748276    -1.115495771542
    H           -1.957541198562     0.385196491448    -0.686075018603
    H           -0.618106723034     0.255712395177    -1.822783908595
    H            1.568931684226    -0.964362526227     1.000257194835
    H            0.686637764483    -1.987589610363    -0.112424153000
    H            1.659484592424    -0.653841113825    -0.729400820504

  Mulliken Charges: (a.u.)
   Center  Symbol    Alpha    Beta     Spin     Total
       1     H     0.45664  0.45664  0.00000  0.08671
       2     C     3.08652  3.08652  0.00000 -0.17304
       3     N     3.59724  3.59724  0.00000 -0.19447
       4     H     0.47059  0.47059  0.00000  0.05881
       5     H     0.45080  0.45080  0.00000  0.09840
       6     C     3.08874  3.08874  0.00000 -0.17747
       7     C     3.08934  3.08934  0.00000 -0.17869
       8     H     0.45350  0.45350  0.00000  0.09301
       9     H     0.45248  0.45248  0.00000  0.09503
      10     H     0.47426  0.47426  0.00000  0.05148
      11     H     0.45268  0.45268  0.00000  0.09464
      12     H     0.45363  0.45363  0.00000  0.09275
      13     H     0.47358  0.47358  0.00000  0.05284

   Total alpha = 17.00000, Total beta = 17.00000, Total charge = -0.00000

*** Psi4 exiting successfully. Buy a developer a beer!
