  ==> Input File <==

--------------------------------------------------------------------------
set {
	reference rhf
	basis 6-31G*
}

set_num_threads( 4 )
memory 2 gb

molecule MOL {
0 1

H	 3.729471	 -0.928294	 -0.070608
O	 2.826016	 -1.159218	 0.122261
C	 2.077727	 -0.067559	 -0.035091
C	 0.624473	 -0.343591	 0.253101
O	 2.542965	 0.974826	 -0.363729
C	 -0.265902	 0.883932	 0.072916
H	 0.324016	 -1.163849	 -0.390541
H	 0.565024	 -0.726111	 1.268924
C	 -1.728698	 0.646073	 0.462102
H	 -0.209144	 1.219470	 -0.958188
H	 0.135059	 1.692851	 0.673903
C	 -1.947848	 -0.441031	 1.518102
H	 -2.276239	 0.371374	 -0.436508
H	 -2.168825	 1.579790	 0.809402
C	 -3.428608	 -0.705946	 1.789482
H	 -1.470968	 -1.361843	 1.188352
H	 -1.463494	 -0.162120	 2.450300
H	 -3.558511	 -1.477919	 2.541476
H	 -3.939968	 -1.031912	 0.888323
H	 -3.928080	 0.190485	 2.146098

	symmetry c1
}
set optking {
	frozen_dihedral = ("
		12 9 6 10
	")
}

ee = optimize('scf')
oeprop('DIPOLE', 'QUADRUPOLE', 'MULLIKEN_CHARGES')
f=open( 'psi4out.xyz', 'w' )
f.write( "20  " )
f.write( str(ee) + "\n" )
f.write( MOL.save_string_xyz() )
f.close()
--------------------------------------------------------------------------

    Molecular point group: c1
  Charge       = 0
  Multiplicity = 1
  Basis Set: 6-31G*
  Basis Set:
  @DF-RHF Final Energy:  -383.94196457059138
    Total Energy =                       -383.9419645705911535
    Molecular point group: c1
  Basis Set: 6-31G*
  Basis Set:
  Basis Set: 6-31G*
  Basis Set:
  @DF-RHF Final Energy:  -383.94267832772289
    Total Energy =                       -383.9426783277227742
  Basis Set: 6-31G*
  Basis Set:
  Basis Set: 6-31G*
  Basis Set:
  @DF-RHF Final Energy:  -383.94397533302703
    Total Energy =                       -383.9439753330266853
  Basis Set: 6-31G*
  Basis Set:
  Basis Set: 6-31G*
  Basis Set:
  @DF-RHF Final Energy:  -383.94400073571529
    Total Energy =                       -383.9440007357155764
  Basis Set: 6-31G*
  Basis Set:
  @DF-RHF Final Energy:  -383.94406286325830
    Total Energy =                       -383.9440628632583525
  Basis Set: 6-31G*
  Basis Set:
  @DF-RHF Final Energy:  -383.94406901888004
    Total Energy =                       -383.9440690188799863
  Basis Set: 6-31G*
  Basis Set:
  Basis Set: 6-31G*
  Basis Set:
  @DF-RHF Final Energy:  -383.94407296712006
    Total Energy =                       -383.9440729671202917
  Basis Set: 6-31G*
  Basis Set:
  Basis Set: 6-31G*
  Basis Set:
  @DF-RHF Final Energy:  -383.94407825303227
    Total Energy =                       -383.9440782530327283
  Basis Set: 6-31G*
  Basis Set:
  Charge       = 0
  Multiplicity = 1
  Basis Set: 6-31G*
  Basis Set:

    Orbital Energies (a.u.)
    -----------------------

    Doubly Occupied:

       1A    -20.612260     2A    -20.551477     3A    -11.380862
       4A    -11.239919     5A    -11.223227     6A    -11.221411
       7A    -11.220439     8A    -11.212749     9A     -1.474369
      10A     -1.365410    11A     -1.094824    12A     -1.040367
      13A     -0.960402    14A     -0.869952    15A     -0.820974
      16A     -0.768996    17A     -0.699399    18A     -0.688771
      19A     -0.668550    20A     -0.637116    21A     -0.596868
      22A     -0.594779    23A     -0.579588    24A     -0.551317
      25A     -0.538764    26A     -0.517036    27A     -0.498733
      28A     -0.478865    29A     -0.470447    30A     -0.462069
      31A     -0.456058    32A     -0.443801

  @DF-RHF Final Energy:  -383.94407859670173

   => Energetics <=

    Nuclear Repulsion Energy =            377.0664986508395486
    One-Electron Energy =               -1270.1415521832168452
    Two-Electron Energy =                 509.1309749356755674
    DFT Exchange-Correlation Energy =       0.0000000000000000
    Empirical Dispersion Energy =           0.0000000000000000
    PCM Polarization Energy =               0.0000000000000000
    EFP Energy =                            0.0000000000000000
    Total Energy =                       -383.9440785967017291
    Molecular point group: c1
  Basis Set: 6-31G*
  Basis Set:

  -Total Gradient:
     Atom            X                  Y                   Z
    ------   -----------------  -----------------  -----------------
       1        0.000000687847     0.000000214811     0.000003898317
       2        0.000005392949    -0.000002292580    -0.000002571972
       3       -0.000002969539    -0.000009453784    -0.000024165864
       4       -0.000013839980    -0.000006840631    -0.000058148986
       5        0.000007759401     0.000010021314     0.000029797849
       6       -0.000979775979     0.005776321335     0.000675972018
       7        0.000001268650    -0.000009506212     0.000020020600
       8       -0.000000125952     0.000019993007     0.000011117167
       9        0.000241360738     0.003396653599     0.004420924406
      10        0.000796104684    -0.005906534924    -0.001746936113
      11        0.000009549636     0.000003104480    -0.000006243533
      12       -0.000054107474    -0.003248040530    -0.003326761584
      13       -0.000003434888    -0.000006156682     0.000000565414
      14       -0.000007839282    -0.000009214587    -0.000000068496
      15       -0.000000587103    -0.000007248115     0.000000194795
      16       -0.000011525096    -0.000000024339     0.000002274184
      17        0.000010655142     0.000000010035    -0.000002389057
      18       -0.000003342834    -0.000003192481    -0.000000600223
      19        0.000000415580     0.000004086729    -0.000000261291
      20        0.000004353501    -0.000001900447     0.000003382373

  **** Optimization is complete! (in 9 steps) ****
    Final optimized geometry and variables:
    Molecular point group: c1

    Geometry (in Angstrom), charge = 0, multiplicity = 1:

    H            3.647449053560    -0.807063846181    -0.665139570916
    O            2.767535652668    -1.057048286392    -0.400564846060
    C            1.974843744358     0.004597930257    -0.546581744689
    C            0.554754717086    -0.304417339011    -0.146009081128
    O            2.383015266605     1.046361804169    -0.945753433128
    C           -0.378113053439     0.897750059307    -0.305259551752
    H            0.229067346193    -1.145691513987    -0.751702199282
    H            0.587220064996    -0.668713161541     0.875248871306
    C           -1.862679266003     0.607038539670     0.001990189523
    H           -0.292826876144     1.215982994982    -1.337826033444
    H           -0.010976101418     1.708493829384     0.313308371088
    C           -2.154732989251    -0.464603511736     1.057592889108
    H           -2.353168512128     0.298473504939    -0.919347877292
    H           -2.342288802112     1.537236248292     0.293888880738
    C           -3.651424153390    -0.605719060627     1.334615915594
    H           -1.764475703426    -1.423832808073     0.731001562846
    H           -1.642038883753    -0.223482209594     1.987110360144
    H           -3.842990759445    -1.379286879936     2.071661072939
    H           -4.193775893326    -0.868406967879     0.430650849072
    H           -4.070022532136     0.322678825762     1.712110041390

  Mulliken Charges: (a.u.)
   Center  Symbol    Alpha    Beta     Spin     Total
       1     H     0.26789  0.26789  0.00000  0.46423
       2     O     4.35166  4.35166  0.00000 -0.70332
       3     C     2.62188  2.62188  0.00000  0.75624
       4     C     3.21584  3.21584  0.00000 -0.43167
       5     O     4.27931  4.27931  0.00000 -0.55862
       6     C     3.15436  3.15436  0.00000 -0.30873
       7     H     0.39900  0.39900  0.00000  0.20201
       8     H     0.39649  0.39649  0.00000  0.20702
       9     C     3.15508  3.15508  0.00000 -0.31017
      10     H     0.40840  0.40840  0.00000  0.18319
      11     H     0.41024  0.41024  0.00000  0.17951
      12     C     3.15760  3.15760  0.00000 -0.31519
      13     H     0.42191  0.42191  0.00000  0.15619
      14     H     0.41751  0.41751  0.00000  0.16498
      15     C     3.23911  3.23911  0.00000 -0.47822
      16     H     0.42122  0.42122  0.00000  0.15755
      17     H     0.42266  0.42266  0.00000  0.15468
      18     H     0.41826  0.41826  0.00000  0.16347
      19     H     0.42107  0.42107  0.00000  0.15786
      20     H     0.42051  0.42051  0.00000  0.15899

   Total alpha = 32.00000, Total beta = 32.00000, Total charge = -0.00000
