  ==> Input File <==

--------------------------------------------------------------------------
set {
	reference rhf
	basis 6-31G*
}

set_num_threads( 4 )
memory 2 gb

molecule MOL {
0 1

H	 -1.692583	 2.406285	 0.639110
C	 -0.672041	 2.042119	 0.661494
C	 -0.603454	 0.661669	 0.000000
H	 -0.348548	 1.994001	 1.694199
H	 -0.043341	 2.753797	 0.140253
C	 0.763625	 0.112519	 0.000000
H	 -1.245119	 -0.043215	 0.515726
H	 -0.941847	 0.711767	 -1.028373
N	 1.813038	 -0.320305	 0.000000

	symmetry c1
}
set optking {
	frozen_dihedral = ("
		7 3 6 9
	")
}

ee = optimize('scf')
oeprop('DIPOLE', 'QUADRUPOLE', 'MULLIKEN_CHARGES')
f=open( 'psi4out.xyz', 'w' )
f.write( "9  " )
f.write( str(ee) + "\n" )
f.write( MOL.save_string_xyz() )
f.close()
--------------------------------------------------------------------------

    Molecular point group: c1
  Charge       = 0
  Multiplicity = 1
  Basis Set: 6-31G*
  Basis Set:
  @DF-RHF Final Energy:  -170.96241536316003
    Total Energy =                       -170.9624153631600336
    Molecular point group: c1
  Basis Set: 6-31G*
  Basis Set:
  Basis Set: 6-31G*
  Basis Set:
  @DF-RHF Final Energy:  -170.71950619375113
    Total Energy =                       -170.7195061937511582
  Basis Set: 6-31G*
  Basis Set:
  Basis Set: 6-31G*
  Basis Set:
  @DF-RHF Final Energy:  -170.82866809678211
    Total Energy =                       -170.8286680967821098
  Basis Set: 6-31G*
  Basis Set:
  Basis Set: 6-31G*
  Basis Set:
  @DF-RHF Final Energy:  -170.86957722776958
    Total Energy =                       -170.8695772277696108
  Basis Set: 6-31G*
  Basis Set:
  @DF-RHF Final Energy:  -170.86388838243712
    Total Energy =                       -170.8638883824372385
  @DF-RHF Final Energy:  -170.86940357828934
    Total Energy =                       -170.8694035782893366
  @DF-RHF Final Energy:  -170.89897441785095
    Total Energy =                       -170.8989744178509227
  @DF-RHF Final Energy:  -170.91466728774571
    Total Energy =                       -170.9146672877457434
  @DF-RHF Final Energy:  -170.92685276889009
    Total Energy =                       -170.9268527688900008
  @DF-RHF Final Energy:  -170.95734581325001
    Total Energy =                       -170.9573458132499866
  @DF-RHF Final Energy:  -170.95945861539494
    Total Energy =                       -170.9594586153949933
  @DF-RHF Final Energy:  -170.96064861391505
    Total Energy =                       -170.9606486139149979
  @DF-RHF Final Energy:  -170.96193495710776
    Total Energy =                       -170.9619349571077578
  @DF-RHF Final Energy:  -170.96238054744245
    Total Energy =                       -170.9623805474424785
  @DF-RHF Final Energy:  -170.96228510871299
    Total Energy =                       -170.9622851087130471
  @DF-RHF Final Energy:  -170.96218670515495
    Total Energy =                       -170.9621867051549771
  @DF-RHF Final Energy:  -170.96237306569691
    Total Energy =                       -170.9623730656968235
  @DF-RHF Final Energy:  -170.95886407978193
    Total Energy =                       -170.9588640797820176
  @DF-RHF Final Energy:  -170.96148492370389
    Total Energy =                       -170.9614849237040062
  @DF-RHF Final Energy:  -170.96146525823860
    Total Energy =                       -170.9614652582386043
  @DF-RHF Final Energy:  -170.96236923577089
    Total Energy =                       -170.9623692357710070
  @DF-RHF Final Energy:  -170.96204970629211
    Total Energy =                       -170.9620497062921061
  @DF-RHF Final Energy:  -170.96218839072591
    Total Energy =                       -170.9621883907259416
  @DF-RHF Final Energy:  -170.96229548451888
    Total Energy =                       -170.9622954845187905
  @DF-RHF Final Energy:  -170.96127912610768
    Total Energy =                       -170.9612791261076836
  @DF-RHF Final Energy:  -170.96203749448853
    Total Energy =                       -170.9620374944885555
  @DF-RHF Final Energy:  -170.96219956172746
    Total Energy =                       -170.9621995617274592
  @DF-RHF Final Energy:  -170.96226782400771
    Total Energy =                       -170.9622678240076254
  @DF-RHF Final Energy:  -170.96231223416308
    Total Energy =                       -170.9623122341630506
  @DF-RHF Final Energy:  -170.96235766549688
    Total Energy =                       -170.9623576654968815
  @DF-RHF Final Energy:  -170.96091352549183
    Total Energy =                       -170.9609135254918613
  @DF-RHF Final Energy:  -170.96055509384328
    Total Energy =                       -170.9605550938432543
  @DF-RHF Final Energy:  -170.96145685721143
    Total Energy =                       -170.9614568572114877
  @DF-RHF Final Energy:  -170.96149805427132
    Total Energy =                       -170.9614980542713454
  @DF-RHF Final Energy:  -170.96134839554475
    Total Energy =                       -170.9613483955447464
  @DF-RHF Final Energy:  -170.96184242507462
    Total Energy =                       -170.9618424250746500
  Basis Set: 6-31G*
  Basis Set:
  @DF-RHF Final Energy:  -170.96121434208294
    Total Energy =                       -170.9612143420829966
  Basis Set: 6-31G*
  Basis Set:
  Basis Set: 6-31G*
  Basis Set:
  @DF-RHF Final Energy:  -170.96172737822917
    Total Energy =                       -170.9617273782292557
  Basis Set: 6-31G*
  Basis Set:
  Basis Set: 6-31G*
  Basis Set:
  @DF-RHF Final Energy:  -170.96181371089290
    Total Energy =                       -170.9618137108928693
  Basis Set: 6-31G*
  Basis Set:
  Charge       = 0
  Multiplicity = 1
  Basis Set: 6-31G*
  Basis Set:

    Orbital Energies (a.u.)
    -----------------------

    Doubly Occupied:

       1A    -15.567661     2A    -11.283776     3A    -11.269871
       4A    -11.245570     5A     -1.224021     6A     -1.082216
       7A     -0.911267     8A     -0.698986     9A     -0.659477
      10A     -0.587953    11A     -0.560829    12A     -0.543433
      13A     -0.536303    14A     -0.458356    15A     -0.458230

  @DF-RHF Final Energy:  -170.96204250094479

   => Energetics <=

    Nuclear Repulsion Energy =            103.4531049870349335
    One-Electron Energy =                -434.6543974107055988
    Two-Electron Energy =                 160.2392499227258895
    DFT Exchange-Correlation Energy =       0.0000000000000000
    Empirical Dispersion Energy =           0.0000000000000000
    PCM Polarization Energy =               0.0000000000000000
    EFP Energy =                            0.0000000000000000
    Total Energy =                       -170.9620425009447899
    Molecular point group: c1
  Basis Set: 6-31G*
  Basis Set:

  -Total Gradient:
     Atom            X                  Y                   Z
    ------   -----------------  -----------------  -----------------
       1        0.000116521043    -0.000030842467     0.000029504349
       2       -0.000584257998    -0.000774384795    -0.000308275011
       3        0.000800028831     0.004874220954    -0.001591548920
       4        0.000026892762    -0.000125947861    -0.000099559596
       5       -0.000027788549    -0.000086756117    -0.000147976399
       6       -0.005218258129    -0.006507842206     0.003848501607
       7        0.000967485847    -0.000391205631     0.000272231094
       8       -0.000730768601     0.000528999218    -0.000329093679
       9        0.004650144794     0.002513758904    -0.001673783445

    Molecular point group: c1

    Geometry (in Angstrom), charge = 0, multiplicity = 1:

    H           -1.971161379609     1.710242360122     0.426115539023
    C           -0.953579191367     1.342549027248     0.452978485480
    C           -0.884958920729    -0.031426187661    -0.218236073745
    H           -0.637790765498     1.285297312523     1.486469055470
    H           -0.318373581269     2.054058695341    -0.059678182105
    C            0.484956591407    -0.587413274288    -0.200115494098
    H           -1.538593198741    -0.733199081512     0.285493322145
    H           -1.209638263989     0.027998917408    -1.251796204678
    N            1.568437533566    -0.932860030468    -0.093484062292

  Mulliken Charges: (a.u.)
   Center  Symbol    Alpha    Beta     Spin     Total
       1     H     0.40920  0.40920  0.00000  0.18160
       2     C     3.24230  3.24230  0.00000 -0.48460
       3     C     3.18214  3.18214  0.00000 -0.36427
       4     H     0.40541  0.40541  0.00000  0.18917
       5     H     0.40503  0.40503  0.00000  0.18993
       6     C     2.85053  2.85053  0.00000  0.29895
       7     H     0.38990  0.38990  0.00000  0.22019
       8     H     0.38814  0.38814  0.00000  0.22372
       9     N     3.72735  3.72735  0.00000 -0.45470

   Total alpha = 15.00000, Total beta = 15.00000, Total charge =  0.00000
