  ==> Input File <==

--------------------------------------------------------------------------
set {
	reference rhf
	basis 6-31G*
}

set_num_threads( 4 )
memory 2 gb

molecule MOL {
0 1

H	 -0.369069	 2.500587	 -0.160170
C	 0.351978	 2.015645	 0.508952
C	 0.692068	 0.589600	 0.160137
O	 0.805856	 2.612734	 1.430694
C	 -0.558097	 -0.297372	 0.091132
H	 1.399191	 0.219772	 0.893408
H	 1.185189	 0.593968	 -0.811276
C	 -1.850991	 0.512573	 -0.019058
H	 -0.476753	 -0.965681	 -0.762987
H	 -0.604799	 -0.930658	 0.975228
C	 -3.096943	 -0.368295	 -0.099594
H	 -1.800724	 1.150330	 -0.898172
H	 -1.931651	 1.177355	 0.838044
H	 -3.060452	 -1.020287	 -0.967456
H	 -3.996858	 0.233488	 -0.175704
H	 -3.191959	 -0.995686	 0.782074

	symmetry c1
}
set optking {
	frozen_dihedral = ("
		6 3 5 9
	")
}

ee = optimize('scf')
oeprop('DIPOLE', 'QUADRUPOLE', 'MULLIKEN_CHARGES')
f=open( 'psi4out.xyz', 'w' )
f.write( "16  " )
f.write( str(ee) + "\n" )
f.write( MOL.save_string_xyz() )
f.close()
--------------------------------------------------------------------------

    Molecular point group: c1
  Charge       = 0
  Multiplicity = 1
  Basis Set: 6-31G*
  Basis Set:
  @DF-RHF Final Energy:  -270.00872918635946
    Total Energy =                       -270.0087291863594601
    Molecular point group: c1
  Basis Set: 6-31G*
  Basis Set:
  Basis Set: 6-31G*
  Basis Set:
  @DF-RHF Final Energy:  -270.00928019095016
    Total Energy =                       -270.0092801909503351
  Basis Set: 6-31G*
  Basis Set:
  Basis Set: 6-31G*
  Basis Set:
  @DF-RHF Final Energy:  -270.01172936469902
    Total Energy =                       -270.0117293646986809
  Basis Set: 6-31G*
  Basis Set:
  Basis Set: 6-31G*
  Basis Set:
  @DF-RHF Final Energy:  -270.01207153178200
    Total Energy =                       -270.0120715317822260
  Basis Set: 6-31G*
  Basis Set:
  @DF-RHF Final Energy:  -270.01198639804039
    Total Energy =                       -270.0119863980399941
  @DF-RHF Final Energy:  -270.01232927703740
    Total Energy =                       -270.0123292770376224
  Basis Set: 6-31G*
  Basis Set:
  @DF-RHF Final Energy:  -270.01235964896875
    Total Energy =                       -270.0123596489687543
  Basis Set: 6-31G*
  Basis Set:
  Basis Set: 6-31G*
  Basis Set:
  @DF-RHF Final Energy:  -270.01234377798738
    Total Energy =                       -270.0123437779872120
  Basis Set: 6-31G*
  Basis Set:
  Basis Set: 6-31G*
  Basis Set:
  @DF-RHF Final Energy:  -270.01238571771614
    Total Energy =                       -270.0123857177160858
  Basis Set: 6-31G*
  Basis Set:
  Charge       = 0
  Multiplicity = 1
  Basis Set: 6-31G*
  Basis Set:

    Orbital Energies (a.u.)
    -----------------------

    Doubly Occupied:

       1A    -20.561242     2A    -11.325270     3A    -11.236313
       4A    -11.234617     5A    -11.230438     6A    -11.218856
       7A     -1.401091     8A     -1.092887     9A     -1.015269
      10A     -0.905371    11A     -0.833901    12A     -0.770867
      13A     -0.679473    14A     -0.644763    15A     -0.623757
      16A     -0.602827    17A     -0.580525    18A     -0.561614
      19A     -0.522754    20A     -0.513494    21A     -0.492625
      22A     -0.476062    23A     -0.469853    24A     -0.407272

  @DF-RHF Final Energy:  -270.01238587980743

   => Energetics <=

    Nuclear Repulsion Energy =            233.9845061085080999
    One-Electron Energy =                -829.1915049191406979
    Two-Electron Energy =                 325.1946129308250306
    DFT Exchange-Correlation Energy =       0.0000000000000000
    Empirical Dispersion Energy =           0.0000000000000000
    PCM Polarization Energy =               0.0000000000000000
    EFP Energy =                            0.0000000000000000
    Total Energy =                       -270.0123858798075958
    Molecular point group: c1
  Basis Set: 6-31G*
  Basis Set:

  -Total Gradient:
     Atom            X                  Y                   Z
    ------   -----------------  -----------------  -----------------
       1        0.000000719089     0.000000207374    -0.000000079326
       2        0.000012243992     0.000031860489     0.000032950140
       3        0.001671759195    -0.002366152086    -0.004088340239
       4       -0.000008691509    -0.000005591690    -0.000020498523
       5        0.001827084940    -0.002812393928     0.003532386533
       6       -0.001688640853     0.002369566137     0.002875454675
       7       -0.000001576948    -0.000005008982    -0.000002702909
       8       -0.000036988369     0.000006813081     0.000013941139
       9       -0.001779261094     0.002760550069    -0.002335731250
      10        0.000007232630     0.000003794469    -0.000000864380
      11        0.000009694269     0.000020424002    -0.000007747639
      12       -0.000006869723    -0.000006606433     0.000000697927
      13       -0.000008188888     0.000001676228     0.000000285883
      14        0.000002313394    -0.000001859802     0.000001261858
      15       -0.000003352851    -0.000001135339    -0.000002178803
      16        0.000002522726     0.000003856409     0.000001164914

  **** Optimization is complete! (in 10 steps) ****
    Final optimized geometry and variables:
    Molecular point group: c1

    Geometry (in Angstrom), charge = 0, multiplicity = 1:

    H            0.585774479870     1.841225372759    -0.592197501477
    C            1.088064468458     1.214670667761     0.151178557579
    C            1.318657806366    -0.227192779814    -0.239190640916
    O            1.428821493264     1.684109001699     1.189152592162
    C            0.030880134179    -1.095095637032    -0.279810952308
    H            2.011895498685    -0.621422410499     0.493182576034
    H            1.799684658435    -0.228130068489    -1.213638268392
    C           -1.292715037403    -0.328905351220    -0.408267151891
    H            0.097794374164    -1.768406675401    -1.128671098881
    H           -0.008280966159    -1.707393667399     0.614514807104
    C           -2.494000512439    -1.271752075516    -0.462150185678
    H           -1.281511510107     0.284433431096    -1.306635497942
    H           -1.413346928409     0.351869361218     0.430790096070
    H           -2.427455125677    -1.944416509312    -1.312409933287
    H           -3.422346004279    -0.716849832629    -0.550466788397
    H           -2.554983401948    -1.878801122985     0.436333017877

  Mulliken Charges: (a.u.)
   Center  Symbol    Alpha    Beta     Spin     Total
       1     H     0.42943  0.42943  0.00000  0.14114
       2     C     2.83723  2.83723  0.00000  0.32554
       3     C     3.20948  3.20948  0.00000 -0.41896
       4     O     4.23719  4.23719  0.00000 -0.47439
       5     C     3.15579  3.15579  0.00000 -0.31159
       6     H     0.39752  0.39752  0.00000  0.20496
       7     H     0.41089  0.41089  0.00000  0.17821
       8     C     3.16602  3.16602  0.00000 -0.33205
       9     H     0.41559  0.41559  0.00000  0.16881
      10     H     0.41086  0.41086  0.00000  0.17827
      11     C     3.23957  3.23957  0.00000 -0.47915
      12     H     0.42130  0.42130  0.00000  0.15740
      13     H     0.41437  0.41437  0.00000  0.17126
      14     H     0.42036  0.42036  0.00000  0.15928
      15     H     0.41575  0.41575  0.00000  0.16850
      16     H     0.41862  0.41862  0.00000  0.16276

   Total alpha = 24.00000, Total beta = 24.00000, Total charge =  0.00000
