  ==> Input File <==

--------------------------------------------------------------------------
set {
	reference rhf
	basis 6-31G*
}

set_num_threads( 1 )
memory 2 gb

molecule MOL {
0 1

H	 -0.899202	 1.454297	 4.535500
O	 -0.008588	 1.454249	 4.854684
C	 0.500481	 0.144816	 4.837696
C	 0.805315	 -0.363447	 3.432893
H	 1.411817	 0.175764	 5.420948
H	 -0.183353	 -0.536462	 5.342682
C	 -0.428327	 -0.490806	 2.535800
H	 1.524280	 0.308550	 2.971507
H	 1.289933	 -1.334367	 3.521356
C	 -0.096891	 -1.054337	 1.151097
H	 -0.894059	 0.484870	 2.428486
H	 -1.161694	 -1.137143	 3.018255
C	 -1.309753	 -1.282496	 0.241564
H	 0.606423	 -0.389454	 0.652973
H	 0.421195	 -2.002550	 1.278293
C	 -2.037799	 -0.007733	 -0.193645
H	 -0.974837	 -1.811383	 -0.648338
H	 -2.013256	 -1.947210	 0.740639
C	 -3.489788	 0.042957	 0.286558
H	 -2.017067	 0.064384	 -1.280144
H	 -1.513726	 0.868678	 0.179924
C	 -4.216917	 1.317354	 -0.141063
H	 -4.025645	 -0.823308	 -0.095450
H	 -3.513059	 -0.038752	 1.371301
H	 -4.239342	 1.411634	 -1.223113
H	 -5.243387	 1.322503	 0.212445
H	 -3.726170	 2.201406	 0.256408

	symmetry c1
}
set optking {
	frozen_dihedral = ("
		14 10 7 4,
		14 10 13 16,
		10 7 4 8,
		8 4 3 2,
		20 16 19 22,
		4 3 2 1
	")
}

ee = energy('scf')
oeprop('DIPOLE', 'QUADRUPOLE', 'MULLIKEN_CHARGES')
f=open( 'psi4out.xyz', 'w' )
f.write( "27  " )
f.write( str(ee) + "\n" )
f.write( MOL.save_string_xyz() )
f.close()
--------------------------------------------------------------------------

    Molecular point group: c1

    Geometry (in Angstrom), charge = 0, multiplicity = 1:

       Center              X                  Y                   Z               Mass
    ------------   -----------------  -----------------  -----------------  -----------------
           H          0.243984653179     1.445120309147     2.596223903559     1.007825032070
           O          1.134598653179     1.445072309147     2.915407903559    15.994914619560
           C          1.643667653179     0.135639309147     2.898419903559    12.000000000000
           C          1.948501653179    -0.372623690853     1.493616903559    12.000000000000
           H          2.555003653179     0.166587309147     3.481671903559     1.007825032070
           H          0.959833653179    -0.545638690853     3.403405903559     1.007825032070
           C          0.714859653179    -0.499982690853     0.596523903559    12.000000000000
           H          2.667466653179     0.299373309147     1.032230903559     1.007825032070
           H          2.433119653179    -1.343543690853     1.582079903559     1.007825032070
           C          1.046295653179    -1.063513690853    -0.788179096441    12.000000000000
           H          0.249127653179     0.475693309147     0.489209903559     1.007825032070
           H         -0.018507346821    -1.146319690853     1.078978903559     1.007825032070
           C         -0.166566346821    -1.291672690853    -1.697712096441    12.000000000000
           H          1.749609653179    -0.398630690853    -1.286303096441     1.007825032070
           H          1.564381653179    -2.011726690853    -0.660983096441     1.007825032070
           C         -0.894612346821    -0.016909690853    -2.132921096441    12.000000000000
           H          0.168349653179    -1.820559690853    -2.587614096441     1.007825032070
           H         -0.870069346821    -1.956386690853    -1.198637096441     1.007825032070
           C         -2.346601346821     0.033780309147    -1.652718096441    12.000000000000
           H         -0.873880346821     0.055207309147    -3.219420096441     1.007825032070
           H         -0.370539346821     0.859501309147    -1.759352096441     1.007825032070
           C         -3.073730346821     1.308177309147    -2.080339096441    12.000000000000
           H         -2.882458346821    -0.832484690853    -2.034726096441     1.007825032070
           H         -2.369872346821    -0.047928690853    -0.567975096441     1.007825032070
           H         -3.096155346821     1.402457309147    -3.162389096441     1.007825032070
           H         -4.100200346821     1.313326309147    -1.726831096441     1.007825032070
           H         -2.582983346821     2.192229309147    -1.682868096441     1.007825032070

  Charge       = 0
  Multiplicity = 1
  Basis Set: 6-31G*
  Basis Set:

    Orbital Energies (a.u.)
    -----------------------

    Doubly Occupied:

       1A    -20.552585     2A    -11.267334     3A    -11.220349
       4A    -11.217392     5A    -11.216986     6A    -11.215625
       7A    -11.214127     8A    -11.212963     9A    -11.209452
      10A     -1.359327    11A     -1.096031    12A     -1.061238
      13A     -1.011389    14A     -0.949063    15A     -0.888370
      16A     -0.823205    17A     -0.798525    18A     -0.779454
      19A     -0.693970    20A     -0.650593    21A     -0.638741
      22A     -0.612160    23A     -0.598945    24A     -0.589756
      25A     -0.578842    26A     -0.557135    27A     -0.545314
      28A     -0.520987    29A     -0.507021    30A     -0.494059
      31A     -0.487305    32A     -0.478100    33A     -0.470214
      34A     -0.460160    35A     -0.447342    36A     -0.440542
      37A     -0.423254

  @DF-RHF Final Energy:  -388.27638973757075

   => Energetics <=

    Nuclear Repulsion Energy =            467.3371333858332264
    One-Electron Energy =               -1452.6515112652539301
    Two-Electron Energy =                 597.0379881418500645
    DFT Exchange-Correlation Energy =       0.0000000000000000
    Empirical Dispersion Energy =           0.0000000000000000
    PCM Polarization Energy =               0.0000000000000000
    EFP Energy =                            0.0000000000000000
    Total Energy =                       -388.2763897375706392

  Mulliken Charges: (a.u.)
   Center  Symbol    Alpha    Beta     Spin     Total
       1     H     0.27989  0.27989  0.00000  0.44022
       2     O     4.37095  4.37095  0.00000 -0.74190
       3     C     2.99741  2.99741  0.00000  0.00518
       4     C     3.16096  3.16096  0.00000 -0.32191
       5     H     0.41437  0.41437  0.00000  0.17127
       6     H     0.43195  0.43195  0.00000  0.13609
       7     C     3.16282  3.16282  0.00000 -0.32564
       8     H     0.41500  0.41500  0.00000  0.17001
       9     H     0.42403  0.42403  0.00000  0.15193
      10     C     3.15322  3.15322  0.00000 -0.30644
      11     H     0.42373  0.42373  0.00000  0.15254
      12     H     0.42524  0.42524  0.00000  0.14953
      13     C     3.15707  3.15707  0.00000 -0.31414
      14     H     0.42136  0.42136  0.00000  0.15728
      15     H     0.42235  0.42235  0.00000  0.15531
      16     C     3.15487  3.15487  0.00000 -0.30974
      17     H     0.41892  0.41892  0.00000  0.16216
      18     H     0.42125  0.42125  0.00000  0.15750
      19     C     3.15393  3.15393  0.00000 -0.30785
      20     H     0.42033  0.42033  0.00000  0.15933
      21     H     0.42093  0.42093  0.00000  0.15814
      22     C     3.23991  3.23991  0.00000 -0.47983
      23     H     0.42202  0.42202  0.00000  0.15596
      24     H     0.42451  0.42451  0.00000  0.15098
      25     H     0.42119  0.42119  0.00000  0.15762
      26     H     0.41961  0.41961  0.00000  0.16078
      27     H     0.42219  0.42219  0.00000  0.15563

   Total alpha = 37.00000, Total beta = 37.00000, Total charge =  0.00000
