  ==> Input File <==

--------------------------------------------------------------------------
set {
	reference rhf
	basis 6-31G*
}

set_num_threads( 4 )
memory 2 gb

molecule MOL {
0 1

H	 1.967355	 -0.383156	 0.500653
C	 1.126402	 -0.421652	 -0.178038
O	 0.000000	 0.000000	 0.521119
H	 1.331735	 0.224281	 -1.030269
H	 1.012257	 -1.442304	 -0.539880
C	 -1.165642	 0.000000	 -0.238270
H	 -1.228672	 0.883184	 -0.872070
H	 -2.003012	 0.000000	 0.445920
H	 -1.228672	 -0.883184	 -0.872070

	symmetry c1
}
set optking {
	frozen_dihedral = ("
		2 3 6 7
	")
}

ee = optimize('scf')
oeprop('DIPOLE', 'QUADRUPOLE', 'MULLIKEN_CHARGES')
f=open( 'psi4out.xyz', 'w' )
f.write( "9  " )
f.write( str(ee) + "\n" )
f.write( MOL.save_string_xyz() )
f.close()
--------------------------------------------------------------------------

    Molecular point group: c1
  Charge       = 0
  Multiplicity = 1
  Basis Set: 6-31G*
  Basis Set:
  @DF-RHF Final Energy:  -154.06363223468890
    Total Energy =                       -154.0636322346889528
    Molecular point group: c1
  Basis Set: 6-31G*
  Basis Set:
  Basis Set: 6-31G*
  Basis Set:
  @DF-RHF Final Energy:  -154.06368143472781
    Total Energy =                       -154.0636814347278687
  Basis Set: 6-31G*
  Basis Set:
  Charge       = 0
  Multiplicity = 1
  Basis Set: 6-31G*
  Basis Set:

    Orbital Energies (a.u.)
    -----------------------

    Doubly Occupied:

       1A    -20.555445     2A    -11.265342     3A    -11.265010
       4A     -1.378145     5A     -0.975037     6A     -0.872737
       7A     -0.660981     8A     -0.653420     9A     -0.644601
      10A     -0.554099    11A     -0.528747    12A     -0.474174
      13A     -0.416149

  @DF-RHF Final Energy:  -154.06368744566515

   => Energetics <=

    Nuclear Repulsion Energy =             84.6844167591549564
    One-Electron Energy =                -377.0084317587554210
    Two-Electron Energy =                 138.2603275539352694
    DFT Exchange-Correlation Energy =       0.0000000000000000
    Empirical Dispersion Energy =           0.0000000000000000
    PCM Polarization Energy =               0.0000000000000000
    EFP Energy =                            0.0000000000000000
    Total Energy =                       -154.0636874456652095
    Molecular point group: c1
  Basis Set: 6-31G*
  Basis Set:

  -Total Gradient:
     Atom            X                  Y                   Z
    ------   -----------------  -----------------  -----------------
       1       -0.000037786873     0.000030298405     0.000025037285
       2       -0.000394619503    -0.002099738097     0.000516171515
       3        0.000147947842     0.003221821557    -0.000282840070
       4        0.000009066827     0.000008969793     0.000020584241
       5        0.000021555486    -0.000002276582     0.000002965474
       6        0.001522887142    -0.002460563372    -0.002301225509
       7       -0.001312808601     0.001337064760     0.001989091192
       8        0.000020191971    -0.000000216320    -0.000005856419
       9        0.000023565709    -0.000035360144     0.000036072290

  **** Optimization is complete! (in 3 steps) ****
    Final optimized geometry and variables:
    Molecular point group: c1

    Geometry (in Angstrom), charge = 0, multiplicity = 1:

    H            1.980452105409    -0.235153666610     0.488020128626
    C            1.144783982877    -0.273428104936    -0.197204134558
    O            0.012888110235     0.141641117019     0.497858846393
    H            1.357466498537     0.375440314234    -1.045528362079
    H            1.034686019392    -1.292809288172    -0.562546149979
    C           -1.155863913087     0.143954918209    -0.259471723286
    H           -1.219578930001     1.030676322736    -0.887377386978
    H           -1.991104461360     0.158031667881     0.428426936425
    H           -1.234538063248    -0.742517610097    -0.884815142210

  Mulliken Charges: (a.u.)
   Center  Symbol    Alpha    Beta     Spin     Total
       1     H     0.41203  0.41203  0.00000  0.17594
       2     C     3.07998  3.07998  0.00000 -0.15996
       3     O     4.29626  4.29626  0.00000 -0.59253
       4     H     0.43053  0.43053  0.00000  0.13895
       5     H     0.42978  0.42978  0.00000  0.14044
       6     C     3.07961  3.07961  0.00000 -0.15922
       7     H     0.42782  0.42782  0.00000  0.14436
       8     H     0.41302  0.41302  0.00000  0.17397
       9     H     0.43097  0.43097  0.00000  0.13806

   Total alpha = 13.00000, Total beta = 13.00000, Total charge =  0.00000
