  ==> Input File <==

--------------------------------------------------------------------------
set {
	reference rhf
	basis 6-31G*
}

set_num_threads( 1 )
memory 2 gb

molecule MOL {
0 1

H	 -3.261111	 -0.295142	 1.469456
C	 -3.306842	 -0.277400	 0.373456
C	 -2.660244	 0.921717	 -0.272021
O	 -3.838538	 -1.161155	 -0.216482
C	 -2.673029	 0.843408	 -1.804979
H	 -3.160584	 1.814140	 0.085679
H	 -1.628617	 0.955001	 0.076250
C	 -4.077069	 0.929076	 -2.408826
H	 -2.062344	 1.651907	 -2.195720
H	 -2.192092	 -0.080154	 -2.123553
C	 -4.073612	 0.861307	 -3.937293
H	 -4.546726	 1.856422	 -2.087426
H	 -4.697491	 0.125863	 -2.015806
C	 -5.477902	 0.963429	 -4.538531
H	 -3.444355	 1.659114	 -4.323653
H	 -3.613738	 -0.073320	 -4.255683
C	 -5.532797	 0.817524	 -6.063579
H	 -5.923652	 1.914960	 -4.252892
H	 -6.103042	 0.191058	 -4.095411
C	 -4.849707	 1.947791	 -6.835268
H	 -6.575926	 0.770548	 -6.366274
H	 -5.091160	 -0.134619	 -6.350465
H	 -5.260500	 2.914577	 -6.556266
H	 -3.780818	 1.977076	 -6.651981
H	 -4.992638	 1.825023	 -7.904611

	symmetry c1
}
set optking {
	frozen_dihedral = ("
		6 3 5 8,
		3 5 8 12,
		12 8 11 14,
		8 11 14 18,
		20 17 14 18
	")
}

ee = energy('scf')
oeprop('DIPOLE', 'QUADRUPOLE', 'MULLIKEN_CHARGES')
f=open( 'psi4out.xyz', 'w' )
f.write( "25  " )
f.write( str(ee) + "\n" )
f.write( MOL.save_string_xyz() )
f.close()
--------------------------------------------------------------------------

    Molecular point group: c1

    Geometry (in Angstrom), charge = 0, multiplicity = 1:

       Center              X                  Y                   Z               Mass
    ------------   -----------------  -----------------  -----------------  -----------------
           H          0.798090608785    -0.940752529848     4.336342097141     1.007825032070
           C          0.752359608785    -0.923010529848     3.240342097141    12.000000000000
           C          1.398957608785     0.276106470152     2.594865097141    12.000000000000
           O          0.220663608785    -1.806765529848     2.650404097141    15.994914619560
           C          1.386172608785     0.197797470152     1.061907097141    12.000000000000
           H          0.898617608785     1.168529470152     2.952565097141     1.007825032070
           H          2.430584608785     0.309390470152     2.943136097141     1.007825032070
           C         -0.017867391215     0.283465470152     0.458060097141    12.000000000000
           H          1.996857608785     1.006296470152     0.671166097141     1.007825032070
           H          1.867109608785    -0.725764529848     0.743333097141     1.007825032070
           C         -0.014410391215     0.215696470152    -1.070406902859    12.000000000000
           H         -0.487524391215     1.210811470152     0.779460097141     1.007825032070
           H         -0.638289391215    -0.519747529848     0.851080097141     1.007825032070
           C         -1.418700391215     0.317818470152    -1.671644902859    12.000000000000
           H          0.614846608785     1.013503470152    -1.456766902859     1.007825032070
           H          0.445463608785    -0.718930529848    -1.388796902859     1.007825032070
           C         -1.473595391215     0.171913470152    -3.196692902859    12.000000000000
           H         -1.864450391215     1.269349470152    -1.386005902859     1.007825032070
           H         -2.043840391215    -0.454552529848    -1.228524902859     1.007825032070
           C         -0.790505391215     1.302180470152    -3.968381902859    12.000000000000
           H         -2.516724391215     0.124937470152    -3.499387902859     1.007825032070
           H         -1.031958391215    -0.780229529848    -3.483578902859     1.007825032070
           H         -1.201298391215     2.268966470152    -3.689379902859     1.007825032070
           H          0.278383608785     1.331465470152    -3.785094902859     1.007825032070
           H         -0.933436391215     1.179412470152    -5.037724902859     1.007825032070

  Charge       = 0
  Multiplicity = 1
  Basis Set: 6-31G*
  Basis Set:

    Orbital Energies (a.u.)
    -----------------------

    Doubly Occupied:

       1A    -20.565406     2A    -11.329748     3A    -11.237499
       4A    -11.221480     5A    -11.211466     6A    -11.209105
       7A    -11.208495     8A    -11.207351     9A    -11.205335
      10A     -1.406800    11A     -1.092333    12A     -1.062333
      13A     -1.007851    14A     -0.939613    15A     -0.873807
      16A     -0.812912    17A     -0.774966    18A     -0.765394
      19A     -0.687235    20A     -0.649092    21A     -0.627356
      22A     -0.621636    23A     -0.605842    24A     -0.584732
      25A     -0.556993    26A     -0.546439    27A     -0.532402
      28A     -0.516427    29A     -0.502082    30A     -0.495867
      31A     -0.479318    32A     -0.469974    33A     -0.455731
      34A     -0.450508    35A     -0.433534    36A     -0.408789

  @DF-RHF Final Energy:  -387.12162750801986

   => Energetics <=

    Nuclear Repulsion Energy =            446.4258308555812391
    One-Electron Energy =               -1409.5833854284978770
    Two-Electron Energy =                 576.0359270648943948
    DFT Exchange-Correlation Energy =       0.0000000000000000
    Empirical Dispersion Energy =           0.0000000000000000
    PCM Polarization Energy =               0.0000000000000000
    EFP Energy =                            0.0000000000000000
    Total Energy =                       -387.1216275080222431

  Mulliken Charges: (a.u.)
   Center  Symbol    Alpha    Beta     Spin     Total
       1     H     0.42725  0.42725  0.00000  0.14550
       2     C     2.83596  2.83596  0.00000  0.32807
       3     C     3.21500  3.21500  0.00000 -0.43001
       4     O     4.23678  4.23678  0.00000 -0.47357
       5     C     3.15273  3.15273  0.00000 -0.30545
       6     H     0.40504  0.40504  0.00000  0.18992
       7     H     0.40574  0.40574  0.00000  0.18853
       8     C     3.15899  3.15899  0.00000 -0.31798
       9     H     0.41988  0.41988  0.00000  0.16024
      10     H     0.41259  0.41259  0.00000  0.17481
      11     C     3.15408  3.15408  0.00000 -0.30816
      12     H     0.42927  0.42927  0.00000  0.14146
      13     H     0.40037  0.40037  0.00000  0.19927
      14     C     3.15272  3.15272  0.00000 -0.30545
      15     H     0.42459  0.42459  0.00000  0.15082
      16     H     0.42222  0.42222  0.00000  0.15555
      17     C     3.15232  3.15232  0.00000 -0.30464
      18     H     0.42565  0.42565  0.00000  0.14869
      19     H     0.42017  0.42017  0.00000  0.15966
      20     C     3.24086  3.24086  0.00000 -0.48173
      21     H     0.42153  0.42153  0.00000  0.15693
      22     H     0.42293  0.42293  0.00000  0.15413
      23     H     0.42304  0.42304  0.00000  0.15392
      24     H     0.42040  0.42040  0.00000  0.15921
      25     H     0.41986  0.41986  0.00000  0.16027

   Total alpha = 36.00000, Total beta = 36.00000, Total charge = -0.00000
