                              Psi4 1.0.54 Driver

  ==> Input File <==

--------------------------------------------------------------------------
set {
	reference rhf
	basis cc-pvtz
}

set_num_threads( 4 )
memory 2 gb

molecule MOL {
0 1

H	 -2.644180	 -0.653737	 1.272255
C	 -2.092774	 -0.380414	 0.391915
O	 -0.808934	 -0.154049	 0.752536
F	 -2.163230	 -1.351640	 -0.507133
F	 -2.627232	 0.691260	 -0.169301
C	 0.085006	 0.250800	 -0.215074
C	 -0.103765	 1.753061	 -0.412184
Cl	 -0.193953	 -0.603688	 -1.743985
H	 1.108203	 0.076427	 0.068314
F	 0.730631	 2.205314	 -1.313447
F	 0.150836	 2.367449	 0.718754
F	 -1.319232	 2.055390	 -0.777545

	symmetry c1
}
set optking {
	frozen_dihedral = ("
		9 6 3 2
	")
}

ee,wfn = optimize('scf', return_wfn=True)
oeprop( wfn, 'DIPOLE', 'QUADRUPOLE', 'MULLIKEN_CHARGES')
f=open( 'psi4out.xyz', 'w' )
f.write( "12  " )
f.write( str(ee) + "\n" )
f.write( MOL.save_string_xyz() )
f.close()
--------------------------------------------------------------------------

    Molecular point group: c1
  Charge       = 0
  Multiplicity = 1
  Basis Set: CC-PVTZ
  Basis Set:
  @DF-RHF Final Energy: -1146.56642870747510
    Total Energy =                      -1146.5664287074748700
    Molecular point group: c1
  Basis Set: CC-PVTZ
  Basis Set:
  Basis Set: CC-PVTZ
  Basis Set:
  @DF-RHF Final Energy: -1146.54605696472527
    Total Energy =                      -1146.5460569647261764
  Basis Set: CC-PVTZ
  Basis Set:
  Basis Set: CC-PVTZ
  Basis Set:
  @DF-RHF Final Energy: -1146.59742397624495
    Total Energy =                      -1146.5974239762444995
  Basis Set: CC-PVTZ
  Basis Set:
  Basis Set: CC-PVTZ
  Basis Set:
  @DF-RHF Final Energy: -1146.60522802998321
    Total Energy =                      -1146.6052280299832091
  Basis Set: CC-PVTZ
  Basis Set:
  @DF-RHF Final Energy: -1146.60773398576657
    Total Energy =                      -1146.6077339857652078
  @DF-RHF Final Energy: -1146.60978606749973
    Total Energy =                      -1146.6097860674994990
  @DF-RHF Final Energy: -1146.61044871648869
    Total Energy =                      -1146.6104487164884631
  @DF-RHF Final Energy: -1146.61059647601883
    Total Energy =                      -1146.6105964760190545
  @DF-RHF Final Energy: -1146.61067563243978
    Total Energy =                      -1146.6106756324404614
  Basis Set: CC-PVTZ
  Basis Set:
  @DF-RHF Final Energy: -1146.61068941478334
    Total Energy =                      -1146.6106894147842468
  Basis Set: CC-PVTZ
  Basis Set:
  Basis Set: CC-PVTZ
  Basis Set:
  @DF-RHF Final Energy: -1146.61069329166389
    Total Energy =                      -1146.6106932916636651
  Basis Set: CC-PVTZ
  Basis Set:
  Basis Set: CC-PVTZ
  Basis Set:
  @DF-RHF Final Energy: -1146.61069523230344
    Total Energy =                      -1146.6106952323038968
  Basis Set: CC-PVTZ
  Basis Set:
  Charge       = 0
  Multiplicity = 1
  Basis Set: CC-PVTZ
  Basis Set:

    Orbital Energies (a.u.)
    -----------------------

    Doubly Occupied:

       1A   -104.859841     2A    -26.353801     3A    -26.353230
       4A    -26.351789     5A    -26.338761     6A    -26.331661
       7A    -20.636373     8A    -11.519213     9A    -11.479370
      10A    -11.402859    11A    -10.585330    12A     -8.052155
      13A     -8.050133    14A     -8.050039    15A     -1.767169
      16A     -1.717715    17A     -1.661338    18A     -1.660706
      19A     -1.638696    20A     -1.477736    21A     -1.178992
      22A     -1.053588    23A     -0.994974    24A     -0.919277
      25A     -0.857753    26A     -0.856247    27A     -0.851085
      28A     -0.836223    29A     -0.813991    30A     -0.763627
      31A     -0.735767    32A     -0.728058    33A     -0.711653
      34A     -0.695019    35A     -0.685923    36A     -0.677516
      37A     -0.669594    38A     -0.663550    39A     -0.656427
      40A     -0.637649    41A     -0.594431    42A     -0.561038
      43A     -0.527854    44A     -0.479712    45A     -0.468671

  @DF-RHF Final Energy: -1146.61069580061212

   => Energetics <=

    Nuclear Repulsion Energy =            752.6834878479079407
    One-Electron Energy =               -3088.7752986944287841
    Two-Electron Energy =                1189.4811150459095188
    DFT Exchange-Correlation Energy =       0.0000000000000000
    Empirical Dispersion Energy =           0.0000000000000000
    PCM Polarization Energy =               0.0000000000000000
    EFP Energy =                            0.0000000000000000
    Total Energy =                      -1146.6106958006112109
    Molecular point group: c1
  Basis Set: CC-PVTZ
  Basis Set:

  -Total Gradient:
     Atom            X                  Y                   Z
    ------   -----------------  -----------------  -----------------
       1       -0.000006157601    -0.000007230680     0.000001422833
       2       -0.000112697681     0.000668097019     0.000074373530
       3        0.000134655152    -0.000804762696    -0.000076600764
       4        0.000029525057    -0.000018104965    -0.000110428270
       5        0.000020861672    -0.000089704062     0.000077815777
       6       -0.000248819486    -0.000395408208    -0.000151638747
       7        0.000005700264    -0.000025421917    -0.000016562870
       8       -0.000039519750    -0.000008632442     0.000114307984
       9        0.000161199342     0.000603509245     0.000140355045
      10        0.000031315982     0.000008885336    -0.000053542223
      11       -0.000014354361     0.000019802427     0.000029549899
      12        0.000038291406     0.000048970844    -0.000029052214

  **** Optimization is complete! (in 13 steps) ****
    Final optimized geometry and variables:
    Molecular point group: c1

    Geometry (in Angstrom), charge = 0, multiplicity = 1:

    H           -1.170595113505    -0.462454376416     2.612317571407
    C           -1.064535470871    -0.663549538885     1.561375645947
    O            0.252737962083    -0.525421865731     1.260732949557
    F           -1.481194203072    -1.890523068837     1.307672539258
    F           -1.822312181302     0.161575897855     0.866487378675
    C            0.789114008542    -0.351498267782     0.001573539216
    C            0.806051682890     1.117282500799    -0.449328173671
    CL           0.095526081619    -1.368747197320    -1.271501702183
    H            1.821544595474    -0.635342078182     0.095440761675
    F            1.671660658923     1.242021791551    -1.428401678980
    F            1.214138900873     1.866348767008     0.547785296204
    F           -0.340597189684     1.575939057313    -0.861652446270

  Mulliken Charges: (a.u.)
   Center  Symbol    Alpha    Beta     Spin     Total
       1     H     0.45265  0.45265  0.00000  0.09469
       2     C     2.73975  2.73975  0.00000  0.52049
       3     O     4.16308  4.16308  0.00000 -0.32617
       4     F     4.61232  4.61232  0.00000 -0.22463
       5     F     4.61289  4.61289  0.00000 -0.22577
       6     C     2.95068  2.95068  0.00000  0.09863
       7     C     2.67526  2.67526  0.00000  0.64948
       8    CL     8.56783  8.56783  0.00000 -0.13565
       9     H     0.41847  0.41847  0.00000  0.16307
      10     F     4.60558  4.60558  0.00000 -0.21117
      11     F     4.60535  4.60535  0.00000 -0.21069
      12     F     4.59614  4.59614  0.00000 -0.19227

   Total alpha = 45.00000, Total beta = 45.00000, Total charge = -0.00000

*** Psi4 exiting successfully. Buy a developer a beer!
