  ==> Input File <==

--------------------------------------------------------------------------
set {
	reference rhf
	basis 6-31G*
}

set_num_threads( 4 )
memory 2 gb

molecule MOL {
0 1

H	 1.148083	 -1.049780	 0.784252
O	 1.319262	 -0.618148	 -0.041729
C	 0.709265	 0.639550	 -0.033818
C	 -0.731618	 0.623890	 0.404579
H	 0.777076	 1.014908	 -1.048565
H	 1.265711	 1.335604	 0.593001
C	 -1.452642	 -0.459442	 0.612620
H	 -1.174915	 1.597538	 0.545927
H	 -1.049355	 -1.444689	 0.464034
H	 -2.479071	 -0.396506	 0.926403

	symmetry c1
}
set optking {
	frozen_dihedral = ("
		5 3 2 1
	")
}

ee = optimize('scf')
oeprop('DIPOLE', 'QUADRUPOLE', 'MULLIKEN_CHARGES')
f=open( 'psi4out.xyz', 'w' )
f.write( "10  " )
f.write( str(ee) + "\n" )
f.write( MOL.save_string_xyz() )
f.close()
--------------------------------------------------------------------------

    Molecular point group: c1
  Charge       = 0
  Multiplicity = 1
  Basis Set: 6-31G*
  Basis Set:
  @DF-RHF Final Energy:  -191.91672929888500
    Total Energy =                       -191.9167292988848885
    Molecular point group: c1
  Basis Set: 6-31G*
  Basis Set:
  Basis Set: 6-31G*
  Basis Set:
  @DF-RHF Final Energy:  -191.91679661939835
    Total Energy =                       -191.9167966193983830
  Basis Set: 6-31G*
  Basis Set:
  Basis Set: 6-31G*
  Basis Set:
  @DF-RHF Final Energy:  -191.91682479432791
    Total Energy =                       -191.9168247943279084
  Basis Set: 6-31G*
  Basis Set:
  Charge       = 0
  Multiplicity = 1
  Basis Set: 6-31G*
  Basis Set:

    Orbital Energies (a.u.)
    -----------------------

    Doubly Occupied:

       1A    -20.559684     2A    -11.278321     3A    -11.234447
       4A    -11.222851     5A     -1.368821     6A     -1.060184
       7A     -0.930129     8A     -0.771544     9A     -0.684824
      10A     -0.663182    11A     -0.618897    12A     -0.570171
      13A     -0.545431    14A     -0.487172    15A     -0.450006
      16A     -0.367410

  @DF-RHF Final Energy:  -191.91682539169346

   => Energetics <=

    Nuclear Repulsion Energy =            119.4442447016116233
    One-Electron Energy =                -497.0959931456260961
    Two-Electron Energy =                 185.7349230523210792
    DFT Exchange-Correlation Energy =       0.0000000000000000
    Empirical Dispersion Energy =           0.0000000000000000
    PCM Polarization Energy =               0.0000000000000000
    EFP Energy =                            0.0000000000000000
    Total Energy =                       -191.9168253916933793
    Molecular point group: c1
  Basis Set: 6-31G*
  Basis Set:

  -Total Gradient:
     Atom            X                  Y                   Z
    ------   -----------------  -----------------  -----------------
       1       -0.001628056884    -0.000827980942    -0.000680715254
       2        0.001669628239     0.000876659595     0.000779624983
       3        0.001444570480     0.000693134317     0.000141023505
       4        0.000034150336    -0.000077649287     0.000104895770
       5       -0.001465831456    -0.000719630835    -0.000318186492
       6       -0.000027957422    -0.000008868760     0.000008831671
       7        0.000037099577     0.000059047611     0.000092517388
       8       -0.000020671482     0.000016587580    -0.000036066412
       9       -0.000022866807    -0.000011228753    -0.000035649667
      10       -0.000020064582    -0.000000070524    -0.000056275492

  **** Optimization is complete! (in 4 steps) ****
    Final optimized geometry and variables:
    Molecular point group: c1

    Geometry (in Angstrom), charge = 0, multiplicity = 1:

    H            1.145521812715    -1.037712015288     0.585945954783
    O            1.294953708590    -0.630358003700    -0.256522386792
    C            0.675550160580     0.622201073928    -0.272468568907
    C           -0.761001249959     0.607558624814     0.182157656737
    H            0.717210189977     0.967937446821    -1.299300414952
    H            1.233760282004     1.337566281772     0.329836160032
    C           -1.495606488793    -0.472173712696     0.361869516625
    H           -1.192163287335     1.580626151346     0.358650122157
    H           -1.113070078086    -1.459546955882     0.174617005354
    H           -2.517732276994    -0.405078499524     0.688045823901

  Mulliken Charges: (a.u.)
   Center  Symbol    Alpha    Beta     Spin     Total
       1     H     0.28110  0.28110  0.00000  0.43780
       2     O     4.36823  4.36823  0.00000 -0.73647
       3     C     2.99607  2.99607  0.00000  0.00785
       4     C     3.09580  3.09580  0.00000 -0.19161
       5     H     0.40838  0.40838  0.00000  0.18325
       6     H     0.42505  0.42505  0.00000  0.14990
       7     C     3.19935  3.19935  0.00000 -0.39871
       8     H     0.40877  0.40877  0.00000  0.18246
       9     H     0.40756  0.40756  0.00000  0.18489
      10     H     0.40968  0.40968  0.00000  0.18064

   Total alpha = 16.00000, Total beta = 16.00000, Total charge =  0.00000
