                              Psi4 1.0.54 Driver

  ==> Input File <==

--------------------------------------------------------------------------
set {
	reference rhf
	basis cc-pvtz
}

set_num_threads( 4 )
memory 2 gb

molecule MOL {
0 1

H	 -3.105267	 0.264341	 0.100007
O	 -2.346257	 -0.289210	 0.080372
C	 -1.183935	 0.486039	 -0.009831
C	 0.062853	 -0.375310	 0.027457
H	 -1.178881	 1.094526	 -0.908634
H	 -1.184406	 1.155156	 0.838676
O	 1.172093	 0.457955	 -0.054438
H	 0.052476	 -1.081302	 -0.804627
H	 0.076323	 -0.955658	 0.947560
C	 2.395478	 -0.199028	 -0.000366
H	 2.505946	 -0.901710	 -0.823354
H	 3.174616	 0.545641	 -0.071768
H	 2.513730	 -0.742241	 0.934223

	symmetry c1
}
set optking {
	frozen_dihedral = ("
		1 2 3 5
	")
}

ee,wfn = optimize('scf', return_wfn=True)
oeprop( wfn, 'DIPOLE', 'QUADRUPOLE', 'MULLIKEN_CHARGES')
f=open( 'psi4out.xyz', 'w' )
f.write( "13  " )
f.write( str(ee) + "\n" )
f.write( MOL.save_string_xyz() )
f.close()
--------------------------------------------------------------------------

    Molecular point group: c1
  Charge       = 0
  Multiplicity = 1
  Basis Set: CC-PVTZ
  Basis Set:
  @DF-RHF Final Energy:  -268.06125878039364
    Total Energy =                       -268.0612587803934730
    Molecular point group: c1
  Basis Set: CC-PVTZ
  Basis Set:
  Basis Set: CC-PVTZ
  Basis Set:
  @DF-RHF Final Energy:  -268.06254681742917
    Total Energy =                       -268.0625468174290518
  Basis Set: CC-PVTZ
  Basis Set:
  Basis Set: CC-PVTZ
  Basis Set:
  @DF-RHF Final Energy:  -268.06282807979903
    Total Energy =                       -268.0628280797989191
  Basis Set: CC-PVTZ
  Basis Set:
  Basis Set: CC-PVTZ
  Basis Set:
  @DF-RHF Final Energy:  -268.06283412099089
    Total Energy =                       -268.0628341209907717
  Basis Set: CC-PVTZ
  Basis Set:
  Charge       = 0
  Multiplicity = 1
  Basis Set: CC-PVTZ
  Basis Set:

    Orbital Energies (a.u.)
    -----------------------

    Doubly Occupied:

       1A    -20.552524     2A    -20.551982     3A    -11.267351
       4A    -11.265194     5A    -11.264725     6A     -1.388745
       7A     -1.368345     8A     -1.019702     9A     -0.911782
      10A     -0.831723    11A     -0.711871    12A     -0.686628
      13A     -0.644081    14A     -0.633637    15A     -0.623127
      16A     -0.555434    17A     -0.538557    18A     -0.497666
      19A     -0.471068    20A     -0.445116    21A     -0.421097

  @DF-RHF Final Energy:  -268.06283497311415

   => Energetics <=

    Nuclear Repulsion Energy =            190.7283831942663710
    One-Electron Energy =                -744.2817247595933168
    Two-Electron Energy =                 285.4905065922125686
    DFT Exchange-Correlation Energy =       0.0000000000000000
    Empirical Dispersion Energy =           0.0000000000000000
    PCM Polarization Energy =               0.0000000000000000
    EFP Energy =                            0.0000000000000000
    Total Energy =                       -268.0628349731143771
    Molecular point group: c1
  Basis Set: CC-PVTZ
  Basis Set:

  -Total Gradient:
     Atom            X                  Y                   Z
    ------   -----------------  -----------------  -----------------
       1       -0.000004886904    -0.000011623356    -0.000021984294
       2       -0.000030954856     0.000010645995     0.000023645738
       3        0.000063304770    -0.000007064372     0.000005163531
       4       -0.000027657724    -0.000013653138     0.000007084186
       5       -0.000005201665    -0.000006872653     0.000016118064
       6       -0.000000549401    -0.000017207518    -0.000009612519
       7        0.000022352538     0.000022920700    -0.000015074921
       8       -0.000002846886     0.000007601924    -0.000005714427
       9       -0.000015943177     0.000011043587    -0.000002323038
      10        0.000007158424     0.000004745632     0.000006327888
      11       -0.000004786379     0.000002403955     0.000002657788
      12        0.000004535024    -0.000002989018    -0.000002532226
      13       -0.000004523765     0.000000048261    -0.000003755768

  **** Optimization is complete! (in 5 steps) ****
    Final optimized geometry and variables:
    Molecular point group: c1

    Geometry (in Angstrom), charge = 0, multiplicity = 1:

    H           -3.085111516868     0.169423728187     0.041645256614
    O           -2.295006135516    -0.337039502441     0.067245483165
    C           -1.178249119372     0.505072850652    -0.012740031235
    C            0.052848015425    -0.370754782533     0.024586034337
    H           -1.181273466151     1.080092313702    -0.933572632710
    H           -1.147750395277     1.201978760162     0.819119580147
    O            1.171677261082     0.452125147979    -0.053756003017
    H            0.026261623040    -1.071516079463    -0.807074822517
    H            0.059467256978    -0.949981597762     0.945387268612
    C            2.385179751835    -0.223953575754    -0.029375529445
    H            2.474268363923    -0.911175203385    -0.867643434564
    H            3.174815721746     0.510234989857    -0.095535561009
    H            2.507398289788    -0.788274988189     0.892307573481

  Mulliken Charges: (a.u.)
   Center  Symbol    Alpha    Beta     Spin     Total
       1     H     0.39476  0.39476  0.00000  0.21048
       2     O     4.19760  4.19760  0.00000 -0.39519
       3     C     2.96450  2.96450  0.00000  0.07100
       4     C     2.96511  2.96511  0.00000  0.06978
       5     H     0.47073  0.47073  0.00000  0.05855
       6     H     0.47071  0.47071  0.00000  0.05857
       7     O     4.17632  4.17632  0.00000 -0.35265
       8     H     0.47045  0.47045  0.00000  0.05909
       9     H     0.47044  0.47044  0.00000  0.05913
      10     C     3.03133  3.03133  0.00000 -0.06266
      11     H     0.47054  0.47054  0.00000  0.05891
      12     H     0.44697  0.44697  0.00000  0.10605
      13     H     0.47053  0.47053  0.00000  0.05894

   Total alpha = 21.00000, Total beta = 21.00000, Total charge =  0.00000

*** Psi4 exiting successfully. Buy a developer a beer!
