  ==> Input File <==

--------------------------------------------------------------------------
set {
	reference rhf
	basis 6-31G*
}

set_num_threads( 1 )
memory 2 gb

molecule MOL {
0 1

O	 1.214711	 1.306902	 -0.000018
C	 1.122059	 0.121804	 -0.000188
C	 -0.170150	 -0.657997	 -0.000612
O	 2.172624	 -0.688929	 0.000216
C	 -1.412532	 0.227344	 -0.000452
H	 -0.153702	 -1.313099	 -0.867402
H	 -0.153924	 -1.313811	 0.865644
C	 -2.544312	 -0.358898	 -0.845887
H	 -1.149803	 1.213632	 -0.370201
H	 -1.751577	 0.368870	 1.021077
C	 -3.793473	 0.521204	 -0.850228
H	 -2.199041	 -0.499418	 -1.868197
H	 -2.801825	 -1.348105	 -0.472753
H	 -3.576215	 1.507261	 -1.250410
H	 -4.580053	 0.083301	 -1.456702
H	 -4.183652	 0.651996	 0.154905
C	 3.452279	 -0.082609	 0.000533
H	 3.583069	 0.529321	 -0.880332
H	 4.163299	 -0.894027	 0.001117
H	 3.582335	 0.529955	 0.881077

	symmetry c1
}
set optking {
	frozen_dihedral = ("
		9 5 8 12,
		1 2 3 6,
		1 2 4 17
	")
}

ee = energy('scf')
oeprop('DIPOLE', 'QUADRUPOLE', 'MULLIKEN_CHARGES')
f=open( 'psi4out.xyz', 'w' )
f.write( "20  " )
f.write( str(ee) + "\n" )
f.write( MOL.save_string_xyz() )
f.close()
--------------------------------------------------------------------------

    Molecular point group: c1

    Geometry (in Angstrom), charge = 0, multiplicity = 1:

       Center              X                  Y                   Z               Mass
    ------------   -----------------  -----------------  -----------------  -----------------
           O          1.173935761204     1.249644285177     0.212192731493    15.994914619560
           C          1.081283761204     0.064546285177     0.212022731493    12.000000000000
           C         -0.210925238796    -0.715254714823     0.211598731493    12.000000000000
           O          2.131848761204    -0.746186714823     0.212426731493    15.994914619560
           C         -1.453307238796     0.170086285177     0.211758731493    12.000000000000
           H         -0.194477238796    -1.370356714823    -0.655191268507     1.007825032070
           H         -0.194699238796    -1.371068714823     1.077854731493     1.007825032070
           C         -2.585087238796    -0.416155714823    -0.633676268507    12.000000000000
           H         -1.190578238796     1.156374285177    -0.157990268507     1.007825032070
           H         -1.792352238796     0.311612285177     1.233287731493     1.007825032070
           C         -3.834248238796     0.463946285177    -0.638017268507    12.000000000000
           H         -2.239816238796    -0.556675714823    -1.655986268507     1.007825032070
           H         -2.842600238796    -1.405362714823    -0.260542268507     1.007825032070
           H         -3.616990238796     1.450003285177    -1.038199268507     1.007825032070
           H         -4.620828238796     0.026043285177    -1.244491268507     1.007825032070
           H         -4.224427238796     0.594738285177     0.367115731493     1.007825032070
           C          3.411503761204    -0.139866714823     0.212743731493    12.000000000000
           H          3.542293761204     0.472063285177    -0.668121268507     1.007825032070
           H          4.122523761204    -0.951284714823     0.213327731493     1.007825032070
           H          3.541559761204     0.472697285177     1.093287731493     1.007825032070

  Charge       = 0
  Multiplicity = 1
  Basis Set: 6-31G*
  Basis Set:

    Orbital Energies (a.u.)
    -----------------------

    Doubly Occupied:

       1A    -20.604236     2A    -20.546187     3A    -11.372912
       4A    -11.281185     5A    -11.234666     6A    -11.219348
       7A    -11.216364     8A    -11.209534     9A     -1.469964
      10A     -1.363669    11A     -1.087957    12A     -1.023786
      13A     -0.969005    14A     -0.885051    15A     -0.804350
      16A     -0.767299    17A     -0.700431    18A     -0.682210
      19A     -0.672862    20A     -0.640934    21A     -0.600048
      22A     -0.592133    23A     -0.578811    24A     -0.544020
      25A     -0.530839    26A     -0.521305    27A     -0.503183
      28A     -0.478549    29A     -0.468601    30A     -0.466830
      31A     -0.456914    32A     -0.438789

  @DF-RHF Final Energy:  -383.93824788836122

   => Energetics <=

    Nuclear Repulsion Energy =            382.1415867932690276
    One-Electron Energy =               -1280.2957970324605412
    Two-Electron Energy =                 514.2159623508310915
    DFT Exchange-Correlation Energy =       0.0000000000000000
    Empirical Dispersion Energy =           0.0000000000000000
    PCM Polarization Energy =               0.0000000000000000
    EFP Energy =                            0.0000000000000000
    Total Energy =                       -383.9382478883604790

  Mulliken Charges: (a.u.)
   Center  Symbol    Alpha    Beta     Spin     Total
       1     O     4.28484  4.28484  0.00000 -0.56967
       2     C     2.60984  2.60984  0.00000  0.78032
       3     C     3.20970  3.20970  0.00000 -0.41941
       4     O     4.30602  4.30602  0.00000 -0.61204
       5     C     3.15770  3.15770  0.00000 -0.31540
       6     H     0.39910  0.39910  0.00000  0.20180
       7     H     0.39832  0.39832  0.00000  0.20336
       8     C     3.15589  3.15589  0.00000 -0.31179
       9     H     0.39755  0.39755  0.00000  0.20489
      10     H     0.41787  0.41787  0.00000  0.16426
      11     C     3.23994  3.23994  0.00000 -0.47989
      12     H     0.42193  0.42193  0.00000  0.15614
      13     H     0.42347  0.42347  0.00000  0.15306
      14     H     0.41909  0.41909  0.00000  0.16182
      15     H     0.41901  0.41901  0.00000  0.16199
      16     H     0.42100  0.42100  0.00000  0.15801
      17     C     3.09231  3.09231  0.00000 -0.18462
      18     H     0.40906  0.40906  0.00000  0.18188
      19     H     0.40838  0.40838  0.00000  0.18324
      20     H     0.40897  0.40897  0.00000  0.18205

   Total alpha = 32.00000, Total beta = 32.00000, Total charge = -0.00000
