  ==> Input File <==

--------------------------------------------------------------------------
set {
	reference rhf
	basis 6-31G*
}

set_num_threads( 4 )
memory 2 gb

molecule MOL {
0 1

H	 -4.236494	 0.538104	 0.039757
O	 -3.517110	 -0.026191	 -0.205115
C	 -2.306886	 0.532354	 0.237577
C	 -1.177863	 -0.397191	 -0.171080
H	 -2.156308	 1.517575	 -0.201710
H	 -2.315015	 0.655684	 1.319734
C	 0.198102	 0.111031	 0.262842
H	 -1.208843	 -0.518759	 -1.250427
H	 -1.368741	 -1.376554	 0.258909
C	 1.331804	 -0.827780	 -0.158768
H	 0.361943	 1.100838	 -0.156218
H	 0.217265	 0.229072	 1.345532
C	 2.723619	 -0.410569	 0.329459
H	 1.342964	 -0.912588	 -1.244120
H	 1.116806	 -1.824343	 0.220779
C	 3.315937	 0.799183	 -0.395795
H	 3.397927	 -1.254572	 0.206757
H	 2.684060	 -0.207717	 1.397846
H	 3.356172	 0.629699	 -1.468500
H	 2.735966	 1.700049	 -0.224764
H	 4.328023	 0.995041	 -0.055096

	symmetry c1
}
set optking {
	frozen_dihedral = ("
		16 13 10 14
	")
}

ee = optimize('scf')
oeprop('DIPOLE', 'QUADRUPOLE', 'MULLIKEN_CHARGES')
f=open( 'psi4out.xyz', 'w' )
f.write( "21  " )
f.write( str(ee) + "\n" )
f.write( MOL.save_string_xyz() )
f.close()
--------------------------------------------------------------------------

    Molecular point group: c1
  Charge       = 0
  Multiplicity = 1
  Basis Set: 6-31G*
  Basis Set:
  @DF-RHF Final Energy:  -310.21263112398441
    Total Energy =                       -310.2126311239845791
    Molecular point group: c1
  Basis Set: 6-31G*
  Basis Set:
  Basis Set: 6-31G*
  Basis Set:
  @DF-RHF Final Energy:  -310.21260000523444
    Total Energy =                       -310.2126000052342079
  Basis Set: 6-31G*
  Basis Set:
  Basis Set: 6-31G*
  Basis Set:
  @DF-RHF Final Energy:  -310.21268978129802
    Total Energy =                       -310.2126897812978541
  Basis Set: 6-31G*
  Basis Set:
  Charge       = 0
  Multiplicity = 1
  Basis Set: 6-31G*
  Basis Set:

    Orbital Energies (a.u.)
    -----------------------

    Doubly Occupied:

       1A    -20.551824     2A    -11.267049     3A    -11.215671
       4A    -11.215114     5A    -11.213589     6A    -11.210618
       7A    -11.208279     8A     -1.358646     9A     -1.086137
      10A     -1.033264    11A     -0.954611    12A     -0.874547
      13A     -0.806666    14A     -0.780621    15A     -0.692450
      16A     -0.661423    17A     -0.620592    18A     -0.609281
      19A     -0.586364    20A     -0.568318    21A     -0.536843
      22A     -0.519888    23A     -0.510214    24A     -0.486835
      25A     -0.479604    26A     -0.461827    27A     -0.455553
      28A     -0.442661    29A     -0.433980

  @DF-RHF Final Energy:  -310.21268950127109

   => Energetics <=

    Nuclear Repulsion Energy =            312.2218668402979915
    One-Electron Energy =               -1039.1841715052173640
    Two-Electron Energy =                 416.7496151636485138
    DFT Exchange-Correlation Energy =       0.0000000000000000
    Empirical Dispersion Energy =           0.0000000000000000
    PCM Polarization Energy =               0.0000000000000000
    EFP Energy =                            0.0000000000000000
    Total Energy =                       -310.2126895012709156
    Molecular point group: c1
  Basis Set: 6-31G*
  Basis Set:

  -Total Gradient:
     Atom            X                  Y                   Z
    ------   -----------------  -----------------  -----------------
       1        0.000001779897     0.000004077470    -0.000004183659
       2        0.000005320510     0.000000448749    -0.000009178102
       3        0.000007370603     0.000028636719    -0.000041682948
       4       -0.000014271903     0.000027323588    -0.000021336911
       5       -0.000003997633     0.000024264036     0.000011386955
       6        0.000005744436    -0.000023293480    -0.000015973733
       7       -0.000003921230    -0.000036664644     0.000049937459
       8        0.000009173871    -0.000040252048     0.000003640189
       9       -0.000009467532     0.000020914968     0.000038530992
      10        0.000588357096    -0.001711650846    -0.000241663297
      11       -0.000018635044     0.000013064173     0.000054230940
      12       -0.000015777804    -0.000022794965     0.000022330393
      13       -0.000578626450     0.001074643354     0.000842101382
      14       -0.000339433134     0.001106284963    -0.000132070741
      15       -0.000023049112     0.000079336445     0.000038467966
      16        0.000377849718    -0.000573467448    -0.000601898651
      17        0.000056722147     0.000035907970     0.000002442859
      18       -0.000008667482    -0.000026833221    -0.000009147441
      19       -0.000048845192     0.000001032193     0.000034578663
      20       -0.000003706273     0.000031504680     0.000004492671
      21        0.000016080512    -0.000012482658    -0.000025004985

  **** Optimization is complete! (in 4 steps) ****
    Final optimized geometry and variables:
    Molecular point group: c1

    Geometry (in Angstrom), charge = 0, multiplicity = 1:

    H           -4.235511824291     0.581479239399     0.027216747293
    O           -3.518189622878     0.014675149467    -0.217934238387
    C           -2.309522467089     0.550776744480     0.255695437382
    C           -1.183779098217    -0.382027852621    -0.154530046914
    H           -2.141684926369     1.543373241688    -0.160165896789
    H           -2.333803058713     0.651366331356     1.339936533501
    C            0.190636328863     0.104014294987     0.308494263149
    H           -1.200539227318    -0.482777409921    -1.236290353643
    H           -1.390227393080    -1.367500605935     0.253906418910
    C            1.323199157458    -0.835674431470    -0.116434737851
    H            0.369550051703     1.101233587726    -0.086855132801
    H            0.196086243902     0.199173540703     1.393422856884
    C            2.716563429578    -0.396328666356     0.349975041623
    H            1.320438978410    -0.925062121933    -1.201362675468
    H            1.115926738699    -1.828427439275     0.275977955337
    C            3.274739434403     0.818777619446    -0.393244342208
    H            3.405015096783    -1.227011217201     0.215090806582
    H            2.693726023867    -0.193468449585     1.418647764321
    H            3.319167852379     0.632081519314    -1.462621484364
    H            2.668937155386     1.705736791069    -0.237679857018
    H            4.280887385118     1.049358162881    -0.056627857053

  Mulliken Charges: (a.u.)
   Center  Symbol    Alpha    Beta     Spin     Total
       1     H     0.28118  0.28118  0.00000  0.43764
       2     O     4.37179  4.37179  0.00000 -0.74358
       3     C     2.98973  2.98973  0.00000  0.02055
       4     C     3.15896  3.15896  0.00000 -0.31793
       5     H     0.43294  0.43294  0.00000  0.13411
       6     H     0.43286  0.43286  0.00000  0.13428
       7     C     3.16161  3.16161  0.00000 -0.32323
       8     H     0.41478  0.41478  0.00000  0.17044
       9     H     0.41488  0.41488  0.00000  0.17023
      10     C     3.15199  3.15199  0.00000 -0.30397
      11     H     0.42208  0.42208  0.00000  0.15584
      12     H     0.42391  0.42391  0.00000  0.15218
      13     C     3.15317  3.15317  0.00000 -0.30634
      14     H     0.42288  0.42288  0.00000  0.15424
      15     H     0.42066  0.42066  0.00000  0.15868
      16     C     3.24070  3.24070  0.00000 -0.48141
      17     H     0.42057  0.42057  0.00000  0.15886
      18     H     0.42333  0.42333  0.00000  0.15333
      19     H     0.42166  0.42166  0.00000  0.15668
      20     H     0.42103  0.42103  0.00000  0.15795
      21     H     0.41928  0.41928  0.00000  0.16143

   Total alpha = 29.00000, Total beta = 29.00000, Total charge = -0.00000
