                              Psi4 1.0.54 Driver

  ==> Input File <==

--------------------------------------------------------------------------
set {
	reference rhf
	basis cc-pvtz
}

set_num_threads( 4 )
memory 2 gb

molecule MOL {
0 1

H	 -2.925565	 0.180387	 2.091277
C	 -1.952408	 0.033679	 1.665181
C	 -1.622372	 -1.170916	 1.060317
C	 -1.011035	 1.035565	 1.708961
H	 -2.344154	 -1.964425	 1.016652
C	 -0.376716	 -1.363152	 0.513134
H	 -1.247917	 1.974451	 2.172716
C	 0.251855	 0.858181	 1.161190
H	 -0.111685	 -2.289940	 0.043569
C	 0.570713	 -0.345925	 0.560742
H	 0.961935	 1.657376	 1.211541
O	 1.760432	 -0.625184	 0.000000
C	 2.773565	 0.334879	 0.000000
H	 2.728295	 0.960928	 -0.884150
H	 3.706387	 -0.206610	 0.000000
H	 2.728295	 0.960928	 0.884150

	symmetry c1
}
set optking {
	frozen_dihedral = ("
		10 12 13 14
	")
}

ee,wfn = optimize('scf', return_wfn=True)
oeprop( wfn, 'DIPOLE', 'QUADRUPOLE', 'MULLIKEN_CHARGES')
f=open( 'psi4out.xyz', 'w' )
f.write( "16  " )
f.write( str(ee) + "\n" )
f.write( MOL.save_string_xyz() )
f.close()
--------------------------------------------------------------------------

    Molecular point group: c1
  Charge       = 0
  Multiplicity = 1
  Basis Set: CC-PVTZ
  Basis Set:
  @DF-RHF Final Energy:  -344.70037190320494
    Total Energy =                       -344.7003719032048821
    Molecular point group: c1
  Basis Set: CC-PVTZ
  Basis Set:
  Basis Set: CC-PVTZ
  Basis Set:
  @DF-RHF Final Energy:  -344.70044978602937
    Total Energy =                       -344.7004497860295942
  Basis Set: CC-PVTZ
  Basis Set:
  Basis Set: CC-PVTZ
  Basis Set:
  @DF-RHF Final Energy:  -344.70178846287274
    Total Energy =                       -344.7017884628729689
  Basis Set: CC-PVTZ
  Basis Set:
  Basis Set: CC-PVTZ
  Basis Set:
  @DF-RHF Final Energy:  -344.70195796875009
    Total Energy =                       -344.7019579687500936
  Basis Set: CC-PVTZ
  Basis Set:
  Basis Set: CC-PVTZ
  Basis Set:
  @DF-RHF Final Energy:  -344.70202897014246
    Total Energy =                       -344.7020289701422371
  Basis Set: CC-PVTZ
  Basis Set:
  Basis Set: CC-PVTZ
  Basis Set:
  @DF-RHF Final Energy:  -344.70203178589855
    Total Energy =                       -344.7020317858989529
  Basis Set: CC-PVTZ
  Basis Set:
  Charge       = 0
  Multiplicity = 1
  Basis Set: CC-PVTZ
  Basis Set:

    Orbital Energies (a.u.)
    -----------------------

    Doubly Occupied:

       1A    -20.577929     2A    -11.293066     3A    -11.277935
       4A    -11.231337     5A    -11.230018     6A    -11.222039
       7A    -11.218123     8A    -11.217384     9A     -1.416987
      10A     -1.151004    11A     -1.025086    12A     -1.016811
      13A     -0.943375    14A     -0.835054    15A     -0.808381
      16A     -0.724851    17A     -0.667295    18A     -0.666594
      19A     -0.658582    20A     -0.618501    21A     -0.590856
      22A     -0.580998    23A     -0.529012    24A     -0.521265
      25A     -0.511895    26A     -0.481776    27A     -0.462375
      28A     -0.339627    29A     -0.310896

  @DF-RHF Final Energy:  -344.70203241795411

   => Energetics <=

    Nuclear Repulsion Energy =            348.6763269220440407
    One-Electron Energy =               -1158.4986113574586852
    Two-Electron Energy =                 465.1202520174606434
    DFT Exchange-Correlation Energy =       0.0000000000000000
    Empirical Dispersion Energy =           0.0000000000000000
    PCM Polarization Energy =               0.0000000000000000
    EFP Energy =                            0.0000000000000000
    Total Energy =                       -344.7020324179540012
    Molecular point group: c1
  Basis Set: CC-PVTZ
  Basis Set:

  -Total Gradient:
     Atom            X                  Y                   Z
    ------   -----------------  -----------------  -----------------
       1       -0.000017128025    -0.000012805554    -0.000000720751
       2        0.000049623259     0.000139526393    -0.000017754960
       3        0.000069340210    -0.000094069760    -0.000016493679
       4       -0.000149644499    -0.000054987351     0.000084998689
       5       -0.000006944877     0.000015679817     0.000003667390
       6       -0.000077415750    -0.000030558288     0.000059562385
       7        0.000010414557    -0.000004156153    -0.000009770653
       8        0.000124286021    -0.000076502873    -0.000052632698
       9        0.000007409092     0.000002525934    -0.000002006519
      10        0.000822047538    -0.001071290819     0.002176051752
      11        0.000010613762     0.000002106490     0.000013605107
      12       -0.000776027246     0.001199214670    -0.003827609041
      13       -0.001858344356     0.001828506894     0.003242771581
      14        0.001818793132    -0.001869511586    -0.001641900311
      15       -0.000035244518    -0.000011735754    -0.000001546290
      16        0.000008221701     0.000038057939    -0.000010222003

  **** Optimization is complete! (in 7 steps) ****
    Final optimized geometry and variables:
    Molecular point group: c1

    Geometry (in Angstrom), charge = 0, multiplicity = 1:

    H           -3.045786870455     0.250184576272     1.356934803882
    C           -2.081229964041     0.130560940075     0.903523231760
    C           -1.618242404192    -1.129738966827     0.557169571119
    C           -1.285020052206     1.225410770384     0.653286634687
    H           -2.226628504812    -1.994309370358     0.743966686532
    C           -0.380513849781    -1.288596096474    -0.021494897532
    H           -1.630207779254     2.209571725673     0.908058044500
    C           -0.037069234441     1.082273069621     0.066053599459
    H           -0.012115354444    -2.258787627227    -0.291043401562
    C            0.419936630288    -0.179980997730    -0.267123543625
    H            0.555415014240     1.951934302564    -0.133574416928
    O            1.604910719989    -0.419830874374    -0.858516856831
    C            2.639019044211     0.518457786842    -0.772796587123
    H            2.595070016327     1.223979648566    -1.595022532497
    H            3.563721390699    -0.033653036532    -0.854334566631
    H            2.628560709576     1.046853692898     0.171107918323

  Mulliken Charges: (a.u.)
   Center  Symbol    Alpha    Beta     Spin     Total
       1     H     0.42437  0.42437  0.00000  0.15126
       2     C     3.09974  3.09974  0.00000 -0.19948
       3     C     3.05882  3.05882  0.00000 -0.11764
       4     C     3.06276  3.06276  0.00000 -0.12551
       5     H     0.42292  0.42292  0.00000  0.15415
       6     C     3.11013  3.11013  0.00000 -0.22026
       7     H     0.42318  0.42318  0.00000  0.15363
       8     C     3.13794  3.13794  0.00000 -0.27589
       9     H     0.42024  0.42024  0.00000  0.15952
      10     C     2.85441  2.85441  0.00000  0.29117
      11     H     0.42299  0.42299  0.00000  0.15403
      12     O     4.15551  4.15551  0.00000 -0.31103
      13     C     3.04297  3.04297  0.00000 -0.08594
      14     H     0.45856  0.45856  0.00000  0.08288
      15     H     0.44205  0.44205  0.00000  0.11590
      16     H     0.46339  0.46339  0.00000  0.07322

   Total alpha = 29.00000, Total beta = 29.00000, Total charge =  0.00000

*** Psi4 exiting successfully. Buy a developer a beer!
