                              Psi4 1.0.54 Driver

  ==> Input File <==

--------------------------------------------------------------------------
set {
	reference rhf
	basis cc-pvtz
}

set_num_threads( 4 )
memory 2 gb

molecule MOL {
0 1

O	 3.219313	 0.959291	 -0.614106
C	 2.698710	 0.058177	 -0.050237
C	 1.246364	 -0.005813	 0.348416
O	 3.344101	 -1.038700	 0.312317
C	 0.453207	 1.232821	 -0.049003
H	 0.839270	 -0.907818	 -0.092281
H	 1.216683	 -0.160521	 1.422434
C	 -0.998367	 1.217982	 0.432195
H	 0.481498	 1.345443	 -1.127236
H	 0.951413	 2.105557	 0.354893
C	 -1.882951	 0.151251	 -0.211235
H	 -1.429490	 2.193659	 0.228843
H	 -1.019755	 1.099323	 1.513279
C	 -1.825025	 0.168633	 -1.736401
H	 -1.577542	 -0.828860	 0.147902
H	 -2.914797	 0.282608	 0.101134
C	 -2.709611	 -0.889056	 -2.390294
H	 -0.796573	 0.023319	 -2.058130
H	 -2.118881	 1.152182	 -2.095768
C	 -2.644969	 -0.866578	 -3.913807
H	 -2.417038	 -1.872409	 -2.032329
H	 -3.738358	 -0.743495	 -2.071942
H	 -3.283665	 -1.628507	 -4.345682
H	 -1.634064	 -1.044611	 -4.265210
H	 -2.964859	 0.093549	 -4.305003
C	 4.720529	 -1.114346	 0.001449
H	 4.874321	 -1.055557	 -1.065852
H	 5.057824	 -2.067950	 0.373977
H	 5.264321	 -0.313596	 0.480350

	symmetry c1
}
set optking {
	frozen_dihedral = ("
		15 11 8 5
	")
}

ee,wfn = optimize('scf', return_wfn=True)
oeprop( wfn, 'DIPOLE', 'QUADRUPOLE', 'MULLIKEN_CHARGES')
f=open( 'psi4out.xyz', 'w' )
f.write( "29  " )
f.write( str(ee) + "\n" )
f.write( MOL.save_string_xyz() )
f.close()
--------------------------------------------------------------------------

    Molecular point group: c1
  Charge       = 0
  Multiplicity = 1
  Basis Set: CC-PVTZ
  Basis Set:
  @DF-RHF Final Energy:  -501.22162016552215
    Total Energy =                       -501.2216201655223813
    Molecular point group: c1
  Basis Set: CC-PVTZ
  Basis Set:
  Basis Set: CC-PVTZ
  Basis Set:
  @DF-RHF Final Energy:  -501.22139290751340
    Total Energy =                       -501.2213929075134047
  Basis Set: CC-PVTZ
  Basis Set:
  Basis Set: CC-PVTZ
  Basis Set:
  @DF-RHF Final Energy:  -501.22289337680058
    Total Energy =                       -501.2228933768009256
  Basis Set: CC-PVTZ
  Basis Set:
  Basis Set: CC-PVTZ
  Basis Set:
  @DF-RHF Final Energy:  -501.22302889185653
    Total Energy =                       -501.2230288918565293
  Basis Set: CC-PVTZ
  Basis Set:
  Basis Set: CC-PVTZ
  Basis Set:
  @DF-RHF Final Energy:  -501.22223800612244
    Total Energy =                       -501.2222380061218701
  Basis Set: CC-PVTZ
  Basis Set:
  Basis Set: CC-PVTZ
  Basis Set:
  @DF-RHF Final Energy:  -501.22305186089670
    Total Energy =                       -501.2230518608967031
  Basis Set: CC-PVTZ
  Basis Set:
  Basis Set: CC-PVTZ
  Basis Set:
  @DF-RHF Final Energy:  -501.22305845614324
    Total Energy =                       -501.2230584561427804
  Basis Set: CC-PVTZ
  Basis Set:
  Charge       = 0
  Multiplicity = 1
  Basis Set: CC-PVTZ
  Basis Set:

    Orbital Energies (a.u.)
    -----------------------

    Doubly Occupied:

       1A    -20.596100     2A    -20.533951     3A    -11.364331
       4A    -11.278343     5A    -11.233004     6A    -11.216340
       7A    -11.215732     8A    -11.214170     9A    -11.213997
      10A    -11.212464    11A    -11.206983    12A     -1.471976
      13A     -1.365566    14A     -1.099718    15A     -1.066411
      16A     -1.019995    17A     -0.976923    18A     -0.930142
      19A     -0.868097    20A     -0.807615    21A     -0.781927
      22A     -0.759734    23A     -0.703900    24A     -0.685888
      25A     -0.675466    26A     -0.648097    27A     -0.635123
      28A     -0.604571    29A     -0.595763    30A     -0.579188
      31A     -0.565078    32A     -0.558650    33A     -0.536456
      34A     -0.528922    35A     -0.524468    36A     -0.509687
      37A     -0.490881    38A     -0.482404    39A     -0.472169
      40A     -0.460544    41A     -0.458325    42A     -0.454599
      43A     -0.442441    44A     -0.439938

  @DF-RHF Final Energy:  -501.22305910237060

   => Energetics <=

    Nuclear Repulsion Energy =            626.6164587666366970
    One-Electron Energy =               -1924.7068802806147687
    Two-Electron Energy =                 796.8673624116071323
    DFT Exchange-Correlation Energy =       0.0000000000000000
    Empirical Dispersion Energy =           0.0000000000000000
    PCM Polarization Energy =               0.0000000000000000
    EFP Energy =                            0.0000000000000000
    Total Energy =                       -501.2230591023709394
    Molecular point group: c1
  Basis Set: CC-PVTZ
  Basis Set:

  -Total Gradient:
     Atom            X                  Y                   Z
    ------   -----------------  -----------------  -----------------
       1       -0.000030565159    -0.000026936675     0.000040836868
       2        0.000020686571    -0.000001321348    -0.000042087055
       3        0.000013071817     0.000009177053    -0.000018001578
       4       -0.000003097315    -0.000017646524     0.000008602762
       5       -0.000348584465     0.000934904488    -0.001042445255
       6        0.000004808099     0.000002040695     0.000008496659
       7        0.000004499200     0.000014331600     0.000004515380
       8        0.000168688054    -0.001320292278     0.001878194243
       9        0.000000548036     0.000014549684     0.000001624637
      10        0.000003130597    -0.000014667717     0.000009714959
      11        0.001498278827     0.000233772053    -0.002227777685
      12       -0.000004798851    -0.000006745000    -0.000012112016
      13       -0.000000793140     0.000020513043     0.000006428880
      14       -0.000065327907     0.000035381866    -0.000034607482
      15       -0.001304487951     0.000112455144     0.001448564940
      16        0.000015747086     0.000002270909    -0.000005637989
      17       -0.000010966357     0.000011580386    -0.000005555114
      18       -0.000002129936    -0.000005040209    -0.000004612278
      19       -0.000005805516     0.000002797949    -0.000008657369
      20        0.000021394294    -0.000017987191    -0.000000485631
      21       -0.000004980434    -0.000001017473     0.000001124508
      22        0.000006972189     0.000012729100    -0.000001205299
      23        0.000006629825    -0.000004528536     0.000000470338
      24        0.000002277706     0.000003577959    -0.000008603519
      25       -0.000004865069    -0.000004570649     0.000008860904
      26        0.000005806305     0.000013190982    -0.000004680439
      27        0.000009577507     0.000002229528     0.000009029222
      28       -0.000000058143    -0.000001033489    -0.000000283591
      29        0.000004344136    -0.000003715346    -0.000009711996

  **** Optimization is complete! (in 8 steps) ****
    Final optimized geometry and variables:
    Molecular point group: c1

    Geometry (in Angstrom), charge = 0, multiplicity = 1:

    O            2.714728216212     1.047752330015     0.252646704355
    C            2.177478136462     0.105688560402     0.726825870948
    C            0.708361818020     0.003733055749     1.048628558592
    O            2.816587739357    -1.009260582511     1.042432274051
    C           -0.076392086725     1.265868894611     0.714054800420
    H            0.329453164017    -0.861688679630     0.517388281811
    H            0.627614530501    -0.239074542373     2.103437713251
    C           -1.550934605987     1.194873467871     1.117435300472
    H            0.018019839699     1.478133217318    -0.343101548731
    H            0.382025674854     2.104260086110     1.224268574606
    C           -2.401683432676     0.118565766765     0.434489561007
    H           -1.995630441694     2.164383634057     0.911879367090
    H           -1.618859855597     1.056566334542     2.193226016772
    C           -2.392451501096     0.149865071805    -1.091905602435
    H           -2.109578156799    -0.867785755755     0.785237625966
    H           -3.425308235852     0.248542342460     0.775629575512
    C           -3.370072579361    -0.843839413208    -1.714149630581
    H           -1.394812586959    -0.060019653536    -1.465790055810
    H           -2.637721394700     1.153679844303    -1.431768000309
    C           -3.353992466482    -0.826234389388    -3.238977622143
    H           -3.135220404152    -1.845367909850    -1.363527628099
    H           -4.374783779099    -0.626938829271    -1.362194932638
    H           -4.058853780357    -1.541228000968    -3.647582183061
    H           -2.370439021494    -1.075118238085    -3.623461784531
    H           -3.618140352421     0.154012454200    -3.621648927747
    C            4.206900800787    -1.052908453049     0.793122965213
    H            4.410289227305    -0.918172505721    -0.258886005973
    H            4.536406470866    -2.027831174771     1.113864711325
    H            4.719025883410    -0.283823552839     1.352113956187

  Mulliken Charges: (a.u.)
   Center  Symbol    Alpha    Beta     Spin     Total
       1     O     4.19672  4.19672  0.00000 -0.39343
       2     C     2.80484  2.80484  0.00000  0.39031
       3     C     3.10173  3.10173  0.00000 -0.20345
       4     O     4.14727  4.14727  0.00000 -0.29455
       5     C     3.10149  3.10149  0.00000 -0.20298
       6     H     0.43942  0.43942  0.00000  0.12116
       7     H     0.43836  0.43836  0.00000  0.12328
       8     C     3.10825  3.10825  0.00000 -0.21649
       9     H     0.44249  0.44249  0.00000  0.11502
      10     H     0.43603  0.43603  0.00000  0.12794
      11     C     3.10984  3.10984  0.00000 -0.21969
      12     H     0.44497  0.44497  0.00000  0.11005
      13     H     0.44740  0.44740  0.00000  0.10519
      14     C     3.08900  3.08900  0.00000 -0.17800
      15     H     0.45047  0.45047  0.00000  0.09906
      16     H     0.44378  0.44378  0.00000  0.11245
      17     C     3.08423  3.08423  0.00000 -0.16845
      18     H     0.45373  0.45373  0.00000  0.09254
      19     H     0.45179  0.45179  0.00000  0.09643
      20     C     3.14983  3.14983  0.00000 -0.29967
      21     H     0.45473  0.45473  0.00000  0.09054
      22     H     0.45354  0.45354  0.00000  0.09291
      23     H     0.44830  0.44830  0.00000  0.10340
      24     H     0.45515  0.45515  0.00000  0.08970
      25     H     0.45474  0.45474  0.00000  0.09053
      26     C     3.03803  3.03803  0.00000 -0.07606
      27     H     0.45439  0.45439  0.00000  0.09122
      28     H     0.44525  0.44525  0.00000  0.10951
      29     H     0.45423  0.45423  0.00000  0.09154

   Total alpha = 44.00000, Total beta = 44.00000, Total charge = -0.00000

*** Psi4 exiting successfully. Buy a developer a beer!
