  ==> Input File <==

--------------------------------------------------------------------------
set {
	reference rhf
	basis cc-pvtz
}

set_num_threads( 4 )
memory 2 gb

molecule MOL {
0 1

O	 0.078314	 1.254444	 0.111770
C	 0.029490	 0.077183	 0.000078
C	 -1.232113	 -0.748027	 0.000015
O	 1.102259	 -0.683171	 -0.142260
C	 -2.501422	 0.088592	 -0.000052
H	 -1.188777	 -1.400384	 -0.865133
H	 -1.188857	 -1.400312	 0.865225
H	 -2.548170	 0.725504	 -0.873205
H	 -3.371613	 -0.556398	 -0.000040
H	 -2.548215	 0.725571	 0.873047
C	 2.358668	 -0.036033	 -0.159356
H	 2.416323	 0.662902	 -0.980575
H	 3.093365	 -0.815219	 -0.281483
H	 2.527201	 0.493552	 0.766594

	symmetry c1
}
set optking {
	frozen_dihedral = ("
		4 2 3 6
	")
}

ee = optimize('scf')
oeprop('DIPOLE', 'QUADRUPOLE', 'MULLIKEN_CHARGES')
f=open( 'psi4out.xyz', 'w' )
f.write( "14  " )
f.write( str(ee) + "\n" )
f.write( MOL.save_string_xyz() )
f.close()
--------------------------------------------------------------------------

    Molecular point group: c1
  Charge       = 0
  Multiplicity = 1
  Basis Set: CC-PVTZ
  Basis Set:
  @DF-RHF Final Energy:  -305.98765793747992
    Total Energy =                       -305.9876579374798666
    Molecular point group: c1
  Basis Set: CC-PVTZ
  Basis Set:
  Basis Set: CC-PVTZ
  Basis Set:
  @DF-RHF Final Energy:  -305.98765847031569
    Total Energy =                       -305.9876584703155231
  Basis Set: CC-PVTZ
  Basis Set:
  Basis Set: CC-PVTZ
  Basis Set:
  @DF-RHF Final Energy:  -305.98763549157951
    Total Energy =                       -305.9876354915795673
  Basis Set: CC-PVTZ
  Basis Set:
  Basis Set: CC-PVTZ
  Basis Set:
  @DF-RHF Final Energy:  -305.98767532996965
    Total Energy =                       -305.9876753299696475
  Basis Set: CC-PVTZ
  Basis Set:
  Charge       = 0
  Multiplicity = 1
  Basis Set: CC-PVTZ
  Basis Set:

    Orbital Energies (a.u.)
    -----------------------

    Doubly Occupied:

       1A    -20.597251     2A    -20.534917     3A    -11.365211
       4A    -11.279141     5A    -11.237198     6A    -11.214948
       7A     -1.473119     8A     -1.366723     9A     -1.065463
      10A     -0.981266    11A     -0.878987    12A     -0.771091
      13A     -0.702925    14A     -0.686080    15A     -0.675531
      16A     -0.621569    17A     -0.604225    18A     -0.546061
      19A     -0.538601    20A     -0.523037    21A     -0.516030
      22A     -0.497142    23A     -0.461340    24A     -0.442598

  @DF-RHF Final Energy:  -305.98767548705132

   => Energetics <=

    Nuclear Repulsion Energy =            247.5680786921736569
    One-Electron Energy =                -907.9505997261870789
    Two-Electron Energy =                 354.3948455469618466
    DFT Exchange-Correlation Energy =       0.0000000000000000
    Empirical Dispersion Energy =           0.0000000000000000
    PCM Polarization Energy =               0.0000000000000000
    EFP Energy =                            0.0000000000000000
    Total Energy =                       -305.9876754870515470
    Molecular point group: c1
  Basis Set: CC-PVTZ
  Basis Set:

  -Total Gradient:
     Atom            X                  Y                   Z
    ------   -----------------  -----------------  -----------------
       1       -0.000001629336    -0.000005595966    -0.000004612832
       2        0.000057234185    -0.000077778848     0.000426744931
       3       -0.000199759270     0.000306493517    -0.000315378988
       4       -0.000017501856     0.000023663102    -0.000308588480
       5        0.000002697144    -0.000000144269    -0.000011289127
       6        0.000159705528    -0.000238244223     0.000192089045
       7        0.000000644699    -0.000005767336     0.000002277678
       8       -0.000001489990     0.000000902662     0.000001062346
       9        0.000000820373    -0.000000452157     0.000000221916
      10        0.000002507529    -0.000001571243     0.000001286002
      11       -0.000003623933    -0.000003265353     0.000027268629
      12       -0.000008255595    -0.000001906007    -0.000003790318
      13       -0.000000275201     0.000000204232    -0.000003696371
      14        0.000008925723     0.000003461890    -0.000003594432

  **** Optimization is complete! (in 5 steps) ****
    Final optimized geometry and variables:
    Molecular point group: c1

    Geometry (in Angstrom), charge = 0, multiplicity = 1:

    O            0.078488519657     1.253218574045     0.136903305550
    C            0.030273007227     0.075885766806     0.025287481636
    C           -1.230989563084    -0.749576332285     0.029672167617
    O            1.103537613479    -0.684379759417    -0.113870411635
    C           -2.500529672325     0.086556781891     0.042262975944
    H           -1.194140769481    -1.408257173714    -0.829990125195
    H           -1.179741345930    -1.396315359893     0.899537741437
    H           -2.559006094606     0.719567370108    -0.833423451280
    H           -3.370420714523    -0.558656318252     0.055340450240
    H           -2.535770653798     0.727165391826     0.912805830454
    C            2.360549975268    -0.038164848063    -0.115471922568
    H            2.425684147229     0.666334574554    -0.931291784812
    H            3.095517676968    -0.817218853817    -0.236773734339
    H            2.521705846371     0.484819268102     0.815537589908

  Mulliken Charges: (a.u.)
   Center  Symbol    Alpha    Beta     Spin     Total
       1     O     4.19646  4.19646  0.00000 -0.39293
       2     C     2.80269  2.80269  0.00000  0.39462
       3     C     3.09422  3.09422  0.00000 -0.18845
       4     O     4.14702  4.14702  0.00000 -0.29403
       5     C     3.13987  3.13987  0.00000 -0.27973
       6     H     0.44034  0.44034  0.00000  0.11932
       7     H     0.44221  0.44221  0.00000  0.11559
       8     H     0.44955  0.44955  0.00000  0.10090
       9     H     0.45031  0.45031  0.00000  0.09937
      10     H     0.44705  0.44705  0.00000  0.10590
      11     C     3.03618  3.03618  0.00000 -0.07236
      12     H     0.45425  0.45425  0.00000  0.09151
      13     H     0.44547  0.44547  0.00000  0.10906
      14     H     0.45438  0.45438  0.00000  0.09123

   Total alpha = 24.00000, Total beta = 24.00000, Total charge = -0.00000
