  ==> Input File <==

--------------------------------------------------------------------------
set {
	reference rhf
	basis 6-31G*
}

set_num_threads( 4 )
memory 2 gb

molecule MOL {
0 1

H	 3.119105	 -0.773206	 -0.920323
N	 3.092854	 -0.246221	 -0.068770
C	 1.865559	 0.531981	 0.018834
H	 3.892164	 0.358633	 -0.078012
C	 0.645745	 -0.382037	 -0.029944
H	 1.841966	 1.207024	 -0.831236
H	 1.815756	 1.155410	 0.915079
C	 -0.679275	 0.379305	 0.025956
H	 0.698998	 -0.976915	 -0.937203
H	 0.693479	 -1.083846	 0.802235
C	 -1.903357	 -0.536963	 -0.023547
H	 -0.726309	 1.082987	 -0.803784
H	 -0.717680	 0.977832	 0.934877
C	 -3.225172	 0.228290	 0.028445
H	 -1.867824	 -1.134999	 -0.931459
H	 -1.860449	 -1.239604	 0.805977
H	 -3.313397	 0.915643	 -0.808262
H	 -4.073500	 -0.448134	 -0.008893
H	 -3.306061	 0.809945	 0.942516

	symmetry c1
}
set optking {
	frozen_dihedral = ("
		1 2 3 6
	")
}

ee = optimize('scf')
oeprop('DIPOLE', 'QUADRUPOLE', 'MULLIKEN_CHARGES')
f=open( 'psi4out.xyz', 'w' )
f.write( "19  " )
f.write( str(ee) + "\n" )
f.write( MOL.save_string_xyz() )
f.close()
--------------------------------------------------------------------------

    Molecular point group: c1
  Charge       = 0
  Multiplicity = 1
  Basis Set: 6-31G*
  Basis Set:
  @DF-RHF Final Energy:  -251.34938544417534
    Total Energy =                       -251.3493854441753683
    Molecular point group: c1
  Basis Set: 6-31G*
  Basis Set:
  Basis Set: 6-31G*
  Basis Set:
  @DF-RHF Final Energy:  -251.35141978951123
    Total Energy =                       -251.3514197895113398
  Basis Set: 6-31G*
  Basis Set:
  Basis Set: 6-31G*
  Basis Set:
  @DF-RHF Final Energy:  -251.35171635523781
    Total Energy =                       -251.3517163552378406
  Basis Set: 6-31G*
  Basis Set:
  Basis Set: 6-31G*
  Basis Set:
  @DF-RHF Final Energy:  -251.35171868664679
    Total Energy =                       -251.3517186866466773
  Basis Set: 6-31G*
  Basis Set:
  Basis Set: 6-31G*
  Basis Set:
  @DF-RHF Final Energy:  -251.35172169702500
    Total Energy =                       -251.3517216970252548
  Basis Set: 6-31G*
  Basis Set:
  Charge       = 0
  Multiplicity = 1
  Basis Set: 6-31G*
  Basis Set:

    Orbital Energies (a.u.)
    -----------------------

    Doubly Occupied:

       1A    -15.532269     2A    -11.239655     3A    -11.214139
       4A    -11.212980     5A    -11.209958     6A    -11.207630
       7A     -1.176529     8A     -1.073146     9A     -0.998537
      10A     -0.900252    11A     -0.813243    12A     -0.789617
      13A     -0.663916    14A     -0.642749    15A     -0.616821
      16A     -0.589174    17A     -0.564738    18A     -0.547910
      19A     -0.530935    20A     -0.498520    21A     -0.481134
      22A     -0.465246    23A     -0.461336    24A     -0.449613
      25A     -0.380693

  @DF-RHF Final Energy:  -251.35172197924828

   => Energetics <=

    Nuclear Repulsion Energy =            245.6691328516718613
    One-Electron Energy =                -825.5202307276587135
    Two-Electron Energy =                 328.4993758967383997
    DFT Exchange-Correlation Energy =       0.0000000000000000
    Empirical Dispersion Energy =           0.0000000000000000
    PCM Polarization Energy =               0.0000000000000000
    EFP Energy =                            0.0000000000000000
    Total Energy =                       -251.3517219792484525
    Molecular point group: c1
  Basis Set: 6-31G*
  Basis Set:

  -Total Gradient:
     Atom            X                  Y                   Z
    ------   -----------------  -----------------  -----------------
       1       -0.000237301040    -0.000315211326     0.000214756282
       2        0.000334315141     0.000512688423    -0.000185479837
       3       -0.000296765890    -0.000497560136    -0.000280572794
       4        0.000001677662    -0.000008230798    -0.000000231985
       5        0.000021385208     0.000034245879    -0.000002348095
       6        0.000182649939     0.000265816285     0.000239530824
       7       -0.000010528870    -0.000003391565     0.000014526246
       8       -0.000009493301    -0.000002147969    -0.000013447841
       9        0.000009539059     0.000020704732     0.000014854672
      10        0.000006070226    -0.000002772112     0.000006188567
      11       -0.000005277999     0.000003933421    -0.000008629115
      12        0.000011500222    -0.000006752605    -0.000006850549
      13       -0.000004878246     0.000001405901    -0.000008153475
      14       -0.000002076889    -0.000003678444     0.000020199903
      15       -0.000001992186     0.000007270888    -0.000004452678
      16        0.000002351394    -0.000007042161    -0.000005305901
      17        0.000003356084    -0.000005740999    -0.000000506559
      18       -0.000001161147     0.000000421694     0.000005271684
      19       -0.000003369363     0.000006040889     0.000000650649

  **** Optimization is complete! (in 6 steps) ****
    Final optimized geometry and variables:
    Molecular point group: c1

    Geometry (in Angstrom), charge = 0, multiplicity = 1:

    H            3.164530353935    -0.768689336674    -0.873094924974
    N            3.093325932093    -0.249590214377    -0.018611792983
    C            1.865690923081     0.532213766036     0.003080985098
    H            3.896827850536     0.346651586154     0.028359681731
    C            0.645823970913    -0.382090139533    -0.028186096137
    H            1.801250025810     1.253300545317    -0.815628689398
    H            1.858135045575     1.108010956859     0.923736301428
    C           -0.678856471655     0.379738935833     0.029339027270
    H            0.675541470721    -0.984616430286    -0.935641699168
    H            0.715972740886    -1.076079648093     0.804482605291
    C           -1.903095618410    -0.537187876136    -0.000140651174
    H           -0.734618389095     1.077235675379    -0.805055415286
    H           -0.707777334897     0.984854454554     0.934147757995
    C           -3.224396218999     0.227908887832     0.065185793087
    H           -1.879511875237    -1.139686433482    -0.905733839647
    H           -1.848811382355    -1.235636078664     0.831948410875
    H           -3.324132743378     0.910910407243    -0.773837166362
    H           -4.072886788333    -0.449019796212     0.042816519741
    H           -3.293255954236     0.814207133580     0.977205351917

  Mulliken Charges: (a.u.)
   Center  Symbol    Alpha    Beta     Spin     Total
       1     H     0.33539  0.33539  0.00000  0.32922
       2     N     3.92229  3.92229  0.00000 -0.84458
       3     C     3.05925  3.05925  0.00000 -0.11849
       4     H     0.33244  0.33244  0.00000  0.33512
       5     C     3.15255  3.15255  0.00000 -0.30509
       6     H     0.43491  0.43491  0.00000  0.13018
       7     H     0.42080  0.42080  0.00000  0.15839
       8     C     3.15476  3.15476  0.00000 -0.30952
       9     H     0.42778  0.42778  0.00000  0.14443
      10     H     0.41296  0.41296  0.00000  0.17407
      11     C     3.15090  3.15090  0.00000 -0.30181
      12     H     0.42472  0.42472  0.00000  0.15055
      13     H     0.42344  0.42344  0.00000  0.15312
      14     C     3.23933  3.23933  0.00000 -0.47866
      15     H     0.42330  0.42330  0.00000  0.15340
      16     H     0.42185  0.42185  0.00000  0.15630
      17     H     0.42225  0.42225  0.00000  0.15550
      18     H     0.41934  0.41934  0.00000  0.16131
      19     H     0.42173  0.42173  0.00000  0.15654

   Total alpha = 25.00000, Total beta = 25.00000, Total charge = -0.00000
