                              Psi4 1.0.54 Driver

  ==> Input File <==

--------------------------------------------------------------------------
set {
	reference rhf
	basis cc-pvtz
}

set_num_threads( 4 )
memory 2 gb

molecule MOL {
0 1

H	 0.117480	 -5.993521	 -1.100866
C	 0.418847	 -5.006569	 -0.770394
C	 -0.753094	 -4.032202	 -0.812979
H	 0.812281	 -5.102027	 0.236153
H	 1.229791	 -4.677473	 -1.411551
C	 -0.373485	 -2.631214	 -0.356801
H	 -1.561537	 -4.393729	 -0.187291
H	 -1.144390	 -3.984113	 -1.826463
N	 -1.510973	 -1.737353	 -0.386277
H	 -0.005711	 -2.674131	 0.664017
H	 0.456233	 -2.263585	 -0.967947
C	 -1.215959	 -0.382435	 0.027143
H	 -1.910919	 -1.730953	 -1.301329
C	 -2.451944	 0.502410	 -0.038737
H	 -0.852291	 -0.414397	 1.049836
H	 -0.416722	 0.066559	 -0.570101
C	 -3.752217	 -0.292550	 0.005776
H	 -2.407325	 1.093801	 -0.946480
H	 -2.431979	 1.206234	 0.790023
H	 -3.817783	 -0.982946	 -0.828547
H	 -4.612613	 0.364348	 -0.042306
H	 -3.830160	 -0.871666	 0.919868

	symmetry c1
}
set optking {
	frozen_dihedral = ("
		15 12 14 18
	")
}

ee,wfn = optimize('scf', return_wfn=True)
oeprop( wfn, 'DIPOLE', 'QUADRUPOLE', 'MULLIKEN_CHARGES')
f=open( 'psi4out.xyz', 'w' )
f.write( "22  " )
f.write( str(ee) + "\n" )
f.write( MOL.save_string_xyz() )
f.close()
--------------------------------------------------------------------------

    Molecular point group: c1
  Charge       = 0
  Multiplicity = 1
  Basis Set: CC-PVTZ
  Basis Set:
  @DF-RHF Final Energy:  -290.48085739563425
    Total Energy =                       -290.4808573956341320
    Molecular point group: c1
  Basis Set: CC-PVTZ
  Basis Set:
  Basis Set: CC-PVTZ
  Basis Set:
  @DF-RHF Final Energy:  -290.48062472066164
    Total Energy =                       -290.4806247206614103
  Basis Set: CC-PVTZ
  Basis Set:
  Basis Set: CC-PVTZ
  Basis Set:
  @DF-RHF Final Energy:  -290.48363286651266
    Total Energy =                       -290.4836328665127212
  Basis Set: CC-PVTZ
  Basis Set:
  Basis Set: CC-PVTZ
  Basis Set:
  @DF-RHF Final Energy:  -290.48376246268401
    Total Energy =                       -290.4837624626837851
  Basis Set: CC-PVTZ
  Basis Set:
  Basis Set: CC-PVTZ
  Basis Set:
  @DF-RHF Final Energy:  -290.48377412442494
    Total Energy =                       -290.4837741244251106
  Basis Set: CC-PVTZ
  Basis Set:
  Charge       = 0
  Multiplicity = 1
  Basis Set: CC-PVTZ
  Basis Set:

    Orbital Energies (a.u.)
    -----------------------

    Doubly Occupied:

       1A    -15.529102     2A    -11.236917     3A    -11.236759
       4A    -11.212251     5A    -11.212152     6A    -11.207893
       7A    -11.200865     8A     -1.208090     9A     -1.057707
      10A     -1.022339    11A     -0.927498    12A     -0.880464
      13A     -0.806108    14A     -0.788104    15A     -0.664490
      16A     -0.630952    17A     -0.618022    18A     -0.607035
      19A     -0.574685    20A     -0.566530    21A     -0.532333
      22A     -0.530761    23A     -0.504884    24A     -0.488499
      25A     -0.484100    26A     -0.470632    27A     -0.459515
      28A     -0.450783    29A     -0.360393

  @DF-RHF Final Energy:  -290.48377473392270

   => Energetics <=

    Nuclear Repulsion Energy =            318.3156057049825449
    One-Electron Energy =               -1022.6590417997144868
    Two-Electron Energy =                 413.8596613608092412
    DFT Exchange-Correlation Energy =       0.0000000000000000
    Empirical Dispersion Energy =           0.0000000000000000
    PCM Polarization Energy =               0.0000000000000000
    EFP Energy =                            0.0000000000000000
    Total Energy =                       -290.4837747339227008
    Molecular point group: c1
  Basis Set: CC-PVTZ
  Basis Set:

  -Total Gradient:
     Atom            X                  Y                   Z
    ------   -----------------  -----------------  -----------------
       1        0.000005433632    -0.000005361930     0.000000523494
       2       -0.000001879701    -0.000010746603    -0.000005813539
       3        0.000007042685     0.000003579860     0.000008960630
       4       -0.000002568514     0.000002254462    -0.000003309126
       5       -0.000002437700    -0.000000020271     0.000001472792
       6        0.000012496011     0.000001928036     0.000005384004
       7        0.000001201079    -0.000000278000    -0.000001810914
       8        0.000003471127     0.000000192871     0.000003131499
       9       -0.000018668603     0.000015790704     0.000021748368
      10        0.000002197133    -0.000006689253    -0.000005958789
      11       -0.000000245729    -0.000004001919     0.000001739295
      12       -0.004154043660    -0.005129568680     0.002369329226
      13        0.000004267070     0.000015309263    -0.000000048399
      14       -0.003252985752    -0.004655615563    -0.004233940030
      15        0.004009592128     0.005063179148    -0.001301634988
      16       -0.000008982099    -0.000007443243    -0.000009724180
      17        0.000012535585     0.000010204975    -0.000049432358
      18        0.003381717528     0.004702970624     0.003153447438
      19        0.000001861592     0.000003459281     0.000008125420
      20        0.000000523867     0.000008337233     0.000003827489
      21       -0.000001342712     0.000004777236     0.000018728976
      22        0.000000815031    -0.000012258237     0.000015253692

  **** Optimization is complete! (in 6 steps) ****
    Final optimized geometry and variables:
    Molecular point group: c1

    Geometry (in Angstrom), charge = 0, multiplicity = 1:

    H            1.608476592162    -4.050675100276    -0.769878266008
    C            1.871348866956    -3.063602720336    -0.408343372585
    C            0.686171111835    -2.109570180085    -0.507321025552
    H            2.205895613207    -3.167056277071     0.618492319115
    H            2.712667272186    -2.710601779963    -0.995338912957
    C            1.012002899344    -0.709616118338    -0.008413236491
    H           -0.151385139742    -2.495371586835     0.063095576038
    H            0.355881145592    -2.052484782443    -1.541844261633
    N           -0.138155160942     0.164489453298    -0.092320349212
    H            1.318677964814    -0.761806876086     1.031891181891
    H            1.869597185131    -0.317432105773    -0.563185751930
    C            0.119434612350     1.515445953128     0.353447763651
    H           -0.479743471583     0.177018456316    -1.030829694440
    C           -1.097752666865     2.451372882163     0.267157464287
    H            0.484393804430     1.489406576317     1.374817127922
    H            0.935036704276     1.974714827245    -0.212911142187
    C           -2.462512674970     1.791826336360     0.428302746670
    H           -1.049822746589     3.032095220085    -0.649260985638
    H           -0.981753979534     3.193189636884     1.052335069574
    H           -2.680803576840     1.102662078588    -0.376935010352
    H           -3.241520587860     2.546027133706     0.441240488884
    H           -2.518335949060     1.233000019399     1.354710057899

  Mulliken Charges: (a.u.)
   Center  Symbol    Alpha    Beta     Spin     Total
       1     H     0.44762  0.44762  0.00000  0.10477
       2     C     3.15383  3.15383  0.00000 -0.30765
       3     C     3.08073  3.08073  0.00000 -0.16146
       4     H     0.45470  0.45470  0.00000  0.09060
       5     H     0.45609  0.45609  0.00000  0.08781
       6     C     3.02064  3.02064  0.00000 -0.04128
       7     H     0.44887  0.44887  0.00000  0.10225
       8     H     0.45983  0.45983  0.00000  0.08034
       9     N     3.63877  3.63877  0.00000 -0.27754
      10     H     0.45927  0.45927  0.00000  0.08147
      11     H     0.47493  0.47493  0.00000  0.05013
      12     C     3.03594  3.03594  0.00000 -0.07187
      13     H     0.44300  0.44300  0.00000  0.11400
      14     C     3.09825  3.09825  0.00000 -0.19651
      15     H     0.45696  0.45696  0.00000  0.08609
      16     H     0.46747  0.46747  0.00000  0.06507
      17     C     3.13820  3.13820  0.00000 -0.27640
      18     H     0.45134  0.45134  0.00000  0.09731
      19     H     0.45291  0.45291  0.00000  0.09417
      20     H     0.45682  0.45682  0.00000  0.08637
      21     H     0.45147  0.45147  0.00000  0.09706
      22     H     0.45236  0.45236  0.00000  0.09527

   Total alpha = 29.00000, Total beta = 29.00000, Total charge = -0.00000

*** Psi4 exiting successfully. Buy a developer a beer!
