                              Psi4 1.0.54 Driver

  ==> Input File <==

--------------------------------------------------------------------------
set {
	reference rhf
	basis cc-pvtz
}

set_num_threads( 4 )
memory 2 gb

molecule MOL {
0 1

H	 -1.835082	 1.385983	 0.000069
C	 -1.300516	 0.441153	 -0.000028
O	 -0.006604	 0.654344	 -0.000106
O	 -1.828920	 -0.612308	 0.000113
C	 0.852093	 -0.482521	 -0.000161
C	 -0.017245	 -1.716990	 -0.032380
H	 1.470688	 -0.452991	 0.885518
H	 1.501904	 -0.429361	 -0.862068
H	 -0.665027	 -1.755037	 0.834166
H	 0.607251	 -2.602348	 -0.033206
H	 -0.633679	 -1.731276	 -0.922197

	symmetry c1
}
set optking {
	frozen_dihedral = ("
		7 5 3 2
	")
}

ee,wfn = optimize('scf', return_wfn=True)
oeprop( wfn, 'DIPOLE', 'QUADRUPOLE', 'MULLIKEN_CHARGES')
f=open( 'psi4out.xyz', 'w' )
f.write( "11  " )
f.write( str(ee) + "\n" )
f.write( MOL.save_string_xyz() )
f.close()
--------------------------------------------------------------------------

    Molecular point group: c1
  Charge       = 0
  Multiplicity = 1
  Basis Set: CC-PVTZ
  Basis Set:
  @DF-RHF Final Energy:  -266.86530261385258
    Total Energy =                       -266.8653026138526343
    Molecular point group: c1
  Basis Set: CC-PVTZ
  Basis Set:
  Basis Set: CC-PVTZ
  Basis Set:
  @DF-RHF Final Energy:  -266.78544029788668
    Total Energy =                       -266.7854402978867938
  Basis Set: CC-PVTZ
  Basis Set:
  Basis Set: CC-PVTZ
  Basis Set:
  @DF-RHF Final Energy:  -266.88064815788937
    Total Energy =                       -266.8806481578892544
  Basis Set: CC-PVTZ
  Basis Set:
  Basis Set: CC-PVTZ
  Basis Set:
  @DF-RHF Final Energy:  -266.91830632069912
    Total Energy =                       -266.9183063206991164
  Basis Set: CC-PVTZ
  Basis Set:
  @DF-RHF Final Energy:  -266.91868717794750
    Total Energy =                       -266.9186871779476178
  @DF-RHF Final Energy:  -266.90548619673586
    Total Energy =                       -266.9054861967356373
  @DF-RHF Final Energy:  -266.91886538707593
    Total Energy =                       -266.9188653870759822
  Basis Set: CC-PVTZ
  Basis Set:
  @DF-RHF Final Energy:  -266.92009766530043
    Total Energy =                       -266.9200976653006592
  Basis Set: CC-PVTZ
  Basis Set:
  Basis Set: CC-PVTZ
  Basis Set:
  @DF-RHF Final Energy:  -266.92012941264522
    Total Energy =                       -266.9201294126454513
  Basis Set: CC-PVTZ
  Basis Set:
  Basis Set: CC-PVTZ
  Basis Set:
  @DF-RHF Final Energy:  -266.92013615388055
    Total Energy =                       -266.9201361538804349
  Basis Set: CC-PVTZ
  Basis Set:
  Charge       = 0
  Multiplicity = 1
  Basis Set: CC-PVTZ
  Basis Set:

    Orbital Energies (a.u.)
    -----------------------

    Doubly Occupied:

       1A    -20.601942     2A    -20.540357     3A    -11.370803
       4A    -11.295998     5A    -11.219086     6A     -1.470728
       7A     -1.376146     8A     -1.050890     9A     -0.920355
      10A     -0.795907    11A     -0.718917    12A     -0.688459
      13A     -0.676787    14A     -0.605122    15A     -0.589460
      16A     -0.547376    17A     -0.530168    18A     -0.504893
      19A     -0.451216    20A     -0.448059

  @DF-RHF Final Energy:  -266.92013795320247

   => Energetics <=

    Nuclear Repulsion Energy =            182.3897349072721568
    One-Electron Energy =                -725.8144061741620590
    Two-Electron Energy =                 276.5045333136874888
    DFT Exchange-Correlation Energy =       0.0000000000000000
    Empirical Dispersion Energy =           0.0000000000000000
    PCM Polarization Energy =               0.0000000000000000
    EFP Energy =                            0.0000000000000000
    Total Energy =                       -266.9201379532023566
    Molecular point group: c1
  Basis Set: CC-PVTZ
  Basis Set:

  -Total Gradient:
     Atom            X                  Y                   Z
    ------   -----------------  -----------------  -----------------
       1        0.000010310303    -0.000004695894    -0.000031197794
       2       -0.000041927294    -0.000480515071    -0.000663732439
       3        0.000227015970     0.000705080222     0.001024051478
       4        0.000034202383    -0.000068495785     0.000023140068
       5       -0.000901038278    -0.000067866912     0.000179354229
       6       -0.000048837593    -0.000010218048    -0.000014314543
       7        0.000715727723    -0.000062664471    -0.000491159125
       8        0.000014467775    -0.000011074770    -0.000054164459
       9       -0.000016037682     0.000012426917     0.000032855846
      10        0.000007479653    -0.000017118183     0.000010476061
      11       -0.000001362967     0.000005141994    -0.000015309321

  **** Optimization is complete! (in 11 steps) ****
    Final optimized geometry and variables:
    Molecular point group: c1

    Geometry (in Angstrom), charge = 0, multiplicity = 1:

    H           -0.605676908621     1.713129197266    -1.406663840116
    C           -0.564986542904     0.890113821191    -0.698152613242
    O            0.691354021906     0.593362701840    -0.475888416722
    O           -1.527535263243     0.391498562646    -0.237639095882
    C            1.198668033534    -0.449194530274     0.364720849425
    C            0.223086732055    -1.401445391722     1.029188709627
    H            1.797297551048     0.055330613680     1.110213135188
    H            1.872520119885    -1.003836500062    -0.272830834736
    H           -0.435732832612    -0.901316170943     1.721199984262
    H            0.821096440027    -2.122066289782     1.577912148611
    H           -0.380093717081    -1.934884085254     0.310110066719

  Mulliken Charges: (a.u.)
   Center  Symbol    Alpha    Beta     Spin     Total
       1     H     0.44559  0.44559  0.00000  0.10882
       2     C     2.84703  2.84703  0.00000  0.30594
       3     O     4.14824  4.14824  0.00000 -0.29647
       4     O     4.19548  4.19548  0.00000 -0.39097
       5     C     2.97354  2.97354  0.00000  0.05292
       6     C     3.14913  3.14913  0.00000 -0.29826
       7     H     0.45290  0.45290  0.00000  0.09420
       8     H     0.45225  0.45225  0.00000  0.09549
       9     H     0.44099  0.44099  0.00000  0.11803
      10     H     0.45144  0.45144  0.00000  0.09712
      11     H     0.44340  0.44340  0.00000  0.11319

   Total alpha = 20.00000, Total beta = 20.00000, Total charge =  0.00000

*** Psi4 exiting successfully. Buy a developer a beer!
