  ==> Input File <==

--------------------------------------------------------------------------
set {
	reference rhf
	basis 6-31G*
}

set_num_threads( 4 )
memory 2 gb

molecule MOL {
0 1

H	 -2.646374	 -0.642757	 1.268656
C	 -2.083525	 -0.384536	 0.393091
O	 -0.807605	 -0.127164	 0.768327
F	 -2.118945	 -1.383102	 -0.486752
F	 -2.621877	 0.670592	 -0.209486
C	 0.084052	 0.273579	 -0.209957
C	 1.353033	 -0.546803	 -0.018071
Cl	 0.433844	 2.004619	 -0.074457
H	 -0.288836	 0.092657	 -1.202930
F	 1.862832	 -0.884087	 -1.183611
F	 1.049086	 -1.652942	 0.631167
F	 2.262010	 0.101276	 0.668754

	symmetry c1
}
set optking {
	frozen_dihedral = ("
		10 7 6 9
	")
}

ee = optimize('scf')
oeprop('DIPOLE', 'QUADRUPOLE', 'MULLIKEN_CHARGES')
f=open( 'psi4out.xyz', 'w' )
f.write( "12  " )
f.write( str(ee) + "\n" )
f.write( MOL.save_string_xyz() )
f.close()
--------------------------------------------------------------------------

    Molecular point group: c1
  Charge       = 0
  Multiplicity = 1
  Basis Set: 6-31G*
  Basis Set:
  @DF-RHF Final Energy: -1146.30595552590148
    Total Energy =                      -1146.3059555259010267
    Molecular point group: c1
  Basis Set: 6-31G*
  Basis Set:
  Basis Set: 6-31G*
  Basis Set:
  @DF-RHF Final Energy: -1146.30641408336783
    Total Energy =                      -1146.3064140833680540
  Basis Set: 6-31G*
  Basis Set:
  Basis Set: 6-31G*
  Basis Set:
  @DF-RHF Final Energy: -1146.30785797353792
    Total Energy =                      -1146.3078579735379208
  Basis Set: 6-31G*
  Basis Set:
  Basis Set: 6-31G*
  Basis Set:
  @DF-RHF Final Energy: -1146.30793024827017
    Total Energy =                      -1146.3079302482701678
  Basis Set: 6-31G*
  Basis Set:
  @DF-RHF Final Energy: -1146.30794527735998
    Total Energy =                      -1146.3079452773606590
  @DF-RHF Final Energy: -1146.30795860269018
    Total Energy =                      -1146.3079586026908601
  @DF-RHF Final Energy: -1146.30797865759405
    Total Energy =                      -1146.3079786575929120
  Basis Set: 6-31G*
  Basis Set:
  @DF-RHF Final Energy: -1146.30798618753806
    Total Energy =                      -1146.3079861875394272
  Basis Set: 6-31G*
  Basis Set:
  Basis Set: 6-31G*
  Basis Set:
  @DF-RHF Final Energy: -1146.30799666914413
    Total Energy =                      -1146.3079966691439040
  Basis Set: 6-31G*
  Basis Set:
  Basis Set: 6-31G*
  Basis Set:
  @DF-RHF Final Energy: -1146.30800124225652
    Total Energy =                      -1146.3080012422567506
  Basis Set: 6-31G*
  Basis Set:
  Charge       = 0
  Multiplicity = 1
  Basis Set: 6-31G*
  Basis Set:

    Orbital Energies (a.u.)
    -----------------------

    Doubly Occupied:

       1A   -104.843100     2A    -26.359985     3A    -26.358336
       4A    -26.355773     5A    -26.346768     6A    -26.346717
       7A    -20.649116     8A    -11.528743     9A    -11.490116
      10A    -11.401749    11A    -10.577716    12A     -8.047053
      13A     -8.043553    14A     -8.043418    15A     -1.761205
      16A     -1.718238    17A     -1.658377    18A     -1.653744
      19A     -1.638895    20A     -1.486789    21A     -1.177780
      22A     -1.046954    23A     -0.988209    24A     -0.919748
      25A     -0.858011    26A     -0.852983    27A     -0.844287
      28A     -0.826292    29A     -0.813403    30A     -0.790530
      31A     -0.728285    32A     -0.726974    33A     -0.704032
      34A     -0.701376    35A     -0.678230    36A     -0.673513
      37A     -0.657340    38A     -0.656591    39A     -0.647102
      40A     -0.630993    41A     -0.597510    42A     -0.578002
      43A     -0.523014    44A     -0.476498    45A     -0.467518

  @DF-RHF Final Energy: -1146.30800128627698

   => Energetics <=

    Nuclear Repulsion Energy =            737.0941391501570479
    One-Electron Energy =               -3057.0551466308834279
    Two-Electron Energy =                1173.6530061944486079
    DFT Exchange-Correlation Energy =       0.0000000000000000
    Empirical Dispersion Energy =           0.0000000000000000
    PCM Polarization Energy =               0.0000000000000000
    EFP Energy =                            0.0000000000000000
    Total Energy =                      -1146.3080012862778858
    Molecular point group: c1
  Basis Set: 6-31G*
  Basis Set:

  -Total Gradient:
     Atom            X                  Y                   Z
    ------   -----------------  -----------------  -----------------
       1       -0.000019131181     0.000005751272    -0.000004050861
       2        0.000008274147    -0.000008113128     0.000014235976
       3       -0.000012260867     0.000088784733     0.000115884443
       4        0.000000386329    -0.000032616039    -0.000005748857
       5       -0.000013714224     0.000027614047     0.000005284568
       6       -0.006029719017    -0.008094121845     0.002693635005
       7        0.005333824129     0.007319855503    -0.000408894157
       8       -0.000005723720    -0.000042700168    -0.000112749252
       9        0.004189667856     0.005513230651    -0.002216706904
      10       -0.003378298367    -0.004754852378    -0.000184020511
      11       -0.000047809831     0.000023793192    -0.000032940581
      12       -0.000025495277    -0.000046625901     0.000136071129

  **** Optimization is complete! (in 11 steps) ****
    Final optimized geometry and variables:
    Molecular point group: c1

    Geometry (in Angstrom), charge = 0, multiplicity = 1:

    H           -2.675322539796    -0.581045605400     1.266386623736
    C           -2.080149626300    -0.380008383084     0.397411382731
    O           -0.855412816819     0.029409426850     0.804957243060
    F           -1.980571421767    -1.472452250141    -0.356626713690
    F           -2.660963074149     0.549221384941    -0.356051353873
    C            0.066339636718     0.343923695676    -0.171195504710
    C            1.317777064464    -0.544316547603    -0.018286719013
    CL           0.494917955354     2.064195547550    -0.062008584157
    H           -0.300599418448     0.216194439702    -1.173247024672
    F            1.785339188746    -0.822325641971    -1.222071699666
    F            0.986899780069    -1.687341832936     0.543571801640
    F            2.276021584673    -0.005307995055     0.691336431461

  Mulliken Charges: (a.u.)
   Center  Symbol    Alpha    Beta     Spin     Total
       1     H     0.40075  0.40075  0.00000  0.19851
       2     C     2.56574  2.56574  0.00000  0.86853
       3     O     4.29201  4.29201  0.00000 -0.58402
       4     F     4.68671  4.68671  0.00000 -0.37342
       5     F     4.68547  4.68547  0.00000 -0.37093
       6     C     3.06571  3.06571  0.00000 -0.13143
       7     C     2.42750  2.42750  0.00000  1.14499
       8    CL     8.49822  8.49822  0.00000  0.00357
       9     H     0.36196  0.36196  0.00000  0.27607
      10     F     4.67885  4.67885  0.00000 -0.35770
      11     F     4.67279  4.67279  0.00000 -0.34558
      12     F     4.66429  4.66429  0.00000 -0.32858

   Total alpha = 45.00000, Total beta = 45.00000, Total charge =  0.00000
