  ==> Input File <==

--------------------------------------------------------------------------
set {
	reference rhf
	basis 6-31G*
}

set_num_threads( 4 )
memory 2 gb

molecule MOL {
0 1

H	 -0.588386	 2.204666	 0.047358
C	 -0.273889	 1.380778	 0.679531
N	 -0.528168	 0.128977	 -0.000000
H	 -0.856202	 1.424540	 1.592785
H	 0.777192	 1.539986	 0.934770
C	 0.248044	 -0.037491	 -1.209632
H	 -0.353326	 -0.635039	 0.621882
H	 0.998722	 0.743888	 -1.266824
H	 -0.398417	 0.061950	 -2.074060
H	 0.763621	 -0.999315	 -1.275517

	symmetry c1
}
set optking {
	frozen_dihedral = ("
		2 3 6 8
	")
}

ee = optimize('scf')
oeprop('DIPOLE', 'QUADRUPOLE', 'MULLIKEN_CHARGES')
f=open( 'psi4out.xyz', 'w' )
f.write( "10  " )
f.write( str(ee) + "\n" )
f.write( MOL.save_string_xyz() )
f.close()
--------------------------------------------------------------------------

    Molecular point group: c1
  Charge       = 0
  Multiplicity = 1
  Basis Set: 6-31G*
  Basis Set:
  @DF-RHF Final Energy:  -134.23322551140950
    Total Energy =                       -134.2332255114095574
    Molecular point group: c1
  Basis Set: 6-31G*
  Basis Set:
  Basis Set: 6-31G*
  Basis Set:
  @DF-RHF Final Energy:  -134.23388723571645
    Total Energy =                       -134.2338872357165087
  Basis Set: 6-31G*
  Basis Set:
  Basis Set: 6-31G*
  Basis Set:
  @DF-RHF Final Energy:  -134.23403050263647
    Total Energy =                       -134.2340305026364717
  Basis Set: 6-31G*
  Basis Set:
  Charge       = 0
  Multiplicity = 1
  Basis Set: 6-31G*
  Basis Set:

    Orbital Energies (a.u.)
    -----------------------

    Doubly Occupied:

       1A    -15.535607     2A    -11.236077     3A    -11.235770
       4A     -1.195250     5A     -0.947704     6A     -0.854389
       7A     -0.659651     8A     -0.610127     9A     -0.588398
      10A     -0.544970    11A     -0.509621    12A     -0.505429
      13A     -0.357480

  @DF-RHF Final Energy:  -134.23403195085621

   => Energetics <=

    Nuclear Repulsion Energy =             84.3954511415839619
    One-Electron Energy =                -347.6980184920243460
    Two-Electron Energy =                 129.0685353995842206
    DFT Exchange-Correlation Energy =       0.0000000000000000
    Empirical Dispersion Energy =           0.0000000000000000
    PCM Polarization Energy =               0.0000000000000000
    EFP Energy =                            0.0000000000000000
    Total Energy =                       -134.2340319508561493
    Molecular point group: c1
  Basis Set: 6-31G*
  Basis Set:

  -Total Gradient:
     Atom            X                  Y                   Z
    ------   -----------------  -----------------  -----------------
       1       -0.000005045313    -0.000066631971    -0.000031945693
       2        0.001571161187    -0.000955387542     0.001168794735
       3       -0.002693716572     0.001823777152    -0.001934713923
       4       -0.000013305179    -0.000007599616     0.000002707214
       5       -0.000006501687    -0.000015924458    -0.000012011209
       6        0.002888560614    -0.002405266698     0.002164760976
       7       -0.000017577436     0.000054873438     0.000036535500
       8       -0.001771130906     0.001595753516    -0.001368384082
       9        0.000015293058    -0.000012788315    -0.000005799316
      10        0.000032262236    -0.000010805507    -0.000019944201

  **** Optimization is complete! (in 4 steps) ****
    Final optimized geometry and variables:
    Molecular point group: c1

    Geometry (in Angstrom), charge = 0, multiplicity = 1:

    H           -0.437028233182     1.716948174254     0.249313202569
    C           -0.117753208339     0.884990422115     0.868141278241
    N           -0.358302811293    -0.360517990476     0.171596825615
    H           -0.706661194881     0.909506493851     1.778047495765
    H            0.929820609988     1.049549175143     1.132327045760
    C            0.414245304339    -0.532731776936    -1.050953973190
    H           -0.190346926791    -1.123858739587     0.793100127670
    H            1.183349189819     0.229161159526    -1.160130444536
    H           -0.228236607700    -0.462771973802    -1.923938684192
    H            0.897207331843    -1.503654392177    -1.076225703090

  Mulliken Charges: (a.u.)
   Center  Symbol    Alpha    Beta     Spin     Total
       1     H     0.41774  0.41774  0.00000  0.16453
       2     C     3.14432  3.14432  0.00000 -0.28865
       3     N     3.84371  3.84371  0.00000 -0.68743
       4     H     0.41778  0.41778  0.00000  0.16443
       5     H     0.43448  0.43448  0.00000  0.13103
       6     C     3.14454  3.14454  0.00000 -0.28909
       7     H     0.33098  0.33098  0.00000  0.33803
       8     H     0.42643  0.42643  0.00000  0.14714
       9     H     0.41689  0.41689  0.00000  0.16622
      10     H     0.42311  0.42311  0.00000  0.15378

   Total alpha = 13.00000, Total beta = 13.00000, Total charge = -0.00000
