                              Psi4 1.0.54 Driver

  ==> Input File <==

--------------------------------------------------------------------------
set {
	reference rhf
	basis cc-pvtz
}

set_num_threads( 4 )
memory 2 gb

molecule MOL {
0 1

O	 -1.278239	 1.034789	 -0.784693
C	 -1.204115	 0.062668	 -0.112312
C	 -2.386398	 -0.667698	 0.460323
O	 -0.068058	 -0.518372	 0.226882
H	 -2.382952	 -1.693172	 0.114333
H	 -3.296656	 -0.175702	 0.158400
H	 -2.312537	 -0.685191	 1.540100
C	 1.169086	 0.037484	 -0.230612
C	 1.442359	 -0.591225	 -1.582337
C	 2.264240	 -0.237001	 0.784229
H	 1.034161	 1.103035	 -0.337785
H	 0.637353	 -0.377151	 -2.273630
H	 2.362802	 -0.196751	 -1.995722
H	 1.539744	 -1.666629	 -1.493136
H	 3.204371	 0.172597	 0.433681
H	 2.030111	 0.220804	 1.735147
H	 2.389388	 -1.304108	 0.928816

	symmetry c1
}
set optking {
	frozen_dihedral = ("
		11 8 4 2
	")
}

ee,wfn = optimize('scf', return_wfn=True)
oeprop( wfn, 'DIPOLE', 'QUADRUPOLE', 'MULLIKEN_CHARGES')
f=open( 'psi4out.xyz', 'w' )
f.write( "17  " )
f.write( str(ee) + "\n" )
f.write( MOL.save_string_xyz() )
f.close()
--------------------------------------------------------------------------

    Molecular point group: c1
  Charge       = 0
  Multiplicity = 1
  Basis Set: CC-PVTZ
  Basis Set:
  @DF-RHF Final Energy:  -345.04221761539065
    Total Energy =                       -345.0422176153903138
    Molecular point group: c1
  Basis Set: CC-PVTZ
  Basis Set:
  Basis Set: CC-PVTZ
  Basis Set:
  @DF-RHF Final Energy:  -345.04314973881367
    Total Energy =                       -345.0431497388135540
  Basis Set: CC-PVTZ
  Basis Set:
  Basis Set: CC-PVTZ
  Basis Set:
  @DF-RHF Final Energy:  -345.04304967057431
    Total Energy =                       -345.0430496705743053
  Basis Set: CC-PVTZ
  Basis Set:
  Basis Set: CC-PVTZ
  Basis Set:
  @DF-RHF Final Energy:  -345.04330162273732
    Total Energy =                       -345.0433016227375447
  Basis Set: CC-PVTZ
  Basis Set:
  Basis Set: CC-PVTZ
  Basis Set:
  @DF-RHF Final Energy:  -345.04332323851236
    Total Energy =                       -345.0433232385123006
  Basis Set: CC-PVTZ
  Basis Set:
  Charge       = 0
  Multiplicity = 1
  Basis Set: CC-PVTZ
  Basis Set:

    Orbital Energies (a.u.)
    -----------------------

    Doubly Occupied:

       1A    -20.591136     2A    -20.531414     3A    -11.366847
       4A    -11.287708     5A    -11.230505     6A    -11.217826
       7A    -11.214688     8A     -1.468317     9A     -1.364490
      10A     -1.079725    11A     -1.005635    12A     -0.949007
      13A     -0.849775    14A     -0.768188    15A     -0.694790
      16A     -0.671861    17A     -0.662334    18A     -0.613894
      19A     -0.587243    20A     -0.579065    21A     -0.565164
      22A     -0.551176    23A     -0.537754    24A     -0.522203
      25A     -0.504165    26A     -0.483080    27A     -0.449802
      28A     -0.439377

  @DF-RHF Final Energy:  -345.04332516990280

   => Energetics <=

    Nuclear Repulsion Energy =            323.3536043670010258
    One-Electron Energy =               -1111.2195129655681285
    Two-Electron Energy =                 442.8225834286643021
    DFT Exchange-Correlation Energy =       0.0000000000000000
    Empirical Dispersion Energy =           0.0000000000000000
    PCM Polarization Energy =               0.0000000000000000
    EFP Energy =                            0.0000000000000000
    Total Energy =                       -345.0433251699028006
    Molecular point group: c1
  Basis Set: CC-PVTZ
  Basis Set:

  -Total Gradient:
     Atom            X                  Y                   Z
    ------   -----------------  -----------------  -----------------
       1       -0.000022645306     0.000029988131    -0.000032684040
       2        0.000103894336     0.000366382302     0.000588562602
       3        0.000024175336    -0.000023423930    -0.000018732393
       4       -0.000137495582    -0.000622515022    -0.000915982091
       5       -0.000000072129    -0.000000513483     0.000007818780
       6        0.000005876384     0.000009738426    -0.000007917175
       7        0.000003474030     0.000005927050     0.000003225552
       8        0.000313539871     0.000317740078     0.001092917398
       9       -0.000020171273     0.000022655511    -0.000000893037
      10       -0.000063196382    -0.000022140325     0.000001653899
      11       -0.000204299629    -0.000078071233    -0.000722053216
      12        0.000003866561    -0.000007275993     0.000007452865
      13        0.000020469031    -0.000000594601    -0.000012791110
      14       -0.000005986169     0.000016359605     0.000013680647
      15       -0.000041203863     0.000002643872    -0.000021107017
      16        0.000005665064     0.000006911994     0.000004769268
      17        0.000014109720    -0.000023812377     0.000012079070

  **** Optimization is complete! (in 6 steps) ****
    Final optimized geometry and variables:
    Molecular point group: c1

    Geometry (in Angstrom), charge = 0, multiplicity = 1:

    O           -1.268937267595     1.184967612492    -0.581685758171
    C           -1.194612817619     0.205199462496     0.079456858119
    C           -2.374571709798    -0.508779308785     0.676967737444
    O           -0.061138063312    -0.399054981249     0.385532671472
    H           -2.399706935575    -1.530048220378     0.319438809864
    H           -3.283136269557     0.003191821908     0.404675496639
    H           -2.272176708033    -0.540406952349     1.754015148823
    C            1.177248142904     0.149327083968    -0.077611108275
    C            1.502859329969    -0.423379825347    -1.445357798514
    C            2.216422005656    -0.188340906823     0.972340117432
    H            1.058192325523     1.218562329032    -0.157237182488
    H            0.732788573410    -0.166311546535    -2.160064499732
    H            2.443686004177    -0.021149266735    -1.802528914539
    H            1.588686420229    -1.502821843016    -1.395970859347
    H            3.180228000744     0.212569288542     0.682446997296
    H            1.944207817686     0.235229520896     1.930643713324
    H            2.312022547723    -1.261503736782     1.087297712549

  Mulliken Charges: (a.u.)
   Center  Symbol    Alpha    Beta     Spin     Total
       1     O     4.19970  4.19970  0.00000 -0.39940
       2     C     2.80515  2.80515  0.00000  0.38970
       3     C     3.13947  3.13947  0.00000 -0.27893
       4     O     4.16471  4.16471  0.00000 -0.32941
       5     H     0.44605  0.44605  0.00000  0.10790
       6     H     0.43844  0.43844  0.00000  0.12312
       7     H     0.44610  0.44610  0.00000  0.10781
       8     C     2.93198  2.93198  0.00000  0.13603
       9     C     3.15196  3.15196  0.00000 -0.30391
      10     C     3.13766  3.13766  0.00000 -0.27532
      11     H     0.44074  0.44074  0.00000  0.11852
      12     H     0.44035  0.44035  0.00000  0.11930
      13     H     0.45043  0.45043  0.00000  0.09915
      14     H     0.45349  0.45349  0.00000  0.09302
      15     H     0.45409  0.45409  0.00000  0.09183
      16     H     0.44719  0.44719  0.00000  0.10562
      17     H     0.45252  0.45252  0.00000  0.09497

   Total alpha = 28.00000, Total beta = 28.00000, Total charge =  0.00000

*** Psi4 exiting successfully. Buy a developer a beer!
