  ==> Input File <==

--------------------------------------------------------------------------
set {
	reference rhf
	basis 6-31G*
}

set_num_threads( 1 )
memory 2 gb

molecule MOL {
0 1

O	 0.027665	 0.892735	 -1.730975
C	 -0.612703	 1.034101	 -0.739907
C	 -1.491054	 2.218964	 -0.441671
O	 -0.632575	 0.154573	 0.251549
H	 -1.156211	 2.703217	 0.468453
H	 -1.453425	 2.914878	 -1.266367
H	 -2.510540	 1.887783	 -0.281279
C	 0.160891	 -1.019931	 0.106212
C	 1.589627	 -0.672828	 0.480843
H	 0.089836	 -1.367806	 -0.916050
H	 -0.238459	 -1.792301	 0.749618
C	 2.246377	 0.346236	 -0.452210
H	 2.163194	 -1.597435	 0.473358
H	 1.604769	 -0.303424	 1.502885
C	 3.691736	 0.652107	 -0.061850
H	 2.219579	 -0.032311	 -1.472055
H	 1.666466	 1.263317	 -0.447249
H	 4.134505	 1.377213	 -0.737283
H	 4.305508	 -0.243868	 -0.089969
H	 3.748266	 1.059562	 0.943567

	symmetry c1
}
set optking {
	frozen_dihedral = ("
		16 12 9 8,
		12 9 8 10,
		1 2 4 8
	")
}

ee = energy('scf')
oeprop('DIPOLE', 'QUADRUPOLE', 'MULLIKEN_CHARGES')
f=open( 'psi4out.xyz', 'w' )
f.write( "20  " )
f.write( str(ee) + "\n" )
f.write( MOL.save_string_xyz() )
f.close()
--------------------------------------------------------------------------

    Molecular point group: c1

    Geometry (in Angstrom), charge = 0, multiplicity = 1:

       Center              X                  Y                   Z               Mass
    ------------   -----------------  -----------------  -----------------  -----------------
           O         -0.592839961736     0.432979451508    -1.403219758015    15.994914619560
           C         -1.233207961736     0.574345451508    -0.412151758015    12.000000000000
           C         -2.111558961736     1.759208451508    -0.113915758015    12.000000000000
           O         -1.253079961736    -0.305182548492     0.579304241985    15.994914619560
           H         -1.776715961736     2.243461451508     0.796208241985     1.007825032070
           H         -2.073929961736     2.455122451508    -0.938611758015     1.007825032070
           H         -3.131044961736     1.428027451508     0.046476241985     1.007825032070
           C         -0.459613961736    -1.479686548492     0.433967241985    12.000000000000
           C          0.969122038264    -1.132583548492     0.808598241985    12.000000000000
           H         -0.530668961736    -1.827561548492    -0.588294758015     1.007825032070
           H         -0.858963961736    -2.252056548492     1.077373241985     1.007825032070
           C          1.625872038264    -0.113519548492    -0.124454758015    12.000000000000
           H          1.542689038264    -2.057190548492     0.801113241985     1.007825032070
           H          0.984264038264    -0.763179548492     1.830640241985     1.007825032070
           C          3.071231038264     0.192351451508     0.265905241985    12.000000000000
           H          1.599074038264    -0.492066548492    -1.144299758015     1.007825032070
           H          1.045961038264     0.803561451508    -0.119493758015     1.007825032070
           H          3.514000038264     0.917457451508    -0.409527758015     1.007825032070
           H          3.685003038264    -0.703623548492     0.237786241985     1.007825032070
           H          3.127761038264     0.599806451508     1.271322241985     1.007825032070

  Charge       = 0
  Multiplicity = 1
  Basis Set: 6-31G*
  Basis Set:

    Orbital Energies (a.u.)
    -----------------------

    Doubly Occupied:

       1A    -20.602869     2A    -20.542621     3A    -11.376681
       4A    -11.282706     5A    -11.234895     6A    -11.218255
       7A    -11.204275     8A    -11.201988     9A     -1.471376
      10A     -1.365071    11A     -1.079283    12A     -1.025581
      13A     -0.977122    14A     -0.884665    15A     -0.804366
      16A     -0.764516    17A     -0.694780    18A     -0.689418
      19A     -0.669150    20A     -0.619267    21A     -0.599907
      22A     -0.589521    23A     -0.571106    24A     -0.551309
      25A     -0.545627    26A     -0.518113    27A     -0.509711
      28A     -0.500411    29A     -0.465122    30A     -0.458231
      31A     -0.441037    32A     -0.425936

  @DF-RHF Final Energy:  -383.92816875633793

   => Energetics <=

    Nuclear Repulsion Energy =            405.1200995977044954
    One-Electron Energy =               -1326.3263564057942858
    Two-Electron Energy =                 537.2780880517534570
    DFT Exchange-Correlation Energy =       0.0000000000000000
    Empirical Dispersion Energy =           0.0000000000000000
    PCM Polarization Energy =               0.0000000000000000
    EFP Energy =                            0.0000000000000000
    Total Energy =                       -383.9281687563363903

  Mulliken Charges: (a.u.)
   Center  Symbol    Alpha    Beta     Spin     Total
       1     O     4.28322  4.28322  0.00000 -0.56644
       2     C     2.62060  2.62060  0.00000  0.75880
       3     C     3.28126  3.28126  0.00000 -0.56253
       4     O     4.30623  4.30623  0.00000 -0.61246
       5     H     0.40070  0.40070  0.00000  0.19859
       6     H     0.39693  0.39693  0.00000  0.20614
       7     H     0.39940  0.39940  0.00000  0.20120
       8     C     3.01367  3.01367  0.00000 -0.02734
       9     C     3.16309  3.16309  0.00000 -0.32617
      10     H     0.40407  0.40407  0.00000  0.19187
      11     H     0.40727  0.40727  0.00000  0.18547
      12     C     3.14783  3.14783  0.00000 -0.29567
      13     H     0.42253  0.42253  0.00000  0.15493
      14     H     0.41737  0.41737  0.00000  0.16526
      15     C     3.23926  3.23926  0.00000 -0.47851
      16     H     0.41038  0.41038  0.00000  0.17924
      17     H     0.41747  0.41747  0.00000  0.16505
      18     H     0.41823  0.41823  0.00000  0.16354
      19     H     0.42493  0.42493  0.00000  0.15014
      20     H     0.42556  0.42556  0.00000  0.14889

   Total alpha = 32.00000, Total beta = 32.00000, Total charge =  0.00000
