  ==> Input File <==

--------------------------------------------------------------------------
set {
	reference rhf
	basis 6-31G*
}

set_num_threads( 4 )
memory 2 gb

molecule MOL {
0 1

H	 1.299631	 -1.205259	 -2.865254
C	 1.317749	 -0.598243	 -1.964454
C	 0.046395	 -0.817598	 -1.150414
H	 1.400800	 0.443918	 -2.252145
H	 2.211701	 -0.862812	 -1.410028
N	 -0.000257	 -0.000071	 0.054619
H	 -0.799903	 -0.556435	 -1.773271
H	 -0.068436	 -1.879003	 -0.911835
C	 -1.363055	 0.315058	 0.462241
C	 0.790874	 -0.562689	 1.141003
C	 -2.412078	 -0.285320	 -0.468531
H	 -1.482241	 1.391144	 0.451970
H	 -1.549931	 -0.001174	 1.492681
C	 1.325801	 0.500826	 2.094958
H	 1.637085	 -1.084464	 0.712246
H	 0.221118	 -1.313393	 1.696530
H	 -2.262839	 0.075384	 -1.480151
H	 -2.369300	 -1.368867	 -0.491760
H	 -3.410332	 -0.003975	 -0.144961
H	 1.939934	 1.211891	 1.553792
H	 0.530030	 1.052565	 2.583715
H	 1.931099	 0.042195	 2.871874

	symmetry c1
}
set optking {
	frozen_dihedral = ("
		3 6 9 11
	")
}

ee = optimize('scf')
oeprop('DIPOLE', 'QUADRUPOLE', 'MULLIKEN_CHARGES')
f=open( 'psi4out.xyz', 'w' )
f.write( "22  " )
f.write( str(ee) + "\n" )
f.write( MOL.save_string_xyz() )
f.close()
--------------------------------------------------------------------------

    Molecular point group: c1
  Charge       = 0
  Multiplicity = 1
  Basis Set: 6-31G*
  Basis Set:
  @DF-RHF Final Energy:  -290.35000483845909
    Total Energy =                       -290.3500048384588013
    Molecular point group: c1
  Basis Set: 6-31G*
  Basis Set:
  Basis Set: 6-31G*
  Basis Set:
  @DF-RHF Final Energy:  -290.34775137160079
    Total Energy =                       -290.3477513716010208
  Basis Set: 6-31G*
  Basis Set:
  Basis Set: 6-31G*
  Basis Set:
  @DF-RHF Final Energy:  -290.35926431894586
    Total Energy =                       -290.3592643189457476
  Basis Set: 6-31G*
  Basis Set:
  Basis Set: 6-31G*
  Basis Set:
  @DF-RHF Final Energy:  -290.36200007764501
    Total Energy =                       -290.3620000776448933
  Basis Set: 6-31G*
  Basis Set:
  @DF-RHF Final Energy:  -290.36232810147845
    Total Energy =                       -290.3623281014786812
  @DF-RHF Final Energy:  -290.36261673148056
    Total Energy =                       -290.3626167314803297
  Basis Set: 6-31G*
  Basis Set:
  @DF-RHF Final Energy:  -290.36264463741412
    Total Energy =                       -290.3626446374140642
  Basis Set: 6-31G*
  Basis Set:
  Basis Set: 6-31G*
  Basis Set:
  @DF-RHF Final Energy:  -290.36265359961152
    Total Energy =                       -290.3626535996119742
  Basis Set: 6-31G*
  Basis Set:
  Basis Set: 6-31G*
  Basis Set:
  @DF-RHF Final Energy:  -290.36265608862851
    Total Energy =                       -290.3626560886279435
  Basis Set: 6-31G*
  Basis Set:
  Charge       = 0
  Multiplicity = 1
  Basis Set: 6-31G*
  Basis Set:

    Orbital Energies (a.u.)
    -----------------------

    Doubly Occupied:

       1A    -15.531531     2A    -11.241847     3A    -11.239398
       4A    -11.238462     5A    -11.213076     6A    -11.203218
       7A    -11.202808     8A     -1.216802     9A     -1.024346
      10A     -1.022061    11A     -0.955543    12A     -0.857806
      13A     -0.842958    14A     -0.758319    15A     -0.653596
      16A     -0.642576    17A     -0.621075    18A     -0.593760
      19A     -0.587269    20A     -0.546096    21A     -0.535390
      22A     -0.517937    23A     -0.512877    24A     -0.502069
      25A     -0.492643    26A     -0.488194    27A     -0.467080
      28A     -0.459128    29A     -0.326034

  @DF-RHF Final Energy:  -290.36265651663308

   => Energetics <=

    Nuclear Repulsion Energy =            337.1820872441216466
    One-Electron Energy =               -1060.1016906014908727
    Two-Electron Energy =                 432.5569468407364866
    DFT Exchange-Correlation Energy =       0.0000000000000000
    Empirical Dispersion Energy =           0.0000000000000000
    PCM Polarization Energy =               0.0000000000000000
    EFP Energy =                            0.0000000000000000
    Total Energy =                       -290.3626565166326827
    Molecular point group: c1
  Basis Set: 6-31G*
  Basis Set:

  -Total Gradient:
     Atom            X                  Y                   Z
    ------   -----------------  -----------------  -----------------
       1       -0.000002655242    -0.000003051067    -0.000000578492
       2        0.000007826620    -0.000013820413     0.000021585430
       3        0.000110202952     0.001357238193    -0.000866560550
       4       -0.000009114690    -0.000001286757     0.000004348309
       5        0.000015835152    -0.000002213172    -0.000001772438
       6       -0.000204083647    -0.002609252759     0.001624877515
       7       -0.000004651216     0.000002759388    -0.000006208946
       8        0.000018317968     0.000007133350     0.000002789442
       9        0.000219387852     0.002486405089    -0.001532141325
      10       -0.000014513163     0.000010106281    -0.000022133737
      11       -0.000135853195    -0.001258003794     0.000776469489
      12        0.000009517083     0.000003119795     0.000007125116
      13       -0.000000194007     0.000009672836    -0.000004933782
      14       -0.000005739606     0.000000828765     0.000011052807
      15        0.000007061740    -0.000007088686    -0.000009745667
      16        0.000007940949     0.000004180903     0.000001143062
      17        0.000006738476    -0.000004564334    -0.000014859208
      18       -0.000021761241     0.000008042653     0.000013852710
      19        0.000010550389     0.000008819377     0.000000796557
      20       -0.000004660900     0.000000725036    -0.000000592791
      21       -0.000012668933     0.000002924071    -0.000007065760
      22        0.000002516659    -0.000002674755     0.000002552258

  **** Optimization is complete! (in 10 steps) ****
    Final optimized geometry and variables:
    Molecular point group: c1

    Geometry (in Angstrom), charge = 0, multiplicity = 1:

    H            1.513507465865    -0.945146240634    -2.884473033756
    C            1.459418937603    -0.368307514445    -1.964997655994
    C            0.175779841330    -0.704023333397    -1.206916872745
    H            1.477644340687     0.686289552703    -2.217277896778
    H            2.351836290314    -0.588994528307    -1.389844194622
    N            0.028166882925     0.081033156327     0.006002506665
    H           -0.650759494955    -0.492585701232    -1.867268189730
    H            0.141813392954    -1.779175418608    -1.006103119775
    C           -1.305260079085     0.499269382295     0.444846558936
    C            0.867425454711    -0.359384375671     1.103652443587
    C           -2.497327974497     0.079357484959    -0.413959814966
    H           -1.325488914292     1.581394329889     0.548343340774
    H           -1.484686688704     0.099871637661     1.441955541955
    C            1.277474659117     0.779089094147     2.033868684401
    H            1.766361197135    -0.801772146787     0.693985703021
    H            0.375500609201    -1.146493973821     1.684690998098
    H           -2.481257200493     0.530181633950    -1.399958987774
    H           -2.557223629212    -0.997419981289    -0.530373057989
    H           -3.407391051222     0.410988506597     0.076547953610
    H            1.803242363523     1.547277435952     1.476979308183
    H            0.420541436213     1.240442649149     2.513185783422
    H            1.932773930798     0.410335724113     2.817962082802

  Mulliken Charges: (a.u.)
   Center  Symbol    Alpha    Beta     Spin     Total
       1     H     0.42485  0.42485  0.00000  0.15030
       2     C     3.23419  3.23419  0.00000 -0.46837
       3     C     3.05191  3.05191  0.00000 -0.10383
       4     H     0.41683  0.41683  0.00000  0.16635
       5     H     0.42201  0.42201  0.00000  0.15599
       6     N     3.80106  3.80106  0.00000 -0.60212
       7     H     0.41575  0.41575  0.00000  0.16849
       8     H     0.43418  0.43418  0.00000  0.13163
       9     C     3.03787  3.03787  0.00000 -0.07575
      10     C     3.05447  3.05447  0.00000 -0.10894
      11     C     3.25706  3.25706  0.00000 -0.51412
      12     H     0.42056  0.42056  0.00000  0.15889
      13     H     0.42829  0.42829  0.00000  0.14342
      14     C     3.23757  3.23757  0.00000 -0.47514
      15     H     0.41920  0.41920  0.00000  0.16159
      16     H     0.43397  0.43397  0.00000  0.13206
      17     H     0.41674  0.41674  0.00000  0.16653
      18     H     0.41699  0.41699  0.00000  0.16602
      19     H     0.41650  0.41650  0.00000  0.16701
      20     H     0.41612  0.41612  0.00000  0.16776
      21     H     0.42025  0.42025  0.00000  0.15950
      22     H     0.42363  0.42363  0.00000  0.15274

   Total alpha = 29.00000, Total beta = 29.00000, Total charge = -0.00000
