  ==> Input File <==

--------------------------------------------------------------------------
set {
	reference rhf
	basis 6-31G*
}

set_num_threads( 4 )
memory 2 gb

molecule MOL {
0 1

H	 2.163286	 -4.932673	 1.084589
O	 2.980023	 -4.731164	 0.651684
C	 2.728573	 -4.331532	 -0.671615
C	 2.114894	 -2.939455	 -0.772844
H	 3.689058	 -4.344719	 -1.170583
H	 2.092886	 -5.058983	 -1.175099
C	 0.727401	 -2.823228	 -0.137060
H	 2.791574	 -2.229408	 -0.304544
H	 2.053513	 -2.671782	 -1.826386
C	 0.115918	 -1.429151	 -0.302766
H	 0.797443	 -3.065424	 0.919728
H	 0.061136	 -3.560950	 -0.584494
C	 -1.309753	 -1.282496	 0.241564
H	 0.761492	 -0.695738	 0.177011
H	 0.107643	 -1.178489	 -1.361444
C	 -2.037799	 -0.007733	 -0.193645
H	 -1.890610	 -2.142323	 -0.085726
H	 -1.285946	 -1.330893	 1.329189
C	 -3.489788	 0.042957	 0.286558
H	 -2.017067	 0.064384	 -1.280144
H	 -1.513726	 0.868678	 0.179924
C	 -4.216917	 1.317354	 -0.141063
H	 -4.025645	 -0.823308	 -0.095450
H	 -3.513059	 -0.038752	 1.371301
H	 -4.239342	 1.411634	 -1.223113
H	 -5.243387	 1.322503	 0.212445
H	 -3.726170	 2.201406	 0.256408

	symmetry c1
}
set optking {
	frozen_dihedral = ("
		14 10 13 16
	")
}

ee = optimize('scf')
oeprop('DIPOLE', 'QUADRUPOLE', 'MULLIKEN_CHARGES')
f=open( 'psi4out.xyz', 'w' )
f.write( "27  " )
f.write( str(ee) + "\n" )
f.write( MOL.save_string_xyz() )
f.close()
--------------------------------------------------------------------------

    Molecular point group: c1
  Charge       = 0
  Multiplicity = 1
  Basis Set: 6-31G*
  Basis Set:
  @DF-RHF Final Energy:  -388.28241165362903
    Total Energy =                       -388.2824116536289694
    Molecular point group: c1
  Basis Set: 6-31G*
  Basis Set:
  Basis Set: 6-31G*
  Basis Set:
  @DF-RHF Final Energy:  -388.28295307937191
    Total Energy =                       -388.2829530793726462
  Basis Set: 6-31G*
  Basis Set:
  Basis Set: 6-31G*
  Basis Set:
  @DF-RHF Final Energy:  -388.28298873077642
    Total Energy =                       -388.2829887307752870
  Basis Set: 6-31G*
  Basis Set:
  Basis Set: 6-31G*
  Basis Set:
  @DF-RHF Final Energy:  -388.28300193010034
    Total Energy =                       -388.2830019301006814
  Basis Set: 6-31G*
  Basis Set:
  Basis Set: 6-31G*
  Basis Set:
  @DF-RHF Final Energy:  -388.28300815768534
    Total Energy =                       -388.2830081576852308
  Basis Set: 6-31G*
  Basis Set:
  Charge       = 0
  Multiplicity = 1
  Basis Set: 6-31G*
  Basis Set:

    Orbital Energies (a.u.)
    -----------------------

    Doubly Occupied:

       1A    -20.552155     2A    -11.267011     3A    -11.220308
       4A    -11.217058     5A    -11.215748     6A    -11.215416
       7A    -11.215274     8A    -11.214124     9A    -11.209065
      10A     -1.358950    11A     -1.095052    12A     -1.062622
      13A     -1.012023    14A     -0.950480    15A     -0.882575
      16A     -0.820092    17A     -0.792375    18A     -0.789225
      19A     -0.694118    20A     -0.659571    21A     -0.633039
      22A     -0.614643    23A     -0.601774    24A     -0.586298
      25A     -0.574968    26A     -0.555791    27A     -0.534160
      28A     -0.523567    29A     -0.510232    30A     -0.494317
      31A     -0.480389    32A     -0.473994    33A     -0.469391
      34A     -0.463054    35A     -0.461036    36A     -0.442803
      37A     -0.420011

  @DF-RHF Final Energy:  -388.28300826650786

   => Energetics <=

    Nuclear Repulsion Energy =            451.2478356218106228
    One-Electron Energy =               -1420.4962666228720991
    Two-Electron Energy =                 580.9654227345539539
    DFT Exchange-Correlation Energy =       0.0000000000000000
    Empirical Dispersion Energy =           0.0000000000000000
    PCM Polarization Energy =               0.0000000000000000
    EFP Energy =                            0.0000000000000000
    Total Energy =                       -388.2830082665075224
    Molecular point group: c1
  Basis Set: 6-31G*
  Basis Set:

  -Total Gradient:
     Atom            X                  Y                   Z
    ------   -----------------  -----------------  -----------------
       1       -0.000008684958     0.000004351246     0.000005495263
       2        0.000003110954    -0.000018661308     0.000014344798
       3       -0.000037720950     0.000030038134     0.000037746766
       4        0.000009910864     0.000075998813    -0.000007359626
       5       -0.000011640044     0.000019253422    -0.000000179717
       6        0.000000734089    -0.000001187377    -0.000004599151
       7        0.000009165331     0.000012425450     0.000076461408
       8        0.000027188108     0.000006498374    -0.000018057712
       9       -0.000006560328    -0.000002831628    -0.000003946685
      10       -0.000852086279     0.001364857268    -0.002599870523
      11        0.000029186064    -0.000043878400    -0.000009011951
      12       -0.000049963282     0.000056509201    -0.000028455219
      13        0.000873506275     0.000778270712     0.002271917467
      14        0.000513598976    -0.001531148097     0.001568023365
      15        0.000033560486     0.000020702512    -0.000055090239
      16       -0.000574389981    -0.000733980759    -0.001336424902
      17        0.000024671862     0.000028147933    -0.000004280105
      18       -0.000055949281     0.000011307963     0.000045555607
      19        0.000029580850    -0.000029787503     0.000067023168
      20        0.000024800908     0.000015542685    -0.000033521675
      21       -0.000028142999    -0.000026760006     0.000031272700
      22        0.000039783453    -0.000025980876    -0.000050075991
      23        0.000005758932    -0.000004608035     0.000017837439
      24       -0.000010661002     0.000012996512     0.000018509698
      25        0.000004345065     0.000014213048    -0.000008653928
      26        0.000011343144    -0.000029892348    -0.000004750325
      27       -0.000004446265    -0.000002396935     0.000010090073

  **** Optimization is complete! (in 6 steps) ****
    Final optimized geometry and variables:
    Molecular point group: c1

    Geometry (in Angstrom), charge = 0, multiplicity = 1:

    H            2.290299143886    -3.098065747269     1.182907310641
    O            3.140069914230    -2.885285356477     0.825398021993
    C            2.999902957939    -2.458568266880    -0.505760222060
    C            2.380242357036    -1.071014176694    -0.629667496941
    H            4.000338101538    -2.450552988649    -0.918868834819
    H            2.419471288067    -3.180951874472    -1.078538386541
    C            0.942763614224    -0.983861987157    -0.112337953321
    H            3.006113961575    -0.364208475544    -0.091208141772
    H            2.404376517149    -0.780993992985    -1.678875292260
    C            0.320104223078     0.401689318717    -0.299775770885
    H            0.921075226073    -1.237541273075     0.945819518366
    H            0.327984667063    -1.724573179184    -0.623005356255
    C           -1.097331836595     0.505171073813     0.269533661496
    H            0.957390302281     1.135504653971     0.189637941373
    H            0.310095111694     0.649982645747    -1.359112493042
    C           -1.823429869444     1.787039200947    -0.142123915532
    H           -1.681708992003    -0.350664761807    -0.065158288715
    H           -1.056089064618     0.438810858589     1.355055509048
    C           -3.228828919534     1.903922355237     0.450345745870
    H           -1.886921915613     1.828078644400    -1.228130820534
    H           -1.234141679190     2.651335015199     0.160702725396
    C           -3.954515840770     3.178171180146     0.019979164442
    H           -3.816808853189     1.037150743076     0.155628869601
    H           -3.165586905652     1.874163891796     1.536045522465
    H           -4.063076988668     3.221914295722    -1.060111084591
    H           -4.948061403368     3.231205641762     0.454338766355
    H           -3.409291599587     4.064369889171     0.332393644279

  Mulliken Charges: (a.u.)
   Center  Symbol    Alpha    Beta     Spin     Total
       1     H     0.27982  0.27982  0.00000  0.44036
       2     O     4.37102  4.37102  0.00000 -0.74204
       3     C     2.99730  2.99730  0.00000  0.00540
       4     C     3.16125  3.16125  0.00000 -0.32251
       5     H     0.41442  0.41442  0.00000  0.17115
       6     H     0.43204  0.43204  0.00000  0.13591
       7     C     3.16210  3.16210  0.00000 -0.32420
       8     H     0.41503  0.41503  0.00000  0.16993
       9     H     0.42420  0.42420  0.00000  0.15160
      10     C     3.15061  3.15061  0.00000 -0.30122
      11     H     0.42518  0.42518  0.00000  0.14964
      12     H     0.42485  0.42485  0.00000  0.15030
      13     C     3.15251  3.15251  0.00000 -0.30503
      14     H     0.42105  0.42105  0.00000  0.15790
      15     H     0.42270  0.42270  0.00000  0.15459
      16     C     3.15091  3.15091  0.00000 -0.30182
      17     H     0.42469  0.42469  0.00000  0.15063
      18     H     0.42264  0.42264  0.00000  0.15471
      19     C     3.15155  3.15155  0.00000 -0.30310
      20     H     0.42396  0.42396  0.00000  0.15208
      21     H     0.42368  0.42368  0.00000  0.15265
      22     C     3.23928  3.23928  0.00000 -0.47856
      23     H     0.42339  0.42339  0.00000  0.15322
      24     H     0.42297  0.42297  0.00000  0.15407
      25     H     0.42189  0.42189  0.00000  0.15621
      26     H     0.41932  0.41932  0.00000  0.16137
      27     H     0.42163  0.42163  0.00000  0.15675

   Total alpha = 37.00000, Total beta = 37.00000, Total charge =  0.00000
