  ==> Input File <==

--------------------------------------------------------------------------
set {
	reference rhf
	basis 6-31G*
}

set_num_threads( 1 )
memory 2 gb

molecule MOL {
0 1

O	 1.439763	 0.933529	 0.808025
C	 1.122059	 0.121804	 -0.000188
C	 -0.170150	 -0.657997	 -0.000612
O	 1.884790	 -0.211395	 -1.033724
C	 -1.412532	 0.227344	 -0.000452
H	 -0.153702	 -1.313099	 -0.867402
H	 -0.153924	 -1.313811	 0.865644
C	 -2.706999	 -0.587347	 -0.000541
H	 -1.388000	 0.879466	 -0.868000
H	 -1.387972	 0.879138	 0.867341
C	 -3.956778	 0.291888	 0.000910
H	 -2.726114	 -1.239230	 -0.871609
H	 -2.725217	 -1.240844	 0.869333
H	 -3.985213	 0.933254	 -0.875158
H	 -4.860123	 -0.309979	 0.000519
H	 -3.984618	 0.931166	 0.878514
C	 3.131343	 0.449841	 -1.152091
H	 2.987835	 1.515887	 -1.254264
H	 3.595345	 0.048240	 -2.039428
H	 3.748139	 0.255836	 -0.286393

	symmetry c1
}
set optking {
	frozen_dihedral = ("
		9 5 8 12,
		9 5 3 6,
		1 2 4 17
	")
}

ee = energy('scf')
oeprop('DIPOLE', 'QUADRUPOLE', 'MULLIKEN_CHARGES')
f=open( 'psi4out.xyz', 'w' )
f.write( "20  " )
f.write( str(ee) + "\n" )
f.write( MOL.save_string_xyz() )
f.close()
--------------------------------------------------------------------------

    Molecular point group: c1

    Geometry (in Angstrom), charge = 0, multiplicity = 1:

       Center              X                  Y                   Z               Mass
    ------------   -----------------  -----------------  -----------------  -----------------
           O          1.490249356942     0.849769670902     0.989399667955    15.994914619560
           C          1.172545356942     0.038044670902     0.181186667955    12.000000000000
           C         -0.119663643058    -0.741756329098     0.180762667955    12.000000000000
           O          1.935276356942    -0.295154329098    -0.852349332045    15.994914619560
           C         -1.362045643058     0.143584670902     0.180922667955    12.000000000000
           H         -0.103215643058    -1.396858329098    -0.686027332045     1.007825032070
           H         -0.103437643058    -1.397570329098     1.047018667955     1.007825032070
           C         -2.656512643058    -0.671106329098     0.180833667955    12.000000000000
           H         -1.337513643058     0.795706670902    -0.686625332045     1.007825032070
           H         -1.337485643058     0.795378670902     1.048715667955     1.007825032070
           C         -3.906291643058     0.208128670902     0.182284667955    12.000000000000
           H         -2.675627643058    -1.322989329098    -0.690234332045     1.007825032070
           H         -2.674730643058    -1.324603329098     1.050707667955     1.007825032070
           H         -3.934726643058     0.849494670902    -0.693783332045     1.007825032070
           H         -4.809636643058    -0.393738329098     0.181893667955     1.007825032070
           H         -3.934131643058     0.847406670902     1.059888667955     1.007825032070
           C          3.181829356942     0.366081670902    -0.970716332045    12.000000000000
           H          3.038321356942     1.432127670902    -1.072889332045     1.007825032070
           H          3.645831356942    -0.035519329098    -1.858053332045     1.007825032070
           H          3.798625356942     0.172076670902    -0.105018332045     1.007825032070

  Charge       = 0
  Multiplicity = 1
  Basis Set: 6-31G*
  Basis Set:

    Orbital Energies (a.u.)
    -----------------------

    Doubly Occupied:

       1A    -20.605202     2A    -20.543426     3A    -11.371716
       4A    -11.280415     5A    -11.233726     6A    -11.226377
       7A    -11.223098     8A    -11.212986     9A     -1.469286
      10A     -1.361938    11A     -1.091516    12A     -1.025137
      13A     -0.969186    14A     -0.888176    15A     -0.806804
      16A     -0.771343    17A     -0.694459    18A     -0.681105
      19A     -0.672531    20A     -0.646332    21A     -0.599311
      22A     -0.592040    23A     -0.574432    24A     -0.551391
      25A     -0.534566    26A     -0.523400    27A     -0.502676
      28A     -0.481326    29A     -0.478945    30A     -0.472555
      31A     -0.454531    32A     -0.432445

  @DF-RHF Final Energy:  -383.93958159937449

   => Energetics <=

    Nuclear Repulsion Energy =            381.3873899644169114
    One-Electron Energy =               -1278.7088538177767987
    Two-Electron Energy =                 513.3818822539847133
    DFT Exchange-Correlation Energy =       0.0000000000000000
    Empirical Dispersion Energy =           0.0000000000000000
    PCM Polarization Energy =               0.0000000000000000
    EFP Energy =                            0.0000000000000000
    Total Energy =                       -383.9395815993751739

  Mulliken Charges: (a.u.)
   Center  Symbol    Alpha    Beta     Spin     Total
       1     O     4.28598  4.28598  0.00000 -0.57197
       2     C     2.60829  2.60829  0.00000  0.78341
       3     C     3.20643  3.20643  0.00000 -0.41287
       4     O     4.30365  4.30365  0.00000 -0.60730
       5     C     3.15906  3.15906  0.00000 -0.31812
       6     H     0.40035  0.40035  0.00000  0.19930
       7     H     0.40128  0.40128  0.00000  0.19744
       8     C     3.15379  3.15379  0.00000 -0.30757
       9     H     0.41643  0.41643  0.00000  0.16714
      10     H     0.40559  0.40559  0.00000  0.18881
      11     C     3.24007  3.24007  0.00000 -0.48015
      12     H     0.42133  0.42133  0.00000  0.15734
      13     H     0.42062  0.42062  0.00000  0.15877
      14     H     0.42049  0.42049  0.00000  0.15902
      15     H     0.41787  0.41787  0.00000  0.16426
      16     H     0.41920  0.41920  0.00000  0.16161
      17     C     3.09345  3.09345  0.00000 -0.18690
      18     H     0.40884  0.40884  0.00000  0.18233
      19     H     0.40852  0.40852  0.00000  0.18297
      20     H     0.40877  0.40877  0.00000  0.18247

   Total alpha = 32.00000, Total beta = 32.00000, Total charge = -0.00000
