  ==> Input File <==

--------------------------------------------------------------------------
set {
	reference rhf
	basis 6-31G*
}

set_num_threads( 1 )
memory 2 gb

molecule MOL {
0 1

O	 1.214711	 1.306902	 -0.000018
C	 1.122059	 0.121804	 -0.000188
C	 -0.170150	 -0.657997	 -0.000612
O	 2.172624	 -0.688929	 0.000216
C	 -1.412532	 0.227344	 -0.000452
H	 -0.153702	 -1.313099	 -0.867402
H	 -0.153924	 -1.313811	 0.865644
C	 -1.435176	 1.197164	 1.182047
H	 -2.298955	 -0.399020	 0.020208
H	 -1.457242	 0.782257	 -0.932426
C	 -2.675999	 2.088965	 1.189242
H	 -1.389384	 0.636038	 2.113238
H	 -0.543599	 1.820527	 1.157981
H	 -3.584011	 1.495869	 1.247598
H	 -2.667553	 2.766443	 2.037315
H	 -2.731850	 2.689258	 0.285821
C	 3.452279	 -0.082609	 0.000533
H	 3.583069	 0.529321	 -0.880332
H	 4.163299	 -0.894027	 0.001117
H	 3.582335	 0.529955	 0.881077

	symmetry c1
}
set optking {
	frozen_dihedral = ("
		9 5 8 12,
		1 2 3 6,
		1 2 4 17
	")
}

ee = energy('scf')
oeprop('DIPOLE', 'QUADRUPOLE', 'MULLIKEN_CHARGES')
f=open( 'psi4out.xyz', 'w' )
f.write( "20  " )
f.write( str(ee) + "\n" )
f.write( MOL.save_string_xyz() )
f.close()
--------------------------------------------------------------------------

    Molecular point group: c1

    Geometry (in Angstrom), charge = 0, multiplicity = 1:

       Center              X                  Y                   Z               Mass
    ------------   -----------------  -----------------  -----------------  -----------------
           O          0.895408579279     0.858884489154    -0.296581930923    15.994914619560
           C          0.802756579279    -0.326213510846    -0.296751930923    12.000000000000
           C         -0.489452420721    -1.106014510846    -0.297175930923    12.000000000000
           O          1.853321579279    -1.136946510846    -0.296347930923    15.994914619560
           C         -1.731834420721    -0.220673510846    -0.297015930923    12.000000000000
           H         -0.473004420721    -1.761116510846    -1.163965930923     1.007825032070
           H         -0.473226420721    -1.761828510846     0.569080069077     1.007825032070
           C         -1.754478420721     0.749146489154     0.885483069077    12.000000000000
           H         -2.618257420721    -0.847037510846    -0.276355930923     1.007825032070
           H         -1.776544420721     0.334239489154    -1.228989930923     1.007825032070
           C         -2.995301420721     1.640947489154     0.892678069077    12.000000000000
           H         -1.708686420721     0.188020489154     1.816674069077     1.007825032070
           H         -0.862901420721     1.372509489154     0.861417069077     1.007825032070
           H         -3.903313420721     1.047851489154     0.951034069077     1.007825032070
           H         -2.986855420721     2.318425489154     1.740751069077     1.007825032070
           H         -3.051152420721     2.241240489154    -0.010742930923     1.007825032070
           C          3.132976579279    -0.530626510846    -0.296030930923    12.000000000000
           H          3.263766579279     0.081303489154    -1.176895930923     1.007825032070
           H          3.843996579279    -1.342044510846    -0.295446930923     1.007825032070
           H          3.263032579279     0.081937489154     0.584513069077     1.007825032070

  Charge       = 0
  Multiplicity = 1
  Basis Set: 6-31G*
  Basis Set:

    Orbital Energies (a.u.)
    -----------------------

    Doubly Occupied:

       1A    -20.605705     2A    -20.547402     3A    -11.374854
       4A    -11.282265     5A    -11.236291     6A    -11.219282
       7A    -11.204078     8A    -11.202126     9A     -1.471924
      10A     -1.366298    11A     -1.085715    12A     -1.019554
      13A     -0.968034    14A     -0.881962    15A     -0.802265
      16A     -0.769024    17A     -0.701138    18A     -0.682149
      19A     -0.673949    20A     -0.631543    21A     -0.605688
      22A     -0.583500    23A     -0.575750    24A     -0.543301
      25A     -0.534108    26A     -0.518376    27A     -0.507720
      28A     -0.480378    29A     -0.468759    30A     -0.460468
      31A     -0.455359    32A     -0.426580

  @DF-RHF Final Energy:  -383.93718514757529

   => Energetics <=

    Nuclear Repulsion Energy =            392.2198066056287189
    One-Electron Energy =               -1300.5429688700876341
    Two-Electron Energy =                 524.3859771168836232
    DFT Exchange-Correlation Energy =       0.0000000000000000
    Empirical Dispersion Energy =           0.0000000000000000
    PCM Polarization Energy =               0.0000000000000000
    EFP Energy =                            0.0000000000000000
    Total Energy =                       -383.9371851475752919

  Mulliken Charges: (a.u.)
   Center  Symbol    Alpha    Beta     Spin     Total
       1     O     4.28625  4.28625  0.00000 -0.57251
       2     C     2.60459  2.60459  0.00000  0.79082
       3     C     3.21007  3.21007  0.00000 -0.42014
       4     O     4.30687  4.30687  0.00000 -0.61374
       5     C     3.15226  3.15226  0.00000 -0.30453
       6     H     0.39792  0.39792  0.00000  0.20416
       7     H     0.40007  0.40007  0.00000  0.19987
       8     C     3.16606  3.16606  0.00000 -0.33211
       9     H     0.41832  0.41832  0.00000  0.16335
      10     H     0.41453  0.41453  0.00000  0.17094
      11     C     3.23904  3.23904  0.00000 -0.47807
      12     H     0.42914  0.42914  0.00000  0.14173
      13     H     0.39014  0.39014  0.00000  0.21972
      14     H     0.42574  0.42574  0.00000  0.14853
      15     H     0.41959  0.41959  0.00000  0.16081
      16     H     0.42091  0.42091  0.00000  0.15819
      17     C     3.09256  3.09256  0.00000 -0.18512
      18     H     0.40885  0.40885  0.00000  0.18229
      19     H     0.40804  0.40804  0.00000  0.18392
      20     H     0.40906  0.40906  0.00000  0.18189

   Total alpha = 32.00000, Total beta = 32.00000, Total charge = -0.00000
