  ==> Input File <==

--------------------------------------------------------------------------
set {
	reference rhf
	basis 6-31G*
}

set_num_threads( 4 )
memory 2 gb

molecule MOL {
0 1

H	 -3.650283	 0.221984	 0.000000
C	 -2.577024	 0.154109	 0.000000
C	 -1.960329	 -1.089307	 0.000000
C	 -1.811733	 1.307557	 0.000000
H	 -2.554473	 -1.985285	 0.000000
C	 -0.581547	 -1.175855	 0.000000
H	 -2.287118	 2.271701	 0.000000
C	 -0.428719	 1.219221	 0.000000
H	 -0.090826	 -2.129898	 0.000000
C	 0.198341	 -0.021559	 0.000000
H	 0.149947	 2.124040	 0.000000
C	 1.691355	 -0.173192	 0.000000
C	 2.298424	 -1.484743	 -0.452597
O	 2.393587	 0.728042	 0.352169
H	 1.957699	 -2.305077	 0.170893
H	 3.373962	 -1.406616	 -0.384752
H	 2.018300	 -1.708381	 -1.476949

	symmetry c1
}
set optking {
	frozen_dihedral = ("
		13 12 10 8
	")
}

ee = optimize('scf')
oeprop('DIPOLE', 'QUADRUPOLE', 'MULLIKEN_CHARGES')
f=open( 'psi4out.xyz', 'w' )
f.write( "17  " )
f.write( str(ee) + "\n" )
f.write( MOL.save_string_xyz() )
f.close()
--------------------------------------------------------------------------

    Molecular point group: c1
  Charge       = 0
  Multiplicity = 1
  Basis Set: 6-31G*
  Basis Set:
  @DF-RHF Final Energy:  -382.47266323858531
    Total Energy =                       -382.4726632385852554
    Molecular point group: c1
  Basis Set: 6-31G*
  Basis Set:
  Basis Set: 6-31G*
  Basis Set:
  @DF-RHF Final Energy:  -382.47347534982902
    Total Energy =                       -382.4734753498286182
  Basis Set: 6-31G*
  Basis Set:
  Basis Set: 6-31G*
  Basis Set:
  @DF-RHF Final Energy:  -382.47457984432884
    Total Energy =                       -382.4745798443283320
  Basis Set: 6-31G*
  Basis Set:
  Basis Set: 6-31G*
  Basis Set:
  @DF-RHF Final Energy:  -382.47489732920860
    Total Energy =                       -382.4748973292086021
  Basis Set: 6-31G*
  Basis Set:
  Basis Set: 6-31G*
  Basis Set:
  @DF-RHF Final Energy:  -382.47489430359036
    Total Energy =                       -382.4748943035896218
  Basis Set: 6-31G*
  Basis Set:
  Basis Set: 6-31G*
  Basis Set:
  @DF-RHF Final Energy:  -382.47495446842845
    Total Energy =                       -382.4749544684286775
  Basis Set: 6-31G*
  Basis Set:
  Basis Set: 6-31G*
  Basis Set:
  @DF-RHF Final Energy:  -382.47495678571096
    Total Energy =                       -382.4749567857104466
  Basis Set: 6-31G*
  Basis Set:
  Charge       = 0
  Multiplicity = 1
  Basis Set: 6-31G*
  Basis Set:

    Orbital Energies (a.u.)
    -----------------------

    Doubly Occupied:

       1A    -20.550546     2A    -11.331726     3A    -11.248564
       4A    -11.245676     5A    -11.243323     6A    -11.240657
       7A    -11.240619     8A    -11.238156     9A    -11.229783
      10A     -1.396906    11A     -1.165692    12A     -1.049802
      13A     -1.026433    14A     -0.996316    15A     -0.860989
      16A     -0.835092    17A     -0.759808    18A     -0.708423
      19A     -0.655595    20A     -0.646521    21A     -0.624915
      22A     -0.609265    23A     -0.598680    24A     -0.594586
      25A     -0.554193    26A     -0.525182    27A     -0.516898
      28A     -0.500565    29A     -0.491073    30A     -0.410613
      31A     -0.345355    32A     -0.341512

  @DF-RHF Final Energy:  -382.47495738081369

   => Energetics <=

    Nuclear Repulsion Energy =            403.5150682706756129
    One-Electron Energy =               -1318.4131225995738532
    Two-Electron Energy =                 532.4230969480842077
    DFT Exchange-Correlation Energy =       0.0000000000000000
    Empirical Dispersion Energy =           0.0000000000000000
    PCM Polarization Energy =               0.0000000000000000
    EFP Energy =                            0.0000000000000000
    Total Energy =                       -382.4749573808140894
    Molecular point group: c1
  Basis Set: 6-31G*
  Basis Set:

  -Total Gradient:
     Atom            X                  Y                   Z
    ------   -----------------  -----------------  -----------------
       1       -0.000000485971    -0.000002283261     0.000011277150
       2       -0.000004437781    -0.000032473175    -0.000032821901
       3       -0.000023078564     0.000018877960     0.000000036951
       4        0.000029808856     0.000013793272     0.000007730811
       5       -0.000001544635    -0.000000617719     0.000003107158
       6        0.000024481650    -0.000002185448     0.000011916374
       7        0.000001082111    -0.000001352052    -0.000001586801
       8       -0.000020326979    -0.000007436385    -0.002077192920
       9       -0.000003068710     0.000005656474    -0.000005813202
      10        0.000007507435     0.000325262146     0.002136418560
      11        0.000001725658     0.000006045591    -0.000008858683
      12       -0.000005465052    -0.000985476856     0.001758137095
      13        0.000023906383     0.000662082048    -0.001775251439
      14       -0.000021542293    -0.000005399660     0.000001678848
      15        0.000000025967     0.000002459215    -0.000013381586
      16       -0.000001423112    -0.000001149083    -0.000004774899
      17       -0.000007164965     0.000004196931    -0.000010621518

  **** Optimization is complete! (in 8 steps) ****
    Final optimized geometry and variables:
    Molecular point group: c1

    Geometry (in Angstrom), charge = 0, multiplicity = 1:

    H           -3.639460932818     0.343210232803    -0.009413592766
    C           -2.568695112466     0.243985054664     0.001765332399
    C           -1.990927509274    -1.014258977215    -0.001045277562
    C           -1.767101127268     1.376539848745     0.016215102700
    H           -2.609926103482    -1.893162364667    -0.011399365867
    C           -0.611176550172    -1.141334453940     0.004151945855
    H           -2.215232208883     2.353750422899     0.013175606455
    C           -0.391159805265     1.248466050382     0.035162799491
    H           -0.177663562226    -2.124287676196    -0.005872663255
    C            0.199488266092    -0.012369156278     0.032625723543
    H            0.240580225215     2.115774307136     0.054126003000
    C            1.697814483622    -0.094992762131     0.025895205361
    C            2.357358219780    -1.379692276522    -0.430563473592
    O            2.359265468398     0.850954986051     0.336394970322
    H            2.164201920955    -2.185667177815     0.270765673493
    H            3.423913744291    -1.216982645412    -0.491093455071
    H            1.976675661886    -1.686110793180    -1.399031615270

  Mulliken Charges: (a.u.)
   Center  Symbol    Alpha    Beta     Spin     Total
       1     H     0.39541  0.39541  0.00000  0.20917
       2     C     3.09272  3.09272  0.00000 -0.18544
       3     C     3.10416  3.10416  0.00000 -0.20831
       4     C     3.10370  3.10370  0.00000 -0.20741
       5     H     0.39638  0.39638  0.00000  0.20723
       6     C     3.10284  3.10284  0.00000 -0.20569
       7     H     0.39523  0.39523  0.00000  0.20955
       8     C     3.09000  3.09000  0.00000 -0.18001
       9     H     0.39401  0.39401  0.00000  0.21198
      10     C     3.05396  3.05396  0.00000 -0.10793
      11     H     0.37751  0.37751  0.00000  0.24497
      12     C     2.72936  2.72936  0.00000  0.54129
      13     C     3.29217  3.29217  0.00000 -0.58435
      14     O     4.26676  4.26676  0.00000 -0.53351
      15     H     0.40694  0.40694  0.00000  0.18612
      16     H     0.39371  0.39371  0.00000  0.21258
      17     H     0.40513  0.40513  0.00000  0.18974

   Total alpha = 32.00000, Total beta = 32.00000, Total charge = -0.00000
