                              Psi4 1.0.54 Driver

  ==> Input File <==

--------------------------------------------------------------------------
set {
	reference rhf
	basis cc-pvtz
}

set_num_threads( 4 )
memory 2 gb

molecule MOL {
0 1

H	 -0.530252	 1.622412	 -1.995117
C	 -1.238182	 1.186733	 -1.297506
O	 -0.775228	 0.000056	 -0.739966
H	 -2.140164	 0.944281	 -1.841379
H	 -1.486280	 1.929865	 -0.546616
C	 0.406133	 -0.000384	 0.036994
C	 1.526415	 -0.003194	 -0.997339
C	 0.498772	 1.259027	 0.900673
C	 0.495883	 -1.257378	 0.904465
H	 1.452279	 0.872071	 -1.630204
H	 1.451276	 -0.881020	 -1.626529
H	 2.497919	 -0.002741	 -0.517601
H	 0.368981	 2.144239	 0.289753
H	 1.470064	 1.313479	 1.377660
H	 -0.248448	 1.271586	 1.684297
H	 0.363971	 -2.144195	 0.296316
H	 1.467114	 -1.312636	 1.381470
H	 -0.251246	 -1.265768	 1.688235

	symmetry c1
}
set optking {
	frozen_dihedral = ("
		2 3 6 7
	")
}

ee,wfn = optimize('scf', return_wfn=True)
oeprop( wfn, 'DIPOLE', 'QUADRUPOLE', 'MULLIKEN_CHARGES')
f=open( 'psi4out.xyz', 'w' )
f.write( "18  " )
f.write( str(ee) + "\n" )
f.write( MOL.save_string_xyz() )
f.close()
--------------------------------------------------------------------------

    Molecular point group: c1
  Charge       = 0
  Multiplicity = 1
  Basis Set: CC-PVTZ
  Basis Set:
  @DF-RHF Final Energy:  -271.26995739436143
    Total Energy =                       -271.2699573943611995
    Molecular point group: c1
  Basis Set: CC-PVTZ
  Basis Set:
  Basis Set: CC-PVTZ
  Basis Set:
  @DF-RHF Final Energy:  -271.25655475555942
    Total Energy =                       -271.2565547555593639
  Basis Set: CC-PVTZ
  Basis Set:
  Basis Set: CC-PVTZ
  Basis Set:
  @DF-RHF Final Energy:  -271.27532583506883
    Total Energy =                       -271.2753258350686565
  Basis Set: CC-PVTZ
  Basis Set:
  Basis Set: CC-PVTZ
  Basis Set:
  @DF-RHF Final Energy:  -271.27608442189074
    Total Energy =                       -271.2760844218908005
  Basis Set: CC-PVTZ
  Basis Set:
  Basis Set: CC-PVTZ
  Basis Set:
  @DF-RHF Final Energy:  -271.27624922273736
    Total Energy =                       -271.2762492227372491
  Basis Set: CC-PVTZ
  Basis Set:
  Basis Set: CC-PVTZ
  Basis Set:
  @DF-RHF Final Energy:  -271.27625885972475
    Total Energy =                       -271.2762588597248623
  Basis Set: CC-PVTZ
  Basis Set:
  Basis Set: CC-PVTZ
  Basis Set:
  @DF-RHF Final Energy:  -271.27628725889696
    Total Energy =                       -271.2762872588967866
  Basis Set: CC-PVTZ
  Basis Set:
  Charge       = 0
  Multiplicity = 1
  Basis Set: CC-PVTZ
  Basis Set:

    Orbital Energies (a.u.)
    -----------------------

    Doubly Occupied:

       1A    -20.540195     2A    -11.280134     3A    -11.258638
       4A    -11.209491     5A    -11.205050     6A    -11.201726
       7A     -1.373218     8A     -1.074730     9A     -0.948676
      10A     -0.939040    11A     -0.912914    12A     -0.753357
      13A     -0.656980    14A     -0.647344    15A     -0.639732
      16A     -0.591384    17A     -0.574988    18A     -0.552981
      19A     -0.535407    20A     -0.525681    21A     -0.515226
      22A     -0.490601    23A     -0.487041    24A     -0.441789
      25A     -0.405567

  @DF-RHF Final Energy:  -271.27628815026384

   => Energetics <=

    Nuclear Repulsion Energy =            272.6741342247516400
    One-Electron Energy =                -908.3770673360545516
    Two-Electron Energy =                 364.4266449610393011
    DFT Exchange-Correlation Energy =       0.0000000000000000
    Empirical Dispersion Energy =           0.0000000000000000
    PCM Polarization Energy =               0.0000000000000000
    EFP Energy =                            0.0000000000000000
    Total Energy =                       -271.2762881502635537
    Molecular point group: c1
  Basis Set: CC-PVTZ
  Basis Set:

  -Total Gradient:
     Atom            X                  Y                   Z
    ------   -----------------  -----------------  -----------------
       1        0.000027399491     0.000004022176    -0.000010623066
       2       -0.000972441611     0.000609252305     0.001404190958
       3        0.001489796582    -0.001426937124    -0.001954273124
       4       -0.000021513064    -0.000018539041    -0.000005860285
       5       -0.000006179286     0.000000765385    -0.000004360305
       6       -0.000710487327     0.002286974574     0.000137487489
       7        0.000139806203    -0.001441949579     0.000423546945
       8        0.000060558832     0.000020559174    -0.000012088823
       9        0.000016820366    -0.000020667684    -0.000008865061
      10       -0.000012815891    -0.000000795354    -0.000006391252
      11       -0.000002652563    -0.000018868091     0.000010400217
      12       -0.000008170317     0.000008310172     0.000005331299
      13        0.000004424617     0.000006007958    -0.000007006602
      14        0.000025187755    -0.000002742658     0.000009372494
      15       -0.000027324296    -0.000009577090     0.000029656842
      16        0.000014160233     0.000001631813    -0.000005420087
      17       -0.000014139497     0.000014647980     0.000002803595
      18       -0.000002430224    -0.000012094914    -0.000007901235

  **** Optimization is complete! (in 8 steps) ****
    Final optimized geometry and variables:
    Molecular point group: c1

    Geometry (in Angstrom), charge = 0, multiplicity = 1:

    H           -0.794669543044     0.924214573344    -2.008408184321
    C           -1.482863939513     0.533744513345    -1.264108499722
    O           -0.892188777628    -0.409713644297    -0.430908123077
    H           -2.288761786242     0.033214441925    -1.782125464188
    H           -1.900742425204     1.367669241251    -0.710173271945
    C            0.305652258858    -0.093620419707     0.253379816708
    C            1.493448925184    -0.245509069730    -0.698384435682
    C            0.273095764144     1.305798273574     0.867853502730
    C            0.394283316493    -1.140929525993     1.358801183951
    H            1.445998187347     0.466880233738    -1.513493991022
    H            1.504562919203    -1.242462428277    -1.120440546823
    H            2.428333938908    -0.082878966933    -0.174547024548
    H            0.270291865579     2.083874159970     0.114730449288
    H            1.150484846377     1.452877332471     1.485592857372
    H           -0.603414811957     1.429761296235     1.492793006261
    H            0.363992121033    -2.135004861380     0.931395376906
    H            1.314005548832    -1.034643854675     1.922021869200
    H           -0.442148588676    -1.041359992493     2.039200752689

  Mulliken Charges: (a.u.)
   Center  Symbol    Alpha    Beta     Spin     Total
       1     H     0.47024  0.47024  0.00000  0.05951
       2     C     3.04427  3.04427  0.00000 -0.08854
       3     O     4.19197  4.19197  0.00000 -0.38394
       4     H     0.44183  0.44183  0.00000  0.11634
       5     H     0.46699  0.46699  0.00000  0.06602
       6     C     2.87440  2.87440  0.00000  0.25120
       7     C     3.15429  3.15429  0.00000 -0.30858
       8     C     3.17114  3.17114  0.00000 -0.34229
       9     C     3.14143  3.14143  0.00000 -0.28285
      10     H     0.44979  0.44979  0.00000  0.10042
      11     H     0.44742  0.44742  0.00000  0.10517
      12     H     0.45181  0.45181  0.00000  0.09638
      13     H     0.44658  0.44658  0.00000  0.10683
      14     H     0.44531  0.44531  0.00000  0.10938
      15     H     0.44483  0.44483  0.00000  0.11033
      16     H     0.44782  0.44782  0.00000  0.10436
      17     H     0.45937  0.45937  0.00000  0.08125
      18     H     0.45050  0.45050  0.00000  0.09900

   Total alpha = 25.00000, Total beta = 25.00000, Total charge = -0.00000

*** Psi4 exiting successfully. Buy a developer a beer!
