  ==> Input File <==

--------------------------------------------------------------------------
set {
	reference rhf
	basis 6-31G*
}

set_num_threads( 1 )
memory 2 gb

molecule MOL {
0 1

O	 -1.276010	 1.052711	 -0.768302
C	 -1.204840	 0.067374	 -0.106123
C	 -2.388195	 -0.672128	 0.458071
O	 -0.067104	 -0.527208	 0.221609
H	 -2.388023	 -1.694060	 0.097175
H	 -3.300579	 -0.174919	 0.164318
H	 -2.315377	 -0.706351	 1.539059
C	 -0.056350	 -1.947396	 0.423795
C	 1.108255	 -2.226829	 1.357175
C	 0.070624	 -2.656075	 -0.915719
H	 -0.988111	 -2.222364	 0.895727
H	 0.986756	 -1.691419	 2.291960
H	 1.166291	 -3.288195	 1.575043
H	 2.044617	 -1.917591	 0.905233
H	 0.102516	 -3.730826	 -0.767698
H	 -0.774668	 -2.427935	 -1.552436
H	 0.982803	 -2.353220	 -1.419916

	symmetry c1
}
set optking {
	frozen_dihedral = ("
		11 8 4 2
	")
}

ee = energy('scf')
oeprop('DIPOLE', 'QUADRUPOLE', 'MULLIKEN_CHARGES')
f=open( 'psi4out.xyz', 'w' )
f.write( "17  " )
f.write( str(ee) + "\n" )
f.write( MOL.save_string_xyz() )
f.close()
--------------------------------------------------------------------------

    Molecular point group: c1

    Geometry (in Angstrom), charge = 0, multiplicity = 1:

       Center              X                  Y                   Z               Mass
    ------------   -----------------  -----------------  -----------------  -----------------
           O         -0.730805988349     2.044012808588    -0.862550079728    15.994914619560
           C         -0.659635988349     1.058675808588    -0.200371079728    12.000000000000
           C         -1.842990988349     0.319173808588     0.363822920272    12.000000000000
           O          0.478100011651     0.464093808588     0.127360920272    15.994914619560
           H         -1.842818988349    -0.702758191412     0.002926920272     1.007825032070
           H         -2.755374988349     0.816382808588     0.070069920272     1.007825032070
           H         -1.770172988349     0.284950808588     1.444810920272     1.007825032070
           C          0.488854011651    -0.956094191412     0.329546920272    12.000000000000
           C          1.653459011651    -1.235527191412     1.262926920272    12.000000000000
           C          0.615828011651    -1.664773191412    -1.009967079728    12.000000000000
           H         -0.442906988349    -1.231062191412     0.801478920272     1.007825032070
           H          1.531960011651    -0.700117191412     2.197711920272     1.007825032070
           H          1.711495011651    -2.296893191412     1.480794920272     1.007825032070
           H          2.589821011651    -0.926289191412     0.810984920272     1.007825032070
           H          0.647720011651    -2.739524191412    -0.861946079728     1.007825032070
           H         -0.229463988349    -1.436633191412    -1.646684079728     1.007825032070
           H          1.528007011651    -1.361918191412    -1.514164079728     1.007825032070

  Charge       = 0
  Multiplicity = 1
  Basis Set: 6-31G*
  Basis Set:

    Orbital Energies (a.u.)
    -----------------------

    Doubly Occupied:

       1A    -20.597291     2A    -20.544265     3A    -11.376008
       4A    -11.304063     5A    -11.237233     6A    -11.231093
       7A    -11.227328     8A     -1.462795     9A     -1.366958
      10A     -1.080439    11A     -1.022600    12A     -0.960043
      13A     -0.861215    14A     -0.774855    15A     -0.703178
      16A     -0.671713    17A     -0.665883    18A     -0.629350
      19A     -0.596589    20A     -0.582150    21A     -0.566430
      22A     -0.557284    23A     -0.547671    24A     -0.527153
      25A     -0.512268    26A     -0.490685    27A     -0.445602
      28A     -0.431200

  @DF-RHF Final Energy:  -344.88615482695315

   => Energetics <=

    Nuclear Repulsion Energy =            325.8286614831725387
    One-Electron Energy =               -1115.4830250465390691
    Two-Electron Energy =                 444.7682087364138397
    DFT Exchange-Correlation Energy =       0.0000000000000000
    Empirical Dispersion Energy =           0.0000000000000000
    PCM Polarization Energy =               0.0000000000000000
    EFP Energy =                            0.0000000000000000
    Total Energy =                       -344.8861548269527475

  Mulliken Charges: (a.u.)
   Center  Symbol    Alpha    Beta     Spin     Total
       1     O     4.26873  4.26873  0.00000 -0.53746
       2     C     2.60487  2.60487  0.00000  0.79026
       3     C     3.32072  3.32072  0.00000 -0.64144
       4     O     4.30705  4.30705  0.00000 -0.61410
       5     H     0.40160  0.40160  0.00000  0.19681
       6     H     0.39055  0.39055  0.00000  0.21890
       7     H     0.39870  0.39870  0.00000  0.20259
       8     C     2.94238  2.94238  0.00000  0.11524
       9     C     3.23896  3.23896  0.00000 -0.47793
      10     C     3.24327  3.24327  0.00000 -0.48654
      11     H     0.41076  0.41076  0.00000  0.17849
      12     H     0.41037  0.41037  0.00000  0.17927
      13     H     0.41867  0.41867  0.00000  0.16266
      14     H     0.40815  0.40815  0.00000  0.18370
      15     H     0.41614  0.41614  0.00000  0.16772
      16     H     0.41449  0.41449  0.00000  0.17103
      17     H     0.40460  0.40460  0.00000  0.19081

   Total alpha = 28.00000, Total beta = 28.00000, Total charge =  0.00000
