                              Psi4 1.0.54 Driver

  ==> Input File <==

--------------------------------------------------------------------------
set {
	reference rhf
	basis cc-pvtz
}

set_num_threads( 4 )
memory 2 gb

molecule MOL {
0 1

H	 3.161096	 -0.051866	 0.528681
N	 2.433987	 -0.362316	 -0.080024
C	 1.263552	 0.494993	 0.021953
H	 2.212269	 -1.300568	 0.180477
C	 -0.016533	 -0.325589	 -0.026925
H	 1.280915	 1.180773	 -0.818522
H	 1.263064	 1.106893	 0.925038
C	 -1.280353	 0.525521	 0.047747
H	 -0.016686	 -0.912532	 -0.939714
H	 -0.014099	 -1.037598	 0.796369
C	 -2.560681	 -0.301323	 -0.007747
H	 -1.279957	 1.241025	 -0.770189
H	 -1.270445	 1.110526	 0.963468
H	 -2.617064	 -0.872870	 -0.928010
H	 -3.439525	 0.331102	 0.043462
H	 -2.609427	 -1.002736	 0.818585

	symmetry c1
}
set optking {
	frozen_dihedral = ("
		1 2 3 6
	")
}

ee,wfn = optimize('scf', return_wfn=True)
oeprop( wfn, 'DIPOLE', 'QUADRUPOLE', 'MULLIKEN_CHARGES')
f=open( 'psi4out.xyz', 'w' )
f.write( "16  " )
f.write( str(ee) + "\n" )
f.write( MOL.save_string_xyz() )
f.close()
--------------------------------------------------------------------------

    Molecular point group: c1
  Charge       = 0
  Multiplicity = 1
  Basis Set: CC-PVTZ
  Basis Set:
  @DF-RHF Final Energy:  -212.39707332054860
    Total Energy =                       -212.3970733205485999
    Molecular point group: c1
  Basis Set: CC-PVTZ
  Basis Set:
  Basis Set: CC-PVTZ
  Basis Set:
  @DF-RHF Final Energy:  -212.39722358221087
    Total Energy =                       -212.3972235822110406
  Basis Set: CC-PVTZ
  Basis Set:
  Basis Set: CC-PVTZ
  Basis Set:
  @DF-RHF Final Energy:  -212.39735792826531
    Total Energy =                       -212.3973579282653645
  Basis Set: CC-PVTZ
  Basis Set:
  Basis Set: CC-PVTZ
  Basis Set:
  @DF-RHF Final Energy:  -212.39736097526421
    Total Energy =                       -212.3973609752641210
  Basis Set: CC-PVTZ
  Basis Set:
  Charge       = 0
  Multiplicity = 1
  Basis Set: CC-PVTZ
  Basis Set:

    Orbital Energies (a.u.)
    -----------------------

    Doubly Occupied:

       1A    -15.524839     2A    -11.237797     3A    -11.215688
       4A    -11.213448     5A    -11.208205     6A     -1.176763
       7A     -1.063326     8A     -0.961243     9A     -0.846523
      10A     -0.797432    11A     -0.657621    12A     -0.645682
      13A     -0.599901    14A     -0.580217    15A     -0.571435
      16A     -0.520208    17A     -0.511100    18A     -0.472650
      19A     -0.469847    20A     -0.462592    21A     -0.382464

  @DF-RHF Final Energy:  -212.39736130446249

   => Energetics <=

    Nuclear Repulsion Energy =            186.6560968752625058
    One-Electron Energy =                -655.8689638588493835
    Two-Electron Energy =                 256.8155056791247262
    DFT Exchange-Correlation Energy =       0.0000000000000000
    Empirical Dispersion Energy =           0.0000000000000000
    PCM Polarization Energy =               0.0000000000000000
    EFP Energy =                            0.0000000000000000
    Total Energy =                       -212.3973613044621516
    Molecular point group: c1
  Basis Set: CC-PVTZ
  Basis Set:

  -Total Gradient:
     Atom            X                  Y                   Z
    ------   -----------------  -----------------  -----------------
       1       -0.000982318198    -0.001843250796     0.001941508941
       2        0.000892840564     0.001942282882    -0.002802681992
       3        0.001314033896     0.001593651745     0.002434280971
       4       -0.000004014029    -0.000013794868    -0.000019275581
       5        0.000015021862    -0.000003006266     0.000008552671
       6       -0.001206768462    -0.001671413186    -0.001555880087
       7       -0.000014356773     0.000009712238    -0.000012058248
       8        0.000012324365     0.000008837860     0.000016238529
       9       -0.000002478826    -0.000007979616     0.000002753398
      10       -0.000006681705    -0.000008889851    -0.000000927028
      11       -0.000013782907    -0.000010553526    -0.000007080152
      12        0.000006334266     0.000004378322     0.000004202026
      13       -0.000002559776     0.000004547245    -0.000003401062
      14       -0.000006058446    -0.000002295539     0.000002010535
      15        0.000001092089    -0.000004668892    -0.000004550479
      16       -0.000002627920     0.000002442248    -0.000003692443

  **** Optimization is complete! (in 5 steps) ****
    Final optimized geometry and variables:
    Molecular point group: c1

    Geometry (in Angstrom), charge = 0, multiplicity = 1:

    H            3.163634544240     0.078046856402     0.633779974209
    N            2.465637955069    -0.228693637176    -0.008806062678
    C            1.239321952370     0.554136854497     0.121560197099
    H            2.293760632501    -1.188541424690     0.204065571208
    C            0.001012528218    -0.320565816547    -0.020518926439
    H            1.217174008795     1.300716321545    -0.666125805256
    H            1.194431191594     1.083633899432     1.070354222447
    C           -1.302322426351     0.471669134301    -0.003480436525
    H            0.074364022469    -0.879267058225    -0.950130511348
    H           -0.012269749492    -1.054294710649     0.783063723540
    C           -2.538721582558    -0.410405218255    -0.142207201008
    H           -1.289060928466     1.200994061493    -0.808255508432
    H           -1.367454521582     1.038802342765     0.921081110783
    H           -2.520062219041    -0.965825419134    -1.073883514020
    H           -3.446501987535     0.181617434780    -0.128419986225
    H           -2.600249566338    -1.128882091835     0.668421884136

  Mulliken Charges: (a.u.)
   Center  Symbol    Alpha    Beta     Spin     Total
       1     H     0.43095  0.43095  0.00000  0.13810
       2     N     3.68884  3.68884  0.00000 -0.37768
       3     C     3.01727  3.01727  0.00000 -0.03454
       4     H     0.43200  0.43200  0.00000  0.13599
       5     C     3.08717  3.08717  0.00000 -0.17435
       6     H     0.46292  0.46292  0.00000  0.07415
       7     H     0.46635  0.46635  0.00000  0.06730
       8     C     3.08871  3.08871  0.00000 -0.17742
       9     H     0.45032  0.45032  0.00000  0.09935
      10     H     0.45975  0.45975  0.00000  0.08050
      11     C     3.14911  3.14911  0.00000 -0.29823
      12     H     0.45313  0.45313  0.00000  0.09375
      13     H     0.45538  0.45538  0.00000  0.08925
      14     H     0.45437  0.45437  0.00000  0.09126
      15     H     0.44831  0.44831  0.00000  0.10337
      16     H     0.45541  0.45541  0.00000  0.08919

   Total alpha = 21.00000, Total beta = 21.00000, Total charge =  0.00000

*** Psi4 exiting successfully. Buy a developer a beer!
