  ==> Input File <==

--------------------------------------------------------------------------
set {
	reference rhf
	basis 6-31G*
}

set_num_threads( 4 )
memory 2 gb

molecule MOL {
0 1

H	 -2.273092	 1.173159	 0.000295
O	 -1.438904	 1.618192	 0.000114
C	 -0.409536	 0.736003	 0.000030
C	 0.760571	 1.145991	 -0.619613
C	 -0.506620	 -0.522981	 0.588652
H	 0.792665	 2.124853	 -1.060963
C	 1.852565	 0.300119	 -0.659097
C	 0.606825	 -1.352583	 0.533985
C	 -1.784225	 -0.968496	 1.264114
H	 2.757483	 0.624200	 -1.141372
C	 1.781449	 -0.957133	 -0.080964
H	 0.547909	 -2.328438	 0.984075
H	 -2.624485	 -0.987297	 0.573062
H	 -1.677181	 -1.969241	 1.662896
H	 -2.052601	 -0.319490	 2.095235
H	 2.626865	 -1.620267	 -0.107915

	symmetry c1
}
set optking {
	frozen_dihedral = ("
		4 3 2 1
	")
}

ee = optimize('scf')
oeprop('DIPOLE', 'QUADRUPOLE', 'MULLIKEN_CHARGES')
f=open( 'psi4out.xyz', 'w' )
f.write( "16  " )
f.write( str(ee) + "\n" )
f.write( MOL.save_string_xyz() )
f.close()
--------------------------------------------------------------------------

    Molecular point group: c1
  Charge       = 0
  Multiplicity = 1
  Basis Set: 6-31G*
  Basis Set:
  @DF-RHF Final Energy:  -344.59290459615062
    Total Energy =                       -344.5929045961510155
    Molecular point group: c1
  Basis Set: 6-31G*
  Basis Set:
  Basis Set: 6-31G*
  Basis Set:
  @DF-RHF Final Energy:  -344.59304887468056
    Total Energy =                       -344.5930488746802212
  Basis Set: 6-31G*
  Basis Set:
  Basis Set: 6-31G*
  Basis Set:
  @DF-RHF Final Energy:  -344.59307584357623
    Total Energy =                       -344.5930758435759458
  Basis Set: 6-31G*
  Basis Set:
  Basis Set: 6-31G*
  Basis Set:
  @DF-RHF Final Energy:  -344.59307935109877
    Total Energy =                       -344.5930793510989929
  Basis Set: 6-31G*
  Basis Set:
  Charge       = 0
  Multiplicity = 1
  Basis Set: 6-31G*
  Basis Set:

    Orbital Energies (a.u.)
    -----------------------

    Doubly Occupied:

       1A    -20.584631     2A    -11.290002     3A    -11.235145
       4A    -11.231524     5A    -11.230705     6A    -11.229555
       7A    -11.220964     8A    -11.220321     9A     -1.402032
      10A     -1.148765    11A     -1.047868    12A     -1.003923
      13A     -0.939925    14A     -0.824568    15A     -0.817181
      16A     -0.728671    17A     -0.674817    18A     -0.644471
      19A     -0.614299    20A     -0.596571    21A     -0.574020
      22A     -0.569631    23A     -0.552821    24A     -0.541193
      25A     -0.502154    26A     -0.483059    27A     -0.470742
      28A     -0.329032    29A     -0.307770

  @DF-RHF Final Energy:  -344.59307968651882

   => Energetics <=

    Nuclear Repulsion Energy =            350.0748684933806203
    One-Electron Energy =               -1161.3031783284466201
    Two-Electron Energy =                 466.6352301485469525
    DFT Exchange-Correlation Energy =       0.0000000000000000
    Empirical Dispersion Energy =           0.0000000000000000
    PCM Polarization Energy =               0.0000000000000000
    EFP Energy =                            0.0000000000000000
    Total Energy =                       -344.5930796865191041
    Molecular point group: c1
  Basis Set: 6-31G*
  Basis Set:

  -Total Gradient:
     Atom            X                  Y                   Z
    ------   -----------------  -----------------  -----------------
       1       -0.000014481084     0.000040758826    -0.001415560257
       2       -0.000192195079    -0.000180050612     0.001348208219
       3        0.000550077453     0.000459425161     0.000983588037
       4       -0.000336132986    -0.000365876552    -0.000919264715
       5       -0.000028757993     0.000033276982    -0.000008207065
       6        0.000003033325    -0.000000240492     0.000012529995
       7       -0.000003797804     0.000019272605    -0.000004950900
       8        0.000030421645    -0.000013682901    -0.000046797009
       9        0.000010415237     0.000011453253     0.000024978133
      10        0.000005260444    -0.000010663377     0.000002276952
      11       -0.000012592402    -0.000003859900     0.000042868149
      12       -0.000001451847     0.000009032725     0.000003426944
      13       -0.000011459361    -0.000007366136    -0.000013138236
      14       -0.000000860773     0.000008990384    -0.000005639203
      15       -0.000005603888    -0.000003738519     0.000007947980
      16        0.000008125114     0.000003268552    -0.000012267025

  **** Optimization is complete! (in 5 steps) ****
    Final optimized geometry and variables:
    Molecular point group: c1

    Geometry (in Angstrom), charge = 0, multiplicity = 1:

    H           -2.296932157639     1.141204888499    -0.116008653677
    O           -1.464509062565     1.591308197095    -0.112279196333
    C           -0.431769264592     0.706280067553    -0.143167114846
    C            0.737327306188     1.119178085527    -0.759218205470
    C           -0.532050864062    -0.556389573477     0.437127865450
    H            0.770040280322     2.099837771183    -1.196496854146
    C            1.832129783169     0.274332704872    -0.797941616197
    C            0.577244167743    -1.389563564902     0.374041221314
    C           -1.809384836806    -0.992324794711     1.116867795301
    H            2.739221437191     0.600708731188    -1.274464800173
    C            1.755004717541    -0.987713394239    -0.233576376139
    H            0.517055322964    -2.368733692981     0.816612866387
    H           -2.634978056714    -1.088527710939     0.413005770253
    H           -1.682816237118    -1.958422312638     1.589123083947
    H           -2.112439835582    -0.285520378870     1.883785093952
    H            2.599973968124    -1.651507036281    -0.263753597746

  Mulliken Charges: (a.u.)
   Center  Symbol    Alpha    Beta     Spin     Total
       1     H     0.26889  0.26889  0.00000  0.46223
       2     O     4.38316  4.38316  0.00000 -0.76632
       3     C     2.82180  2.82180  0.00000  0.35639
       4     C     3.11733  3.11733  0.00000 -0.23466
       5     C     3.00472  3.00472  0.00000 -0.00943
       6     H     0.39222  0.39222  0.00000  0.21556
       7     C     3.09707  3.09707  0.00000 -0.19414
       8     C     3.10823  3.10823  0.00000 -0.21647
       9     C     3.26840  3.26840  0.00000 -0.53680
      10     H     0.39893  0.39893  0.00000  0.20213
      11     C     3.10665  3.10665  0.00000 -0.21331
      12     H     0.40151  0.40151  0.00000  0.19698
      13     H     0.41802  0.41802  0.00000  0.16396
      14     H     0.40642  0.40642  0.00000  0.18716
      15     H     0.40579  0.40579  0.00000  0.18841
      16     H     0.40085  0.40085  0.00000  0.19830

   Total alpha = 29.00000, Total beta = 29.00000, Total charge =  0.00000
