                              Psi4 1.0.54 Driver

  ==> Input File <==

--------------------------------------------------------------------------
set {
	reference rhf
	basis cc-pvtz
}

set_num_threads( 4 )
memory 2 gb

molecule MOL {
0 1

O	 2.868453	 1.353349	 -0.000734
C	 2.841259	 0.166180	 -0.000295
C	 1.542794	 -0.614730	 -0.000853
C	 4.113372	 -0.651103	 0.000743
C	 0.288398	 0.247429	 0.000314
H	 1.557171	 -1.273139	 -0.866508
H	 1.557484	 -1.274998	 0.863344
C	 -0.993089	 -0.581367	 -0.000217
H	 0.305153	 0.900562	 -0.864701
H	 0.305567	 0.898805	 0.866656
C	 -2.258482	 0.271340	 0.000669
H	 -1.002280	 -1.233920	 -0.870484
H	 -1.002061	 -1.235367	 0.868958
C	 -2.321200	 1.263781	 1.158194
H	 -3.128870	 -0.379102	 0.038915
H	 -2.326325	 0.812927	 -0.939654
C	 -3.588501	 2.112134	 1.152360
H	 -2.254646	 0.723205	 2.098559
H	 -1.452219	 1.915189	 1.120018
H	 -4.475243	 1.491229	 1.224517
H	 -3.601620	 2.805023	 1.985879
H	 -3.666755	 2.692206	 0.238886
H	 4.145311	 -1.294584	 -0.871587
H	 4.970080	 0.004978	 -0.000091
H	 4.145223	 -1.291980	 0.874988

	symmetry c1
}
set optking {
	frozen_dihedral = ("
		15 11 8 12
	")
}

ee,wfn = optimize('scf', return_wfn=True)
oeprop( wfn, 'DIPOLE', 'QUADRUPOLE', 'MULLIKEN_CHARGES')
f=open( 'psi4out.xyz', 'w' )
f.write( "25  " )
f.write( str(ee) + "\n" )
f.write( MOL.save_string_xyz() )
f.close()
--------------------------------------------------------------------------

    Molecular point group: c1
  Charge       = 0
  Multiplicity = 1
  Basis Set: CC-PVTZ
  Basis Set:
  @DF-RHF Final Energy:  -387.27147320145855
    Total Energy =                       -387.2714732014586616
    Molecular point group: c1
  Basis Set: CC-PVTZ
  Basis Set:
  Basis Set: CC-PVTZ
  Basis Set:
  @DF-RHF Final Energy:  -387.27128758475124
    Total Energy =                       -387.2712875847511214
  Basis Set: CC-PVTZ
  Basis Set:
  Basis Set: CC-PVTZ
  Basis Set:
  @DF-RHF Final Energy:  -387.27257700163329
    Total Energy =                       -387.2725770016335218
  Basis Set: CC-PVTZ
  Basis Set:
  Basis Set: CC-PVTZ
  Basis Set:
  @DF-RHF Final Energy:  -387.27265528486134
    Total Energy =                       -387.2726552848616848
  Basis Set: CC-PVTZ
  Basis Set:
  Basis Set: CC-PVTZ
  Basis Set:
  @DF-RHF Final Energy:  -387.27262831150875
    Total Energy =                       -387.2726283115089245
  Basis Set: CC-PVTZ
  Basis Set:
  Basis Set: CC-PVTZ
  Basis Set:
  @DF-RHF Final Energy:  -387.27263846175606
    Total Energy =                       -387.2726384617565145
  Basis Set: CC-PVTZ
  Basis Set:
  Basis Set: CC-PVTZ
  Basis Set:
  @DF-RHF Final Energy:  -387.27266138901877
    Total Energy =                       -387.2726613890188219
  Basis Set: CC-PVTZ
  Basis Set:
  Charge       = 0
  Multiplicity = 1
  Basis Set: CC-PVTZ
  Basis Set:

    Orbital Energies (a.u.)
    -----------------------

    Doubly Occupied:

       1A    -20.538946     2A    -11.320551     3A    -11.230114
       4A    -11.226608     5A    -11.215539     6A    -11.214233
       7A    -11.212142     8A    -11.211157     9A    -11.205190
      10A     -1.398958    11A     -1.094989    12A     -1.055820
      13A     -1.014192    14A     -0.969947    15A     -0.889634
      16A     -0.830717    17A     -0.775020    18A     -0.732048
      19A     -0.658137    20A     -0.652129    21A     -0.636411
      22A     -0.623459    23A     -0.601633    24A     -0.581475
      25A     -0.570175    26A     -0.562363    27A     -0.549163
      28A     -0.521076    29A     -0.503303    30A     -0.499738
      31A     -0.491875    32A     -0.478711    33A     -0.459604
      34A     -0.459116    35A     -0.447799    36A     -0.401866

  @DF-RHF Final Energy:  -387.27266159679499

   => Energetics <=

    Nuclear Repulsion Energy =            445.8045453944973247
    One-Electron Energy =               -1408.4867392582928005
    Two-Electron Energy =                 575.4095322670007135
    DFT Exchange-Correlation Energy =       0.0000000000000000
    Empirical Dispersion Energy =           0.0000000000000000
    PCM Polarization Energy =               0.0000000000000000
    EFP Energy =                            0.0000000000000000
    Total Energy =                       -387.2726615967947055
    Molecular point group: c1
  Basis Set: CC-PVTZ
  Basis Set:

  -Total Gradient:
     Atom            X                  Y                   Z
    ------   -----------------  -----------------  -----------------
       1        0.000002679484    -0.000001982190     0.000002379591
       2       -0.000002117413    -0.000002926643    -0.000001363370
       3        0.000002571688     0.000001419205     0.000014368185
       4       -0.000002553208     0.000003154208    -0.000017228984
       5       -0.000001019197    -0.000001611457    -0.000008627081
       6        0.000001835774     0.000003173535    -0.000005745475
       7       -0.000002532611    -0.000002686429    -0.000005523727
       8       -0.001028781472    -0.001578733451     0.001729919977
       9        0.000002061235    -0.000002029067     0.000003009767
      10       -0.000000697522     0.000003150167     0.000003190611
      11        0.000130400039     0.000113891588    -0.002544118549
      12        0.000850026643     0.001319500801    -0.001074111393
      13       -0.000000498774    -0.000000120749    -0.000000847737
      14        0.000002614624     0.000005003464    -0.000010686174
      15        0.000043285502     0.000141734341     0.001895840029
      16        0.000002247919     0.000001048667     0.000002582058
      17       -0.000003791435    -0.000002348436     0.000004424517
      18       -0.000001207614    -0.000001154118    -0.000002856508
      19        0.000002978484     0.000002036130     0.000000945222
      20       -0.000001614402    -0.000000023864     0.000000073013
      21        0.000000050009    -0.000000351995    -0.000000115811
      22        0.000002169823    -0.000000932370     0.000000222720
      23        0.000000563091    -0.000004943831     0.000005356898
      24        0.000002595905     0.000001110209     0.000001496421
      25       -0.000001266576     0.000004622287     0.000007415799

  **** Optimization is complete! (in 8 steps) ****
    Final optimized geometry and variables:
    Molecular point group: c1

    Geometry (in Angstrom), charge = 0, multiplicity = 1:

    O            2.636654533789     0.964497650195    -0.327648684275
    C            2.602046258360    -0.221982537245    -0.362276241583
    C            1.301494326649    -0.997248615939    -0.302085999491
    C            3.866415513036    -1.044317327571    -0.469686350283
    C            0.054713989460    -0.129512317198    -0.201082569253
    H            1.258954287864    -1.634578377523    -1.182330031546
    H            1.365830101715    -1.678368533524     0.543647306686
    C           -1.223864451066    -0.963724123127    -0.129655501109
    H            0.013522292584     0.534441668072    -1.057891907212
    H            0.144155597647     0.507899524640     0.668530626814
    C           -2.520685241599    -0.152333440683    -0.159165297711
    H           -1.233116668476    -1.646087693636    -0.975841210684
    H           -1.204426383224    -1.579947042543     0.766183284028
    C           -2.666079851075     0.879495004704     0.958841103625
    H           -3.354932362307    -0.845028501586    -0.086961000792
    H           -2.612730686529     0.346498457832    -1.120640759377
    C           -4.032822932874     1.556989400171     0.957328935267
    H           -2.506842380831     0.393396770115     1.918347612164
    H           -1.896534504935     1.637892371699     0.868728244411
    H           -4.829943950824     0.833716316432     1.094093756247
    H           -4.109346731167     2.288323167156     1.753704365420
    H           -4.212573918773     2.071156795483     0.018883397212
    H            3.838156600488    -1.658513390800    -1.362977077538
    H            4.725669963705    -0.392410492430    -0.504043915162
    H            3.949931185774    -1.713999901713     0.379199087143

  Mulliken Charges: (a.u.)
   Center  Symbol    Alpha    Beta     Spin     Total
       1     O     4.17085  4.17085  0.00000 -0.34169
       2     C     2.86153  2.86153  0.00000  0.27694
       3     C     3.11478  3.11478  0.00000 -0.22956
       4     C     3.15135  3.15135  0.00000 -0.30270
       5     C     3.08584  3.08584  0.00000 -0.17167
       6     H     0.44455  0.44455  0.00000  0.11091
       7     H     0.44530  0.44530  0.00000  0.10941
       8     C     3.10001  3.10001  0.00000 -0.20002
       9     H     0.44577  0.44577  0.00000  0.10846
      10     H     0.44339  0.44339  0.00000  0.11322
      11     C     3.09374  3.09374  0.00000 -0.18747
      12     H     0.45035  0.45035  0.00000  0.09930
      13     H     0.45364  0.45364  0.00000  0.09273
      14     C     3.08814  3.08814  0.00000 -0.17628
      15     H     0.44982  0.44982  0.00000  0.10035
      16     H     0.45267  0.45267  0.00000  0.09466
      17     C     3.15015  3.15015  0.00000 -0.30030
      18     H     0.45489  0.45489  0.00000  0.09022
      19     H     0.44889  0.44889  0.00000  0.10222
      20     H     0.45528  0.45528  0.00000  0.08944
      21     H     0.44807  0.44807  0.00000  0.10386
      22     H     0.45485  0.45485  0.00000  0.09031
      23     H     0.45030  0.45030  0.00000  0.09940
      24     H     0.43538  0.43538  0.00000  0.12925
      25     H     0.45049  0.45049  0.00000  0.09903

   Total alpha = 36.00000, Total beta = 36.00000, Total charge =  0.00000

*** Psi4 exiting successfully. Buy a developer a beer!
