  ==> Input File <==

--------------------------------------------------------------------------
set {
	reference rhf
	basis cc-pvtz
}

set_num_threads( 4 )
memory 2 gb

molecule MOL {
0 1

H	 -3.162190	 0.493205	 -0.000107
C	 -2.363908	 -0.234727	 0.000005
O	 -1.158738	 0.454634	 -0.000087
H	 -2.464314	 -0.863616	 -0.882153
H	 -2.464327	 -0.863359	 0.882345
C	 -0.028611	 -0.359694	 0.000037
C	 1.212847	 0.509314	 -0.000053
H	 -0.034155	 -1.007047	 -0.877198
H	 -0.034195	 -1.006836	 0.877430
C	 1.645561	 0.906720	 1.406779
H	 2.011371	 -0.029158	 -0.498382
H	 1.014634	 1.394715	 -0.593962
H	 1.872566	 0.035116	 2.011644
H	 2.533517	 1.526143	 1.377279
H	 0.869300	 1.468753	 1.915311

	symmetry c1
}
set optking {
	frozen_dihedral = ("
		11 7 6 8
	")
}

ee = optimize('scf')
oeprop('DIPOLE', 'QUADRUPOLE', 'MULLIKEN_CHARGES')
f=open( 'psi4out.xyz', 'w' )
f.write( "15  " )
f.write( str(ee) + "\n" )
f.write( MOL.save_string_xyz() )
f.close()
--------------------------------------------------------------------------

    Molecular point group: c1
  Charge       = 0
  Multiplicity = 1
  Basis Set: CC-PVTZ
  Basis Set:
  @DF-RHF Final Energy:  -232.22581818934620
    Total Energy =                       -232.2258181893462279
    Molecular point group: c1
  Basis Set: CC-PVTZ
  Basis Set:
  Basis Set: CC-PVTZ
  Basis Set:
  @DF-RHF Final Energy:  -232.22618565446678
    Total Energy =                       -232.2261856544668035
  Basis Set: CC-PVTZ
  Basis Set:
  Basis Set: CC-PVTZ
  Basis Set:
  @DF-RHF Final Energy:  -232.22625723450861
    Total Energy =                       -232.2262572345085800
  Basis Set: CC-PVTZ
  Basis Set:
  Basis Set: CC-PVTZ
  Basis Set:
  @DF-RHF Final Energy:  -232.22625856914499
    Total Energy =                       -232.2262585691449885
  Basis Set: CC-PVTZ
  Basis Set:
  Charge       = 0
  Multiplicity = 1
  Basis Set: CC-PVTZ
  Basis Set:

    Orbital Energies (a.u.)
    -----------------------

    Doubly Occupied:

       1A    -20.548676     2A    -11.264570     3A    -11.262207
       4A    -11.212934     5A    -11.204975     6A     -1.382599
       7A     -1.055229     8A     -0.953261     9A     -0.884103
      10A     -0.804296    11A     -0.669647    12A     -0.664842
      13A     -0.634078    14A     -0.585173    15A     -0.577991
      16A     -0.546260    17A     -0.496232    18A     -0.486578
      19A     -0.481979    20A     -0.461579    21A     -0.415116

  @DF-RHF Final Energy:  -232.22625874772552

   => Energetics <=

    Nuclear Repulsion Energy =            192.0553861438152126
    One-Electron Energy =                -695.3786359345073151
    Two-Electron Energy =                 271.0969910429666925
    DFT Exchange-Correlation Energy =       0.0000000000000000
    Empirical Dispersion Energy =           0.0000000000000000
    PCM Polarization Energy =               0.0000000000000000
    EFP Energy =                            0.0000000000000000
    Total Energy =                       -232.2262587477254101
    Molecular point group: c1
  Basis Set: CC-PVTZ
  Basis Set:

  -Total Gradient:
     Atom            X                  Y                   Z
    ------   -----------------  -----------------  -----------------
       1       -0.000001484224     0.000000843220    -0.000001088520
       2        0.000005596974    -0.000000703295    -0.000000856066
       3       -0.000021652400     0.000005282490     0.000001969712
       4       -0.000004155446    -0.000000080465    -0.000001748610
       5       -0.000002227397     0.000000250694     0.000001854855
       6       -0.002737581731     0.004293732310    -0.003618678865
       7        0.001840559350    -0.003013757482     0.005170930311
       8        0.002021136573    -0.003102985986     0.002194866723
       9       -0.000010567865     0.000012670868     0.000003084988
      10       -0.000003707515    -0.000000384731     0.000005090312
      11       -0.001081775875     0.001799332616    -0.003741930212
      12       -0.000002574211     0.000006754546    -0.000000476803
      13       -0.000002048349     0.000006897910    -0.000008740058
      14       -0.000000622888    -0.000002783360    -0.000002669516
      15        0.000001105002    -0.000005069333    -0.000001608253

  **** Optimization is complete! (in 5 steps) ****
    Final optimized geometry and variables:
    Molecular point group: c1

    Geometry (in Angstrom), charge = 0, multiplicity = 1:

    H           -2.983433073391     0.264572900540    -0.250326207049
    C           -2.190738837399    -0.469476043085    -0.262165311795
    O           -0.980513793866     0.210209755795    -0.291961395904
    H           -2.314023335776    -1.102789401489    -1.138327716588
    H           -2.277291284296    -1.092252854905     0.625694161453
    C            0.143033603854    -0.612999879013    -0.321112805420
    C            1.401158258460     0.240382573448    -0.274472791763
    H            0.140957452148    -1.243322764450    -1.209219926006
    H            0.123140984145    -1.293321287461     0.531608785047
    C            1.800649056938     0.670968466401     1.131249310585
    H            2.208959365564    -0.292675442154    -0.765526991385
    H            1.216667317537     1.117323381942    -0.886149028911
    H            2.049983203302    -0.186171231540     1.748039601885
    H            2.664687748599     1.324843564727     1.108730535511
    H            0.990121300038     1.205166421326     1.612617397002

  Mulliken Charges: (a.u.)
   Center  Symbol    Alpha    Beta     Spin     Total
       1     H     0.44711  0.44711  0.00000  0.10578
       2     C     3.03246  3.03246  0.00000 -0.06493
       3     O     4.17461  4.17461  0.00000 -0.34921
       4     H     0.47152  0.47152  0.00000  0.05695
       5     H     0.47165  0.47165  0.00000  0.05671
       6     C     2.96500  2.96500  0.00000  0.07000
       7     C     3.08087  3.08087  0.00000 -0.16175
       8     H     0.46712  0.46712  0.00000  0.06576
       9     H     0.47794  0.47794  0.00000  0.04411
      10     C     3.15019  3.15019  0.00000 -0.30037
      11     H     0.45405  0.45405  0.00000  0.09189
      12     H     0.45169  0.45169  0.00000  0.09661
      13     H     0.45755  0.45755  0.00000  0.08489
      14     H     0.44981  0.44981  0.00000  0.10039
      15     H     0.44842  0.44842  0.00000  0.10315

   Total alpha = 21.00000, Total beta = 21.00000, Total charge = -0.00000
