  ==> Input File <==

--------------------------------------------------------------------------
set {
	reference rhf
	basis 6-31G*
}

set_num_threads( 4 )
memory 2 gb

molecule MOL {
0 1

O	 -1.487788	 1.240889	 -0.102860
C	 -1.083277	 0.139568	 0.115197
C	 0.323299	 -0.082943	 0.642902
C	 -1.933017	 -1.084621	 -0.143902
C	 1.355627	 -0.005344	 -0.493127
H	 0.396251	 -1.044647	 1.143147
H	 0.528637	 0.693580	 1.371677
C	 2.198832	 1.266582	 -0.426371
H	 2.009398	 -0.873911	 -0.455087
H	 0.830131	 -0.051758	 -1.441198
H	 2.914868	 1.300595	 -1.241127
H	 2.753802	 1.323121	 0.505635
H	 1.574914	 2.152579	 -0.495526
H	 -1.393885	 -1.806447	 -0.750509
H	 -2.850323	 -0.799888	 -0.640100
H	 -2.169004	 -1.571158	 0.798858

	symmetry c1
}
set optking {
	frozen_dihedral = ("
		9 5 3 2
	")
}

ee = optimize('scf')
oeprop('DIPOLE', 'QUADRUPOLE', 'MULLIKEN_CHARGES')
f=open( 'psi4out.xyz', 'w' )
f.write( "16  " )
f.write( str(ee) + "\n" )
f.write( MOL.save_string_xyz() )
f.close()
--------------------------------------------------------------------------

    Molecular point group: c1
  Charge       = 0
  Multiplicity = 1
  Basis Set: 6-31G*
  Basis Set:
  @DF-RHF Final Energy:  -270.02490604615298
    Total Energy =                       -270.0249060461529780
    Molecular point group: c1
  Basis Set: 6-31G*
  Basis Set:
  Basis Set: 6-31G*
  Basis Set:
  @DF-RHF Final Energy:  -270.02508052309315
    Total Energy =                       -270.0250805230931519
  Basis Set: 6-31G*
  Basis Set:
  Basis Set: 6-31G*
  Basis Set:
  @DF-RHF Final Energy:  -270.02540623396266
    Total Energy =                       -270.0254062339628263
  Basis Set: 6-31G*
  Basis Set:
  Basis Set: 6-31G*
  Basis Set:
  @DF-RHF Final Energy:  -270.02548960503043
    Total Energy =                       -270.0254896050304296
  Basis Set: 6-31G*
  Basis Set:
  @DF-RHF Final Energy:  -270.02552808884423
    Total Energy =                       -270.0255280888441121
  @DF-RHF Final Energy:  -270.02553767389838
    Total Energy =                       -270.0255376738984410
  @DF-RHF Final Energy:  -270.02554411835001
    Total Energy =                       -270.0255441183501262
  Basis Set: 6-31G*
  Basis Set:
  @DF-RHF Final Energy:  -270.02554934132752
    Total Energy =                       -270.0255493413275190
  Basis Set: 6-31G*
  Basis Set:
  Basis Set: 6-31G*
  Basis Set:
  @DF-RHF Final Energy:  -270.02555361507211
    Total Energy =                       -270.0255536150719422
  Basis Set: 6-31G*
  Basis Set:
  Basis Set: 6-31G*
  Basis Set:
  @DF-RHF Final Energy:  -270.02556042815286
    Total Energy =                       -270.0255604281526303
  Basis Set: 6-31G*
  Basis Set:
  Charge       = 0
  Multiplicity = 1
  Basis Set: 6-31G*
  Basis Set:

    Orbital Energies (a.u.)
    -----------------------

    Doubly Occupied:

       1A    -20.547809     2A    -11.324836     3A    -11.235279
       4A    -11.229642     5A    -11.228441     6A    -11.215883
       7A     -1.393246     8A     -1.080599     9A     -1.011998
      10A     -0.947753    11A     -0.831455    12A     -0.735165
      13A     -0.657439    14A     -0.642887    15A     -0.618084
      16A     -0.595511    17A     -0.582646    18A     -0.557848
      19A     -0.543736    20A     -0.511373    21A     -0.495337
      22A     -0.486209    23A     -0.471990    24A     -0.397410

  @DF-RHF Final Energy:  -270.02556080344220

   => Energetics <=

    Nuclear Repulsion Energy =            238.9352923490887690
    One-Electron Energy =                -839.2365538989379274
    Two-Electron Energy =                 330.2757007464068693
    DFT Exchange-Correlation Energy =       0.0000000000000000
    Empirical Dispersion Energy =           0.0000000000000000
    PCM Polarization Energy =               0.0000000000000000
    EFP Energy =                            0.0000000000000000
    Total Energy =                       -270.0255608034423176
    Molecular point group: c1
  Basis Set: 6-31G*
  Basis Set:

  -Total Gradient:
     Atom            X                  Y                   Z
    ------   -----------------  -----------------  -----------------
       1       -0.000002949879    -0.000011847440     0.000006475242
       2       -0.000224460889    -0.001911119720    -0.000209925648
       3       -0.000095049117     0.002293093935    -0.000105978468
       4       -0.000009937977    -0.000006007704     0.000018828462
       5        0.002064497260     0.001040954455     0.001820677430
       6       -0.000005613057    -0.000003065438     0.000004725082
       7       -0.000005041701     0.000000698705    -0.000001784209
       8        0.000002372453    -0.000005460902    -0.000000106430
       9       -0.001738173703    -0.001402686479    -0.001523321631
      10        0.000008825732     0.000002416135    -0.000001959999
      11       -0.000002343115     0.000000914338    -0.000001089569
      12       -0.000000003184    -0.000001593194    -0.000001950649
      13        0.000001181182     0.000004770502     0.000003144662
      14       -0.000000941050     0.000003752076    -0.000000544123
      15        0.000003454923     0.000002146431    -0.000002320214
      16        0.000004182125    -0.000006965698    -0.000004869937

  **** Optimization is complete! (in 11 steps) ****
    Final optimized geometry and variables:
    Molecular point group: c1

    Geometry (in Angstrom), charge = 0, multiplicity = 1:

    O           -1.466461210206     0.997829075445     0.190481332454
    C           -0.980591820384    -0.091192492963     0.240033814278
    C            0.433613866605    -0.305416115202     0.744732198925
    C           -1.740909668580    -1.318359220591    -0.215943579546
    C            1.454108101870    -0.304493871889    -0.425466474299
    H            0.483942383190    -1.247504534519     1.282040021344
    H            0.660619331547     0.488922758005     1.444800982298
    C            2.292850838058     0.970580990023    -0.478436874438
    H            2.094139872513    -1.177543912683    -0.352432158782
    H            0.929199317619    -0.413824742381    -1.371545239816
    H            2.969757757913     0.956658901530    -1.326825643870
    H            2.888587470158     1.083452595070     0.422359376805
    H            1.656195983299     1.844662417033    -0.569169530922
    H           -1.132151086201    -1.941435473832    -0.863628657339
    H           -2.644066592294    -1.022462653588    -0.731306516542
    H           -2.005333062688    -1.918353957650     0.651015706187

  Mulliken Charges: (a.u.)
   Center  Symbol    Alpha    Beta     Spin     Total
       1     O     4.26067  4.26067  0.00000 -0.52135
       2     C     2.74073  2.74073  0.00000  0.51855
       3     C     3.20380  3.20380  0.00000 -0.40759
       4     C     3.28932  3.28932  0.00000 -0.57865
       5     C     3.16160  3.16160  0.00000 -0.32320
       6     H     0.41368  0.41368  0.00000  0.17264
       7     H     0.39830  0.39830  0.00000  0.20340
       8     C     3.24092  3.24092  0.00000 -0.48184
       9     H     0.41480  0.41480  0.00000  0.17040
      10     H     0.41605  0.41605  0.00000  0.16789
      11     H     0.41810  0.41810  0.00000  0.16380
      12     H     0.41959  0.41959  0.00000  0.16082
      13     H     0.40935  0.40935  0.00000  0.18131
      14     H     0.40999  0.40999  0.00000  0.18003
      15     H     0.39688  0.39688  0.00000  0.20625
      16     H     0.40622  0.40622  0.00000  0.18755

   Total alpha = 24.00000, Total beta = 24.00000, Total charge =  0.00000
