                              Psi4 1.0.54 Driver

  ==> Input File <==

--------------------------------------------------------------------------
set {
	reference rhf
	basis cc-pvtz
}

set_num_threads( 4 )
memory 2 gb

molecule MOL {
0 1

H	 1.131676	 -0.441495	 0.588373
C	 0.848385	 0.440008	 0.000011
C	 -0.623497	 0.751021	 0.000090
O	 1.674365	 1.063329	 -0.571366
C	 -1.523725	 -0.474323	 -0.000013
H	 -0.813143	 1.382932	 -0.864897
H	 -0.813071	 1.382716	 0.865253
H	 -1.342980	 -1.087348	 -0.873016
H	 -2.565269	 -0.177464	 0.000070
H	 -1.342898	 -1.087564	 0.872820

	symmetry c1
}
set optking {
	frozen_dihedral = ("
		4 2 3 6
	")
}

ee,wfn = optimize('scf', return_wfn=True)
oeprop( wfn, 'DIPOLE', 'QUADRUPOLE', 'MULLIKEN_CHARGES')
f=open( 'psi4out.xyz', 'w' )
f.write( "10  " )
f.write( str(ee) + "\n" )
f.write( MOL.save_string_xyz() )
f.close()
--------------------------------------------------------------------------

    Molecular point group: c1
  Charge       = 0
  Multiplicity = 1
  Basis Set: CC-PVTZ
  Basis Set:
  @DF-RHF Final Energy:  -192.02256693993465
    Total Energy =                       -192.0225669399346202
    Molecular point group: c1
  Basis Set: CC-PVTZ
  Basis Set:
  Basis Set: CC-PVTZ
  Basis Set:
  @DF-RHF Final Energy:  -192.02247142872409
    Total Energy =                       -192.0224714287242023
  Basis Set: CC-PVTZ
  Basis Set:
  Basis Set: CC-PVTZ
  Basis Set:
  @DF-RHF Final Energy:  -192.02229595888829
    Total Energy =                       -192.0222959588882929
  Basis Set: CC-PVTZ
  Basis Set:
  Basis Set: CC-PVTZ
  Basis Set:
  @DF-RHF Final Energy:  -192.02298737162187
    Total Energy =                       -192.0229873716218378
  Basis Set: CC-PVTZ
  Basis Set:
  Charge       = 0
  Multiplicity = 1
  Basis Set: CC-PVTZ
  Basis Set:

    Orbital Energies (a.u.)
    -----------------------

    Doubly Occupied:

       1A    -20.553211     2A    -11.323164     3A    -11.238434
       4A    -11.231443     5A     -1.408573     6A     -1.068351
       7A     -0.904187     8A     -0.796752     9A     -0.671253
      10A     -0.643976    11A     -0.627276    12A     -0.562011
      13A     -0.546096    14A     -0.521231    15A     -0.496327
      16A     -0.415117

  @DF-RHF Final Energy:  -192.02299312576710

   => Energetics <=

    Nuclear Repulsion Energy =            117.3218076538217076
    One-Electron Energy =                -492.6747980109304308
    Two-Electron Energy =                 183.3299972313416788
    DFT Exchange-Correlation Energy =       0.0000000000000000
    Empirical Dispersion Energy =           0.0000000000000000
    PCM Polarization Energy =               0.0000000000000000
    EFP Energy =                            0.0000000000000000
    Total Energy =                       -192.0229931257670728
    Molecular point group: c1
  Basis Set: CC-PVTZ
  Basis Set:

  -Total Gradient:
     Atom            X                  Y                   Z
    ------   -----------------  -----------------  -----------------
       1       -0.000043274775    -0.000051218450     0.000018175592
       2       -0.000112162673    -0.000897230820    -0.001279641310
       3        0.000186960663     0.000915017958     0.000896128161
       4       -0.000009124754     0.000580228617     0.000835967336
       5        0.000092271143     0.000157462242    -0.000005595178
       6       -0.000155029924    -0.000765354082    -0.000507060384
       7        0.000052443972     0.000054946227     0.000045264432
       8       -0.000007625697    -0.000012030610    -0.000007806256
       9       -0.000013257642     0.000003587009     0.000002162864
      10        0.000008799688     0.000014591909     0.000002404743

  **** Optimization is complete! (in 5 steps) ****
    Final optimized geometry and variables:
    Molecular point group: c1

    Geometry (in Angstrom), charge = 0, multiplicity = 1:

    H            1.028627210531    -0.868644675291     0.770713849332
    C            0.749997041194    -0.004888558739     0.152299747815
    C           -0.718848035390     0.329837120162     0.135827549099
    O            1.582631153151     0.605489643854    -0.422604178896
    C           -1.610247919796    -0.908908605379     0.147627393388
    H           -0.913630309543     0.952341825417    -0.727111667028
    H           -0.909596544538     0.929765010260     1.022715700821
    H           -1.452245364120    -1.515070670702    -0.737134494046
    H           -2.654625532151    -0.626587914066     0.173616580242
    H           -1.413974104315    -1.528251415088     1.015778580516

  Mulliken Charges: (a.u.)
   Center  Symbol    Alpha    Beta     Spin     Total
       1     H     0.46661  0.46661  0.00000  0.06677
       2     C     2.90121  2.90121  0.00000  0.19757
       3     C     3.08133  3.08133  0.00000 -0.16265
       4     O     4.16353  4.16353  0.00000 -0.32706
       5     C     3.15225  3.15225  0.00000 -0.30449
       6     H     0.44051  0.44051  0.00000  0.11899
       7     H     0.44770  0.44770  0.00000  0.10459
       8     H     0.44906  0.44906  0.00000  0.10188
       9     H     0.44410  0.44410  0.00000  0.11180
      10     H     0.45370  0.45370  0.00000  0.09259

   Total alpha = 16.00000, Total beta = 16.00000, Total charge = -0.00000

*** Psi4 exiting successfully. Buy a developer a beer!
