  ==> Input File <==

--------------------------------------------------------------------------
set {
	reference rhf
	basis 6-31G*
}

set_num_threads( 4 )
memory 2 gb

molecule MOL {
0 1

H	 2.110304	 -0.727540	 -0.807729
O	 2.064459	 -0.086912	 -0.111827
C	 0.745630	 0.005118	 0.354752
H	 0.739005	 0.037656	 1.444976
C	 -0.064159	 -1.194875	 -0.122754
C	 -0.046302	 1.193543	 -0.190431
H	 0.197384	 -1.376065	 -1.160690
H	 0.162855	 -2.097978	 0.431858
C	 -1.535782	 -0.752177	 0.006642
H	 0.154512	 1.271315	 -1.255561
H	 0.226209	 2.140461	 0.267302
C	 -1.509193	 0.801505	 0.065617
H	 -2.127797	 -1.112194	 -0.826847
H	 -1.986849	 -1.158408	 0.905561
H	 -2.183670	 1.254107	 -0.651985
H	 -1.821727	 1.144320	 1.047089

	symmetry c1
}
set optking {
	frozen_dihedral = ("
		1 2 3 6
	")
}

ee = optimize('scf')
oeprop('DIPOLE', 'QUADRUPOLE', 'MULLIKEN_CHARGES')
f=open( 'psi4out.xyz', 'w' )
f.write( "16  " )
f.write( str(ee) + "\n" )
f.write( MOL.save_string_xyz() )
f.close()
--------------------------------------------------------------------------

    Molecular point group: c1
  Charge       = 0
  Multiplicity = 1
  Basis Set: 6-31G*
  Basis Set:
  @DF-RHF Final Energy:  -270.01044903190103
    Total Energy =                       -270.0104490319012029
    Molecular point group: c1
  Basis Set: 6-31G*
  Basis Set:
  Basis Set: 6-31G*
  Basis Set:
  @DF-RHF Final Energy:  -270.01225963559341
    Total Energy =                       -270.0122596355932956
  Basis Set: 6-31G*
  Basis Set:
  Basis Set: 6-31G*
  Basis Set:
  @DF-RHF Final Energy:  -270.01252540923747
    Total Energy =                       -270.0125254092372984
  Basis Set: 6-31G*
  Basis Set:
  Basis Set: 6-31G*
  Basis Set:
  @DF-RHF Final Energy:  -270.01253353108029
    Total Energy =                       -270.0125335310801802
  Basis Set: 6-31G*
  Basis Set:
  Basis Set: 6-31G*
  Basis Set:
  @DF-RHF Final Energy:  -270.01253466839057
    Total Energy =                       -270.0125346683904581
  Basis Set: 6-31G*
  Basis Set:
  Charge       = 0
  Multiplicity = 1
  Basis Set: 6-31G*
  Basis Set:

    Orbital Energies (a.u.)
    -----------------------

    Doubly Occupied:

       1A    -20.550292     2A    -11.268531     3A    -11.220979
       4A    -11.220298     5A    -11.217339     6A    -11.208675
       7A     -1.359829     8A     -1.115703     9A     -0.969535
      10A     -0.948957    11A     -0.801463    12A     -0.782805
      13A     -0.679777    14A     -0.664217    15A     -0.605285
      16A     -0.597462    17A     -0.577959    18A     -0.537213
      19A     -0.503050    20A     -0.485642    21A     -0.473322
      22A     -0.459994    23A     -0.451296    24A     -0.413931

  @DF-RHF Final Energy:  -270.01253514353778

   => Energetics <=

    Nuclear Repulsion Energy =            254.9993881113738610
    One-Electron Energy =                -871.7967400097860491
    Two-Electron Energy =                 346.7848167548744414
    DFT Exchange-Correlation Energy =       0.0000000000000000
    Empirical Dispersion Energy =           0.0000000000000000
    PCM Polarization Energy =               0.0000000000000000
    EFP Energy =                            0.0000000000000000
    Total Energy =                       -270.0125351435377752
    Molecular point group: c1
  Basis Set: 6-31G*
  Basis Set:

  -Total Gradient:
     Atom            X                  Y                   Z
    ------   -----------------  -----------------  -----------------
       1        0.000299674935    -0.001361171747     0.001172718910
       2       -0.000296958546     0.001912478314    -0.001030988318
       3       -0.000318888734    -0.001207032566    -0.001107298074
       4       -0.000010963589     0.000006558603     0.000033087677
       5        0.000113212873     0.000038080617    -0.000030141110
       6        0.000240616476     0.000609890161     0.000950000660
       7        0.000000751708    -0.000018696910     0.000011994503
       8       -0.000002213874     0.000005788654     0.000002752554
       9       -0.000047868450    -0.000004971659     0.000048529479
      10       -0.000007638399     0.000007973814    -0.000009837943
      11        0.000007822123     0.000005211446     0.000000498083
      12        0.000029857037     0.000006289280    -0.000035847341
      13        0.000006655954     0.000009634110    -0.000014604321
      14       -0.000020294412    -0.000016149481    -0.000015363903
      15       -0.000005341643    -0.000000282903     0.000015654385
      16        0.000011576535     0.000006400267     0.000008844758

  **** Optimization is complete! (in 6 steps) ****
    Final optimized geometry and variables:
    Molecular point group: c1

    Geometry (in Angstrom), charge = 0, multiplicity = 1:

    H            2.219160045244    -0.616615091007    -0.768802814233
    O            2.096414875713    -0.021938822921    -0.043218927546
    C            0.746823404554    -0.003250060623     0.338896309253
    H            0.738265252319     0.032138169930     1.424660300702
    C           -0.083149280830    -1.198966408114    -0.129660789642
    C           -0.035884366875     1.192558763895    -0.199225067044
    H            0.141404958386    -1.387428725558    -1.179299466232
    H            0.140040011991    -2.108485982663     0.417404112190
    C           -1.546701141105    -0.738053418441     0.024130712220
    H            0.152629224046     1.276781040590    -1.267207840987
    H            0.262140868066     2.128633368042     0.259025742601
    C           -1.500328184504     0.816552262020     0.070784063680
    H           -2.159552671951    -1.099323329111    -0.793521766835
    H           -1.980450769857    -1.134150490493     0.935681086533
    H           -2.178286726082     1.268668896532    -0.643759116463
    H           -1.801504510485     1.168287538758     1.052408786127

  Mulliken Charges: (a.u.)
   Center  Symbol    Alpha    Beta     Spin     Total
       1     H     0.28111  0.28111  0.00000  0.43779
       2     O     4.38132  4.38132  0.00000 -0.76264
       3     C     2.89858  2.89858  0.00000  0.20283
       4     H     0.42074  0.42074  0.00000  0.15851
       5     C     3.18421  3.18421  0.00000 -0.36841
       6     C     3.16473  3.16473  0.00000 -0.32946
       7     H     0.42620  0.42620  0.00000  0.14761
       8     H     0.41060  0.41060  0.00000  0.17881
       9     C     3.16684  3.16684  0.00000 -0.33369
      10     H     0.42277  0.42277  0.00000  0.15447
      11     H     0.41200  0.41200  0.00000  0.17600
      12     C     3.17116  3.17116  0.00000 -0.34231
      13     H     0.41435  0.41435  0.00000  0.17130
      14     H     0.41486  0.41486  0.00000  0.17028
      15     H     0.41412  0.41412  0.00000  0.17176
      16     H     0.41642  0.41642  0.00000  0.16717

   Total alpha = 24.00000, Total beta = 24.00000, Total charge = -0.00000
