                              Psi4 1.0.54 Driver

  ==> Input File <==

--------------------------------------------------------------------------
set {
	reference rhf
	basis cc-pvtz
}

set_num_threads( 4 )
memory 2 gb

molecule MOL {
0 1

O	 -1.278239	 1.034789	 -0.784693
C	 -1.204115	 0.062668	 -0.112312
C	 -2.386398	 -0.667698	 0.460323
O	 -0.068058	 -0.518372	 0.226882
H	 -2.382952	 -1.693172	 0.114333
H	 -3.296656	 -0.175702	 0.158400
H	 -2.312537	 -0.685191	 1.540100
C	 1.169086	 0.037484	 -0.230612
C	 1.501423	 1.171222	 0.718758
C	 1.028272	 0.492115	 -1.672170
H	 1.922446	 -0.732842	 -0.166302
H	 1.587521	 0.806926	 1.734447
H	 2.443198	 1.626809	 0.437312
H	 0.730902	 1.932503	 0.692566
H	 1.960548	 0.924445	 -2.016337
H	 0.784822	 -0.341670	 -2.315741
H	 0.250929	 1.242704	 -1.759570

	symmetry c1
}
set optking {
	frozen_dihedral = ("
		11 8 4 2
	")
}

ee,wfn = optimize('scf', return_wfn=True)
oeprop( wfn, 'DIPOLE', 'QUADRUPOLE', 'MULLIKEN_CHARGES')
f=open( 'psi4out.xyz', 'w' )
f.write( "17  " )
f.write( str(ee) + "\n" )
f.write( MOL.save_string_xyz() )
f.close()
--------------------------------------------------------------------------

    Molecular point group: c1
  Charge       = 0
  Multiplicity = 1
  Basis Set: CC-PVTZ
  Basis Set:
  @DF-RHF Final Energy:  -345.02100081881878
    Total Energy =                       -345.0210008188185498
    Molecular point group: c1
  Basis Set: CC-PVTZ
  Basis Set:
  Basis Set: CC-PVTZ
  Basis Set:
  @DF-RHF Final Energy:  -345.03411141745846
    Total Energy =                       -345.0341114174585186
  Basis Set: CC-PVTZ
  Basis Set:
  Basis Set: CC-PVTZ
  Basis Set:
  @DF-RHF Final Energy:  -345.03643269744447
    Total Energy =                       -345.0364326974445248
  Basis Set: CC-PVTZ
  Basis Set:
  Basis Set: CC-PVTZ
  Basis Set:
  @DF-RHF Final Energy:  -345.03514980488688
    Total Energy =                       -345.0351498048867143
  Basis Set: CC-PVTZ
  Basis Set:
  @DF-RHF Final Energy:  -345.03676704625786
    Total Energy =                       -345.0367670462577507
  @DF-RHF Final Energy:  -345.03698802740774
    Total Energy =                       -345.0369880274074603
  Basis Set: CC-PVTZ
  Basis Set:
  @DF-RHF Final Energy:  -345.03699632367892
    Total Energy =                       -345.0369963236790909
  Basis Set: CC-PVTZ
  Basis Set:
  Basis Set: CC-PVTZ
  Basis Set:
  @DF-RHF Final Energy:  -345.03699813520120
    Total Energy =                       -345.0369981352008040
  Basis Set: CC-PVTZ
  Basis Set:
  Basis Set: CC-PVTZ
  Basis Set:
  @DF-RHF Final Energy:  -345.03699926705980
    Total Energy =                       -345.0369992670599117
  Basis Set: CC-PVTZ
  Basis Set:
  Charge       = 0
  Multiplicity = 1
  Basis Set: CC-PVTZ
  Basis Set:

    Orbital Energies (a.u.)
    -----------------------

    Doubly Occupied:

       1A    -20.588994     2A    -20.529543     3A    -11.366511
       4A    -11.292816     5A    -11.228948     6A    -11.214566
       7A    -11.211590     8A     -1.464601     9A     -1.363545
      10A     -1.077574    11A     -1.003589    12A     -0.946734
      13A     -0.868429    14A     -0.732935    15A     -0.696804
      16A     -0.673506    17A     -0.662437    18A     -0.616967
      19A     -0.585470    20A     -0.580939    21A     -0.569963
      22A     -0.552131    23A     -0.529955    24A     -0.519904
      25A     -0.501259    26A     -0.483142    27A     -0.448170
      28A     -0.431367

  @DF-RHF Final Energy:  -345.03700022517427

   => Energetics <=

    Nuclear Repulsion Energy =            326.9013778548369942
    One-Electron Energy =               -1118.3919726317303684
    Two-Electron Energy =                 446.4535945517192204
    DFT Exchange-Correlation Energy =       0.0000000000000000
    Empirical Dispersion Energy =           0.0000000000000000
    PCM Polarization Energy =               0.0000000000000000
    EFP Energy =                            0.0000000000000000
    Total Energy =                       -345.0370002251742108
    Molecular point group: c1
  Basis Set: CC-PVTZ
  Basis Set:

  -Total Gradient:
     Atom            X                  Y                   Z
    ------   -----------------  -----------------  -----------------
       1       -0.000036634344    -0.000086228347     0.000061600478
       2       -0.000634411574    -0.002364581879    -0.003400539367
       3        0.000026606779     0.000010716651    -0.000064155910
       4        0.000725396875     0.003607394369     0.004538529229
       5        0.000012682935    -0.000046223223    -0.000011475111
       6       -0.000045785293     0.000021243263    -0.000001505557
       7        0.000018470637     0.000013793370     0.000060172688
       8        0.001053140227     0.000207342130     0.002891473037
       9       -0.000005338402     0.000025683528     0.000025457714
      10        0.000113636427     0.000009726157    -0.000042696332
      11       -0.001232864072    -0.001397702155    -0.004046374667
      12        0.000001709337    -0.000004141884     0.000003372932
      13       -0.000004245967     0.000010173865     0.000003858879
      14       -0.000007845527    -0.000011108686    -0.000002850524
      15        0.000007330617     0.000007156783    -0.000008926728
      16        0.000006992913    -0.000000884919    -0.000003390901
      17        0.000001158430    -0.000002359021    -0.000002549860

  **** Optimization is complete! (in 10 steps) ****
    Final optimized geometry and variables:
    Molecular point group: c1

    Geometry (in Angstrom), charge = 0, multiplicity = 1:

    O           -1.251935776238     0.877960108979    -0.375491020326
    C           -1.078996127641    -0.146306670815     0.192913160498
    C           -2.185749727471    -0.995131998952     0.756586138115
    O            0.099716155740    -0.686864649095     0.433677481695
    H           -2.178887397091    -1.964665644535     0.274827767432
    H           -3.133566981736    -0.507822219559     0.594736533692
    H           -2.021465628027    -1.153404064331     1.814470173039
    C            1.328401873103    -0.185062421263    -0.115068488740
    C            1.846008472348     0.964564916450     0.728411458248
    C            1.259312930982     0.134097019087    -1.602630763569
    H            1.977608649778    -1.043605668519    -0.017018375126
    H            1.913625219339     0.672239103774     1.768817816792
    H            2.834557983112     1.253162810983     0.390683231226
    H            1.192185117952     1.822764931834     0.648306507461
    H            2.274100441695     0.224943751670    -1.973650802242
    H            0.780402935319    -0.673156495414    -2.144040286587
    H            0.729187291362     1.049561663095    -1.806839133603

  Mulliken Charges: (a.u.)
   Center  Symbol    Alpha    Beta     Spin     Total
       1     O     4.20117  4.20117  0.00000 -0.40235
       2     C     2.80198  2.80198  0.00000  0.39605
       3     C     3.13723  3.13723  0.00000 -0.27447
       4     O     4.16372  4.16372  0.00000 -0.32745
       5     H     0.44703  0.44703  0.00000  0.10595
       6     H     0.43892  0.43892  0.00000  0.12215
       7     H     0.44508  0.44508  0.00000  0.10984
       8     C     2.93748  2.93748  0.00000  0.12504
       9     C     3.15375  3.15375  0.00000 -0.30750
      10     C     3.16118  3.16118  0.00000 -0.32236
      11     H     0.44037  0.44037  0.00000  0.11925
      12     H     0.44713  0.44713  0.00000  0.10574
      13     H     0.45124  0.45124  0.00000  0.09751
      14     H     0.44133  0.44133  0.00000  0.11735
      15     H     0.44995  0.44995  0.00000  0.10010
      16     H     0.44885  0.44885  0.00000  0.10229
      17     H     0.43358  0.43358  0.00000  0.13284

   Total alpha = 28.00000, Total beta = 28.00000, Total charge =  0.00000

*** Psi4 exiting successfully. Buy a developer a beer!
