  ==> Input File <==

--------------------------------------------------------------------------
set {
	reference rhf
	basis 6-31G*
}

set_num_threads( 4 )
memory 2 gb

molecule MOL {
0 1

H	 -3.161837	 0.500524	 -0.000234
C	 -2.367097	 -0.232926	 -0.000000
O	 -1.158440	 0.455814	 -0.000122
H	 -2.468853	 -0.861886	 -0.882833
H	 -2.468942	 -0.861421	 0.883154
C	 -0.110471	 -0.223435	 0.622979
C	 1.140686	 0.634607	 0.552048
H	 0.059787	 -1.182506	 0.131964
H	 -0.365788	 -0.435425	 1.662104
C	 2.345651	 -0.033356	 1.212932
H	 1.354530	 0.845834	 -0.491175
H	 0.932014	 1.587679	 1.028292
H	 2.586655	 -0.978670	 0.734683
H	 3.223601	 0.600564	 1.148157
H	 2.160887	 -0.232244	 2.264935

	symmetry c1
}
set optking {
	frozen_dihedral = ("
		6 3 2 4
	")
}

ee = optimize('scf')
oeprop('DIPOLE', 'QUADRUPOLE', 'MULLIKEN_CHARGES')
f=open( 'psi4out.xyz', 'w' )
f.write( "15  " )
f.write( str(ee) + "\n" )
f.write( MOL.save_string_xyz() )
f.close()
--------------------------------------------------------------------------

    Molecular point group: c1
  Charge       = 0
  Multiplicity = 1
  Basis Set: 6-31G*
  Basis Set:
  @DF-RHF Final Energy:  -232.13744643611648
    Total Energy =                       -232.1374464361164769
    Molecular point group: c1
  Basis Set: 6-31G*
  Basis Set:
  Basis Set: 6-31G*
  Basis Set:
  @DF-RHF Final Energy:  -232.13754761403101
    Total Energy =                       -232.1375476140310639
  Basis Set: 6-31G*
  Basis Set:
  Basis Set: 6-31G*
  Basis Set:
  @DF-RHF Final Energy:  -232.13756669222994
    Total Energy =                       -232.1375666922299388
  Basis Set: 6-31G*
  Basis Set:
  Charge       = 0
  Multiplicity = 1
  Basis Set: 6-31G*
  Basis Set:

    Orbital Energies (a.u.)
    -----------------------

    Doubly Occupied:

       1A    -20.551587     2A    -11.266495     3A    -11.263606
       4A    -11.213988     5A    -11.212809     6A     -1.375690
       7A     -1.057078     8A     -0.955408     9A     -0.877185
      10A     -0.808880    11A     -0.672937    12A     -0.652714
      13A     -0.629900    14A     -0.607534    15A     -0.564709
      16A     -0.543626    17A     -0.502347    18A     -0.488566
      19A     -0.478490    20A     -0.460930    21A     -0.410901

  @DF-RHF Final Energy:  -232.13756688180780

   => Energetics <=

    Nuclear Repulsion Energy =            189.5446469137605163
    One-Electron Energy =                -690.1736591356454937
    Two-Electron Energy =                 268.4914453400772345
    DFT Exchange-Correlation Energy =       0.0000000000000000
    Empirical Dispersion Energy =           0.0000000000000000
    PCM Polarization Energy =               0.0000000000000000
    EFP Energy =                            0.0000000000000000
    Total Energy =                       -232.1375668818077429
    Molecular point group: c1
  Basis Set: 6-31G*
  Basis Set:

  -Total Gradient:
     Atom            X                  Y                   Z
    ------   -----------------  -----------------  -----------------
       1       -0.000016789396    -0.000000609128    -0.000001922025
       2        0.001439655462    -0.002575129692     0.002849655017
       3        0.000427005928    -0.000856629148    -0.003516157880
       4       -0.001303059499     0.002379098073    -0.001498356855
       5        0.000006067057     0.000001729465     0.000003007576
       6       -0.000579337383     0.001053962565     0.002136919187
       7       -0.000000756315    -0.000010283755     0.000009913935
       8       -0.000003750043     0.000001624986     0.000008501659
       9       -0.000007057150     0.000006389817    -0.000013664833
      10        0.000027277822     0.000016076132     0.000015042228
      11       -0.000013494936    -0.000010909591     0.000006196091
      12        0.000007106406     0.000000872128    -0.000003402680
      13        0.000000602115     0.000003211965    -0.000003265792
      14        0.000016317126    -0.000005172699     0.000009545040
      15        0.000000212810    -0.000004231118    -0.000002010669

  **** Optimization is complete! (in 4 steps) ****
    Final optimized geometry and variables:
    Molecular point group: c1

    Geometry (in Angstrom), charge = 0, multiplicity = 1:

    H           -3.106235702203     0.402486224006    -0.492336154559
    C           -2.315159995648    -0.336849890240    -0.475781343746
    O           -1.097114657203     0.340937682579    -0.467379381242
    H           -2.414980331716    -0.954184806403    -1.365685610648
    H           -2.441385993390    -0.958185348020     0.406890133821
    C           -0.043472509774    -0.338495437150     0.147935173770
    C            1.202736321709     0.526357521217     0.074179882630
    H            0.132561094491    -1.295309510571    -0.345451486461
    H           -0.294355107046    -0.552953202165     1.186938861651
    C            2.412231704268    -0.133541632642     0.735160336245
    H            1.414492586918     0.737508892360    -0.969457287375
    H            0.988472889520     1.478821324780     0.549207595264
    H            2.658538837415    -1.077982877555     0.257886997482
    H            3.286520946028     0.505338535990     0.669060716293
    H            2.229404733788    -0.332438041259     1.787529031261

  Mulliken Charges: (a.u.)
   Center  Symbol    Alpha    Beta     Spin     Total
       1     H     0.41493  0.41493  0.00000  0.17014
       2     C     3.07753  3.07753  0.00000 -0.15506
       3     O     4.30814  4.30814  0.00000 -0.61628
       4     H     0.42680  0.42680  0.00000  0.14640
       5     H     0.43074  0.43074  0.00000  0.13852
       6     C     2.98150  2.98150  0.00000  0.03701
       7     C     3.15994  3.15994  0.00000 -0.31989
       8     H     0.43370  0.43370  0.00000  0.13261
       9     H     0.43284  0.43284  0.00000  0.13431
      10     C     3.24792  3.24792  0.00000 -0.49583
      11     H     0.41436  0.41436  0.00000  0.17128
      12     H     0.41436  0.41436  0.00000  0.17129
      13     H     0.42086  0.42086  0.00000  0.15827
      14     H     0.41543  0.41543  0.00000  0.16915
      15     H     0.42096  0.42096  0.00000  0.15808

   Total alpha = 21.00000, Total beta = 21.00000, Total charge = -0.00000
