  ==> Input File <==

--------------------------------------------------------------------------
set {
	reference rhf
	basis cc-pvtz
}

set_num_threads( 4 )
memory 2 gb

molecule MOL {
0 1

O	 0.799774	 -1.412859	 2.080984
C	 0.134129	 -1.309046	 1.108349
C	 -1.271507	 -1.819119	 0.968105
O	 0.550743	 -0.719877	 0.000412
H	 -1.934125	 -0.996720	 0.731455
H	 -1.577978	 -2.291035	 1.887291
H	 -1.320810	 -2.526693	 0.150582
C	 1.863204	 -0.194033	 0.000410
H	 2.031502	 0.409177	 -0.879273
H	 2.524488	 -1.045142	 0.000793
H	 2.031291	 0.409823	 0.879686

	symmetry c1
}
set optking {
	frozen_dihedral = ("
		2 4 8 9
	")
}

ee = optimize('scf')
oeprop('DIPOLE', 'QUADRUPOLE', 'MULLIKEN_CHARGES')
f=open( 'psi4out.xyz', 'w' )
f.write( "11  " )
f.write( str(ee) + "\n" )
f.write( MOL.save_string_xyz() )
f.close()
--------------------------------------------------------------------------

    Molecular point group: c1
  Charge       = 0
  Multiplicity = 1
  Basis Set: CC-PVTZ
  Basis Set:
  @DF-RHF Final Energy:  -266.93758380593329
    Total Energy =                       -266.9375838059334001
    Molecular point group: c1
  Basis Set: CC-PVTZ
  Basis Set:
  Basis Set: CC-PVTZ
  Basis Set:
  @DF-RHF Final Energy:  -266.93879396437143
    Total Energy =                       -266.9387939643715981
  Basis Set: CC-PVTZ
  Basis Set:
  Basis Set: CC-PVTZ
  Basis Set:
  @DF-RHF Final Energy:  -266.93866044628157
    Total Energy =                       -266.9386604462816877
  Basis Set: CC-PVTZ
  Basis Set:
  Basis Set: CC-PVTZ
  Basis Set:
  @DF-RHF Final Energy:  -266.93907554599997
    Total Energy =                       -266.9390755459999127
  Basis Set: CC-PVTZ
  Basis Set:
  Basis Set: CC-PVTZ
  Basis Set:
  @DF-RHF Final Energy:  -266.93907875236800
    Total Energy =                       -266.9390787523681183
  Basis Set: CC-PVTZ
  Basis Set:
  Charge       = 0
  Multiplicity = 1
  Basis Set: CC-PVTZ
  Basis Set:

    Orbital Energies (a.u.)
    -----------------------

    Doubly Occupied:

       1A    -20.598732     2A    -20.535248     3A    -11.368921
       4A    -11.279891     5A    -11.233210     6A     -1.474144
       7A     -1.367715     8A     -1.037019     9A     -0.953755
      10A     -0.780155    11A     -0.698239    12A     -0.684520
      13A     -0.681173    14A     -0.596167    15A     -0.593315
      16A     -0.561834    17A     -0.527448    18A     -0.524738
      19A     -0.462248    20A     -0.445937

  @DF-RHF Final Energy:  -266.93907959345654

   => Energetics <=

    Nuclear Repulsion Energy =            183.6778248277952059
    One-Electron Energy =                -728.4249887064613631
    Two-Electron Energy =                 277.8080842852094179
    DFT Exchange-Correlation Energy =       0.0000000000000000
    Empirical Dispersion Energy =           0.0000000000000000
    PCM Polarization Energy =               0.0000000000000000
    EFP Energy =                            0.0000000000000000
    Total Energy =                       -266.9390795934567109
    Molecular point group: c1
  Basis Set: CC-PVTZ
  Basis Set:

  -Total Gradient:
     Atom            X                  Y                   Z
    ------   -----------------  -----------------  -----------------
       1        0.000000275763     0.000003424438    -0.000010662158
       2       -0.000282971432     0.000689970195     0.000271845362
       3       -0.000011010620     0.000006938295     0.000004587861
       4        0.000341063999    -0.000844122398    -0.000292187269
       5        0.000001232455    -0.000003763063    -0.000003131416
       6       -0.000001778583    -0.000002372614     0.000000257037
       7        0.000002371018    -0.000002432052     0.000002443618
       8        0.000246250984    -0.000573949962    -0.000418258521
       9       -0.000300346591     0.000727553946     0.000456250081
      10        0.000002519591    -0.000008535402    -0.000005352191
      11        0.000002393414     0.000007288618    -0.000005792404

  **** Optimization is complete! (in 6 steps) ****
    Final optimized geometry and variables:
    Molecular point group: c1

    Geometry (in Angstrom), charge = 0, multiplicity = 1:

    O            0.362905071268    -0.347922204155     1.256095245496
    C           -0.300279454212    -0.229326690990     0.283501341191
    C           -1.712381848567    -0.720089763886     0.139394803157
    O            0.124422664720     0.359510868638    -0.821687011298
    H           -2.364157756491     0.112268125742    -0.092419421147
    H           -2.025387221084    -1.193996858408     1.055359667842
    H           -1.770132159223    -1.421776091282    -0.682638960415
    C            1.436555107870     0.886301307919    -0.816919647697
    H            1.527164597362     1.469264743098    -1.719008486121
    H            2.164925077092     0.088279370486    -0.811155591386
    H            1.592940413599     1.513541437488     0.047059223960

  Mulliken Charges: (a.u.)
   Center  Symbol    Alpha    Beta     Spin     Total
       1     O     4.19673  4.19673  0.00000 -0.39346
       2     C     2.80152  2.80152  0.00000  0.39695
       3     C     3.13810  3.13810  0.00000 -0.27619
       4     O     4.14790  4.14790  0.00000 -0.29580
       5     H     0.44560  0.44560  0.00000  0.10880
       6     H     0.43787  0.43787  0.00000  0.12426
       7     H     0.44527  0.44527  0.00000  0.10945
       8     C     3.03344  3.03344  0.00000 -0.06689
       9     H     0.44583  0.44583  0.00000  0.10835
      10     H     0.45546  0.45546  0.00000  0.08907
      11     H     0.45227  0.45227  0.00000  0.09545

   Total alpha = 20.00000, Total beta = 20.00000, Total charge = -0.00000
