                              Psi4 1.0.54 Driver

  ==> Input File <==

--------------------------------------------------------------------------
set {
	reference rhf
	basis cc-pvtz
}

set_num_threads( 4 )
memory 2 gb

molecule MOL {
0 1

H	 1.166964	 -1.062386	 0.758429
O	 1.324748	 -0.612467	 -0.052206
C	 0.706474	 0.636793	 -0.025501
C	 0.035972	 1.030816	 -1.311115
H	 1.481269	 1.357517	 0.208064
H	 -0.021477	 0.692051	 0.781800
C	 0.081966	 0.358748	 -2.440059
H	 -0.520315	 1.952496	 -1.263163
H	 0.639230	 -0.553928	 -2.531995
H	 -0.429141	 0.710671	 -3.315833

	symmetry c1
}
set optking {
	frozen_dihedral = ("
		5 3 2 1
	")
}

ee,wfn = optimize('scf', return_wfn=True)
oeprop( wfn, 'DIPOLE', 'QUADRUPOLE', 'MULLIKEN_CHARGES')
f=open( 'psi4out.xyz', 'w' )
f.write( "10  " )
f.write( str(ee) + "\n" )
f.write( MOL.save_string_xyz() )
f.close()
--------------------------------------------------------------------------

    Molecular point group: c1
  Charge       = 0
  Multiplicity = 1
  Basis Set: CC-PVTZ
  Basis Set:
  @DF-RHF Final Energy:  -191.99565939404940
    Total Energy =                       -191.9956593940493406
    Molecular point group: c1
  Basis Set: CC-PVTZ
  Basis Set:
  Basis Set: CC-PVTZ
  Basis Set:
  @DF-RHF Final Energy:  -191.91032185164818
    Total Energy =                       -191.9103218516480922
  Basis Set: CC-PVTZ
  Basis Set:
  Basis Set: CC-PVTZ
  Basis Set:
  @DF-RHF Final Energy:  -191.98975746627346
    Total Energy =                       -191.9897574662735735
  Basis Set: CC-PVTZ
  Basis Set:
  Basis Set: CC-PVTZ
  Basis Set:
  @DF-RHF Final Energy:  -191.99679689443721
    Total Energy =                       -191.9967968944370398
  Basis Set: CC-PVTZ
  Basis Set:
  Basis Set: CC-PVTZ
  Basis Set:
  @DF-RHF Final Energy:  -191.99692888750997
    Total Energy =                       -191.9969288875099664
  Basis Set: CC-PVTZ
  Basis Set:
  Basis Set: CC-PVTZ
  Basis Set:
  @DF-RHF Final Energy:  -191.99696878075866
    Total Energy =                       -191.9969687807588059
  Basis Set: CC-PVTZ
  Basis Set:
  Charge       = 0
  Multiplicity = 1
  Basis Set: CC-PVTZ
  Basis Set:

    Orbital Energies (a.u.)
    -----------------------

    Doubly Occupied:

       1A    -20.553372     2A    -11.278402     3A    -11.223517
       4A    -11.208000     5A     -1.373321     6A     -1.058294
       7A     -0.926821     8A     -0.758043     9A     -0.711605
      10A     -0.648356    11A     -0.615826    12A     -0.586994
      13A     -0.515782    14A     -0.498135    15A     -0.453885
      16A     -0.360868

  @DF-RHF Final Energy:  -191.99696928922816

   => Energetics <=

    Nuclear Repulsion Energy =            119.5253518907192642
    One-Electron Energy =                -497.5021972395731495
    Two-Electron Energy =                 185.9798760596256102
    DFT Exchange-Correlation Energy =       0.0000000000000000
    Empirical Dispersion Energy =           0.0000000000000000
    PCM Polarization Energy =               0.0000000000000000
    EFP Energy =                            0.0000000000000000
    Total Energy =                       -191.9969692892282751
    Molecular point group: c1
  Basis Set: CC-PVTZ
  Basis Set:

  -Total Gradient:
     Atom            X                  Y                   Z
    ------   -----------------  -----------------  -----------------
       1       -0.000409366347    -0.000155719973    -0.000588830529
       2        0.000672830979     0.000288109721     0.000589368146
       3       -0.000679831887    -0.000469302152     0.000389467520
       4        0.000072479125     0.000013903234     0.000051085530
       5        0.000371050330     0.000308792234    -0.000450488881
       6       -0.000016604939     0.000036636552     0.000022787956
       7        0.000070472265     0.000037678812     0.000028563686
       8       -0.000028005782    -0.000009838873     0.000009262611
       9       -0.000026656677    -0.000034656203    -0.000023181838
      10       -0.000026367068    -0.000015603354    -0.000028034201

  **** Optimization is complete! (in 7 steps) ****
    Final optimized geometry and variables:
    Molecular point group: c1

    Geometry (in Angstrom), charge = 0, multiplicity = 1:

    H            0.100415236076    -1.855205474034     1.154272272856
    O            0.488821616419    -1.127230349864     0.708729196272
    C           -0.269674468829     0.029645899763     0.913906444677
    C           -0.379862273910     0.851506138913    -0.335452511246
    H            0.189981573277     0.638584671645     1.689285419137
    H           -1.270897024502    -0.216482780132     1.259542419011
    C            0.104290050572     0.525983679993    -1.512368962818
    H           -0.903937111184     1.784531051997    -0.209863145249
    H            0.635023655405    -0.393135337484    -1.663929656016
    H           -0.016381156773     1.177147594352    -2.357387706640

  Mulliken Charges: (a.u.)
   Center  Symbol    Alpha    Beta     Spin     Total
       1     H     0.39063  0.39063  0.00000  0.21875
       2     O     4.19676  4.19676  0.00000 -0.39351
       3     C     2.94247  2.94247  0.00000  0.11506
       4     C     3.08002  3.08002  0.00000 -0.16005
       5     H     0.46951  0.46951  0.00000  0.06099
       6     H     0.47403  0.47403  0.00000  0.05194
       7     C     3.17222  3.17222  0.00000 -0.34444
       8     H     0.42426  0.42426  0.00000  0.15148
       9     H     0.42006  0.42006  0.00000  0.15988
      10     H     0.43005  0.43005  0.00000  0.13990

   Total alpha = 16.00000, Total beta = 16.00000, Total charge = -0.00000

*** Psi4 exiting successfully. Buy a developer a beer!
