  ==> Input File <==

--------------------------------------------------------------------------
set {
	reference rhf
	basis 6-31G*
}

set_num_threads( 1 )
memory 2 gb

molecule MOL {
0 1

H	 3.893188	 0.355400	 -0.101367
N	 3.092854	 -0.246221	 -0.068770
C	 1.865559	 0.531981	 0.018834
H	 3.199514	 -0.826043	 0.741946
C	 0.645745	 -0.382037	 -0.029944
H	 1.841966	 1.207024	 -0.831236
H	 1.815756	 1.155410	 0.915079
C	 -0.679275	 0.379305	 0.025956
H	 0.698998	 -0.976915	 -0.937203
H	 0.693479	 -1.083846	 0.802235
C	 -1.596326	 0.080948	 -1.161636
H	 -0.479370	 1.449137	 0.062667
H	 -1.201023	 0.135512	 0.950181
C	 -2.917458	 0.846958	 -1.103753
H	 -1.077643	 0.324989	 -2.086095
H	 -1.799974	 -0.987116	 -1.199360
H	 -2.748497	 1.920153	 -1.099338
H	 -3.544961	 0.614885	 -1.958731
H	 -3.476412	 0.597802	 -0.206043

	symmetry c1
}
set optking {
	frozen_dihedral = ("
		6 3 5 9,
		12 8 11 15,
		1 2 3 6
	")
}

ee = energy('scf')
oeprop('DIPOLE', 'QUADRUPOLE', 'MULLIKEN_CHARGES')
f=open( 'psi4out.xyz', 'w' )
f.write( "19  " )
f.write( str(ee) + "\n" )
f.write( MOL.save_string_xyz() )
f.close()
--------------------------------------------------------------------------

    Molecular point group: c1

    Geometry (in Angstrom), charge = 0, multiplicity = 1:

       Center              X                  Y                   Z               Mass
    ------------   -----------------  -----------------  -----------------  -----------------
           H          3.790709985281     0.149271148585     0.276975928580     1.007825032070
           N          2.990375985281    -0.452349851415     0.309572928580    14.003074004780
           C          1.763080985281     0.325852148585     0.397176928580    12.000000000000
           H          3.097035985281    -1.032171851415     1.120288928580     1.007825032070
           C          0.543266985281    -0.588165851415     0.348398928580    12.000000000000
           H          1.739487985281     1.000895148585    -0.452893071420     1.007825032070
           H          1.713277985281     0.949281148585     1.293421928580     1.007825032070
           C         -0.781753014719     0.173176148585     0.404298928580    12.000000000000
           H          0.596519985281    -1.183043851415    -0.558860071420     1.007825032070
           H          0.591000985281    -1.289974851415     1.180577928580     1.007825032070
           C         -1.698804014719    -0.125180851415    -0.783293071420    12.000000000000
           H         -0.581848014719     1.243008148585     0.441009928580     1.007825032070
           H         -1.303501014719    -0.070616851415     1.328523928580     1.007825032070
           C         -3.019936014719     0.640829148585    -0.725410071420    12.000000000000
           H         -1.180121014719     0.118860148585    -1.707752071420     1.007825032070
           H         -1.902452014719    -1.193244851415    -0.821017071420     1.007825032070
           H         -2.850975014719     1.714024148585    -0.720995071420     1.007825032070
           H         -3.647439014719     0.408756148585    -1.580388071420     1.007825032070
           H         -3.578890014719     0.391673148585     0.172299928580     1.007825032070

  Charge       = 0
  Multiplicity = 1
  Basis Set: 6-31G*
  Basis Set:

    Orbital Energies (a.u.)
    -----------------------

    Doubly Occupied:

       1A    -15.532278     2A    -11.240267     3A    -11.213611
       4A    -11.211303     5A    -11.207877     6A    -11.206682
       7A     -1.176590     8A     -1.072739     9A     -0.997605
      10A     -0.899409    11A     -0.816695    12A     -0.787224
      13A     -0.660783    14A     -0.636585    15A     -0.623771
      16A     -0.585897    17A     -0.569815    18A     -0.549307
      19A     -0.525918    20A     -0.499696    21A     -0.483171
      22A     -0.465917    23A     -0.452711    24A     -0.448775
      25A     -0.381106

  @DF-RHF Final Energy:  -251.34653238292100

   => Energetics <=

    Nuclear Repulsion Energy =            246.7576116371056969
    One-Electron Energy =                -827.7168043820903449
    Two-Electron Energy =                 329.6126603620634796
    DFT Exchange-Correlation Energy =       0.0000000000000000
    Empirical Dispersion Energy =           0.0000000000000000
    PCM Polarization Energy =               0.0000000000000000
    EFP Energy =                            0.0000000000000000
    Total Energy =                       -251.3465323829211684

  Mulliken Charges: (a.u.)
   Center  Symbol    Alpha    Beta     Spin     Total
       1     H     0.33262  0.33262  0.00000  0.33477
       2     N     3.92209  3.92209  0.00000 -0.84418
       3     C     3.06346  3.06346  0.00000 -0.12692
       4     H     0.33532  0.33532  0.00000  0.32936
       5     C     3.15388  3.15388  0.00000 -0.30776
       6     H     0.42083  0.42083  0.00000  0.15833
       7     H     0.43402  0.43402  0.00000  0.13197
       8     C     3.15750  3.15750  0.00000 -0.31500
       9     H     0.41017  0.41017  0.00000  0.17967
      10     H     0.42536  0.42536  0.00000  0.14927
      11     C     3.15307  3.15307  0.00000 -0.30615
      12     H     0.42257  0.42257  0.00000  0.15486
      13     H     0.42159  0.42159  0.00000  0.15682
      14     C     3.23996  3.23996  0.00000 -0.47992
      15     H     0.42192  0.42192  0.00000  0.15617
      16     H     0.42180  0.42180  0.00000  0.15641
      17     H     0.42222  0.42222  0.00000  0.15557
      18     H     0.41947  0.41947  0.00000  0.16107
      19     H     0.42216  0.42216  0.00000  0.15567

   Total alpha = 25.00000, Total beta = 25.00000, Total charge =  0.00000
