  ==> Input File <==

--------------------------------------------------------------------------
set {
	reference rhf
	basis 6-31G*
}

set_num_threads( 4 )
memory 2 gb

molecule MOL {
0 1

H	 -0.806119	 -1.200383	 -0.546436
O	 -1.422729	 -0.573567	 -0.196946
C	 -0.731407	 0.539437	 0.309156
C	 0.680193	 0.672443	 -0.251532
H	 -1.319765	 1.404033	 0.030086
H	 -0.700012	 0.506517	 1.397677
C	 1.599139	 -0.492137	 0.118598
H	 0.616402	 0.758534	 -1.332349
H	 1.107032	 1.602637	 0.117369
H	 1.239738	 -1.428634	 -0.297334
H	 2.601428	 -0.335055	 -0.265730
H	 1.674954	 -0.608418	 1.197020

	symmetry c1
}
set optking {
	frozen_dihedral = ("
		1 2 3 4
	")
}

ee = optimize('scf')
oeprop('DIPOLE', 'QUADRUPOLE', 'MULLIKEN_CHARGES')
f=open( 'psi4out.xyz', 'w' )
f.write( "12  " )
f.write( str(ee) + "\n" )
f.write( MOL.save_string_xyz() )
f.close()
--------------------------------------------------------------------------

    Molecular point group: c1
  Charge       = 0
  Multiplicity = 1
  Basis Set: 6-31G*
  Basis Set:
  @DF-RHF Final Energy:  -193.10693418610040
    Total Energy =                       -193.1069341861003466
    Molecular point group: c1
  Basis Set: 6-31G*
  Basis Set:
  Basis Set: 6-31G*
  Basis Set:
  @DF-RHF Final Energy:  -193.10712838215909
    Total Energy =                       -193.1071283821591749
  Basis Set: 6-31G*
  Basis Set:
  Basis Set: 6-31G*
  Basis Set:
  @DF-RHF Final Energy:  -193.10728740295303
    Total Energy =                       -193.1072874029530340
  Basis Set: 6-31G*
  Basis Set:
  Basis Set: 6-31G*
  Basis Set:
  @DF-RHF Final Energy:  -193.10729178046645
    Total Energy =                       -193.1072917804664826
  Basis Set: 6-31G*
  Basis Set:
  Basis Set: 6-31G*
  Basis Set:
  @DF-RHF Final Energy:  -193.10729532031033
    Total Energy =                       -193.1072953203103282
  Basis Set: 6-31G*
  Basis Set:
  Charge       = 0
  Multiplicity = 1
  Basis Set: 6-31G*
  Basis Set:

    Orbital Energies (a.u.)
    -----------------------

    Doubly Occupied:

       1A    -20.549595     2A    -11.267246     3A    -11.227142
       4A    -11.223605     5A     -1.357308     6A     -1.055952
       7A     -0.930144     8A     -0.818647     9A     -0.676557
      10A     -0.642967    11A     -0.621895    12A     -0.581958
      13A     -0.550662    14A     -0.510825    15A     -0.495609
      16A     -0.466003    17A     -0.430480

  @DF-RHF Final Energy:  -193.10729540966369

   => Energetics <=

    Nuclear Repulsion Energy =            133.0011024321678121
    One-Electron Energy =                -525.4036048859909442
    Two-Electron Energy =                 199.2952070441594969
    DFT Exchange-Correlation Energy =       0.0000000000000000
    Empirical Dispersion Energy =           0.0000000000000000
    PCM Polarization Energy =               0.0000000000000000
    EFP Energy =                            0.0000000000000000
    Total Energy =                       -193.1072954096636067
    Molecular point group: c1
  Basis Set: 6-31G*
  Basis Set:

  -Total Gradient:
     Atom            X                  Y                   Z
    ------   -----------------  -----------------  -----------------
       1       -0.000090581391     0.000755077226    -0.001430442491
       2        0.000257029940    -0.001160855192     0.002101782313
       3       -0.000516631745     0.001004808212    -0.001417463009
       4        0.000355224958    -0.000590495904     0.000741084859
       5       -0.000008549570    -0.000014734933    -0.000006930667
       6       -0.000005931406     0.000005118737     0.000004234284
       7       -0.000002424596    -0.000002456406    -0.000003870696
       8        0.000008153192    -0.000004577325     0.000003315276
       9       -0.000000061433     0.000008228300     0.000004542975
      10        0.000004236910     0.000000908092    -0.000005083416
      11       -0.000008911544    -0.000005503309     0.000000372350
      12        0.000008446686     0.000004482503     0.000008458222

  **** Optimization is complete! (in 6 steps) ****
    Final optimized geometry and variables:
    Molecular point group: c1

    Geometry (in Angstrom), charge = 0, multiplicity = 1:

    H           -0.867055859538    -1.201674313640    -0.568781483225
    O           -1.453996967435    -0.560789903151    -0.197378392108
    C           -0.730815340160     0.528002420338     0.320601787736
    C            0.680174757481     0.656935908704    -0.243348085255
    H           -1.300038541135     1.420954110631     0.090758501836
    H           -0.680632323681     0.443845852357     1.404493244735
    C            1.614525452880    -0.490877968789     0.147341309995
    H            0.621508455427     0.736890109159    -1.326501739282
    H            1.100871501011     1.592948733229     0.114486856010
    H            1.274592911190    -1.450542841125    -0.233187422499
    H            2.610975586784    -0.328828557027    -0.249663545207
    H            1.694856052238    -0.577508181052     1.226719567590

  Mulliken Charges: (a.u.)
   Center  Symbol    Alpha    Beta     Spin     Total
       1     H     0.27845  0.27845  0.00000  0.44311
       2     O     4.37786  4.37786  0.00000 -0.75571
       3     C     2.97781  2.97781  0.00000  0.04438
       4     C     3.18350  3.18350  0.00000 -0.36699
       5     H     0.41928  0.41928  0.00000  0.16143
       6     H     0.42986  0.42986  0.00000  0.14029
       7     C     3.24467  3.24467  0.00000 -0.48935
       8     H     0.41594  0.41594  0.00000  0.16813
       9     H     0.41657  0.41657  0.00000  0.16685
      10     H     0.42704  0.42704  0.00000  0.14592
      11     H     0.41320  0.41320  0.00000  0.17359
      12     H     0.41582  0.41582  0.00000  0.16836

   Total alpha = 17.00000, Total beta = 17.00000, Total charge = -0.00000
