  ==> Input File <==

--------------------------------------------------------------------------
set {
	reference rhf
	basis cc-pvtz
}

set_num_threads( 4 )
memory 2 gb

molecule MOL {
0 1

H	 -2.743672	 0.542512	 0.789770
C	 -2.291204	 1.526062	 0.685910
O	 -0.913544	 1.438758	 0.537681
H	 -2.689628	 2.000222	 -0.199142
H	 -2.563059	 2.123034	 1.554589
C	 -0.256759	 0.853482	 1.613656
C	 1.212205	 0.715815	 1.301344
H	 -0.371696	 1.468800	 2.505925
H	 -0.670258	 -0.129498	 1.828594
O	 1.401606	 -0.295166	 0.366636
H	 1.587924	 1.664384	 0.923873
H	 1.748454	 0.484240	 2.221552
C	 2.714315	 -0.441627	 -0.061017
H	 2.765292	 -0.641548	 -1.128869
H	 3.305661	 0.447341	 0.150952
H	 3.143725	 -1.278506	 0.470147

	symmetry c1
}
set optking {
	frozen_dihedral = ("
		7 10 13 14
	")
}

ee = optimize('scf')
oeprop('DIPOLE', 'QUADRUPOLE', 'MULLIKEN_CHARGES')
f=open( 'psi4out.xyz', 'w' )
f.write( "16  " )
f.write( str(ee) + "\n" )
f.write( MOL.save_string_xyz() )
f.close()
--------------------------------------------------------------------------

    Molecular point group: c1
  Charge       = 0
  Multiplicity = 1
  Basis Set: CC-PVTZ
  Basis Set:
  @DF-RHF Final Energy:  -307.09433339170556
    Total Energy =                       -307.0943333917057316
    Molecular point group: c1
  Basis Set: CC-PVTZ
  Basis Set:
  Basis Set: CC-PVTZ
  Basis Set:
  @DF-RHF Final Energy:  -307.09505340876507
    Total Energy =                       -307.0950534087651249
  Basis Set: CC-PVTZ
  Basis Set:
  Basis Set: CC-PVTZ
  Basis Set:
  @DF-RHF Final Energy:  -307.09519571958020
    Total Energy =                       -307.0951957195805448
  Basis Set: CC-PVTZ
  Basis Set:
  Charge       = 0
  Multiplicity = 1
  Basis Set: CC-PVTZ
  Basis Set:

    Orbital Energies (a.u.)
    -----------------------

    Doubly Occupied:

       1A    -20.547505     2A    -20.545094     3A    -11.267751
       4A    -11.266668     5A    -11.261399     6A    -11.261154
       7A     -1.390023     8A     -1.372249     9A     -1.031838
      10A     -0.937281    11A     -0.892166    12A     -0.824116
      13A     -0.685150    14A     -0.681611    15A     -0.658619
      16A     -0.637461    17A     -0.630655    18A     -0.597335
      19A     -0.554434    20A     -0.537331    21A     -0.508577
      22A     -0.478714    23A     -0.464000    24A     -0.421715
      25A     -0.411358

  @DF-RHF Final Energy:  -307.09519669128207

   => Energetics <=

    Nuclear Repulsion Energy =            258.7065908877958123
    One-Electron Energy =                -931.8751658705263026
    Two-Electron Energy =                 366.0733782914484209
    DFT Exchange-Correlation Energy =       0.0000000000000000
    Empirical Dispersion Energy =           0.0000000000000000
    PCM Polarization Energy =               0.0000000000000000
    EFP Energy =                            0.0000000000000000
    Total Energy =                       -307.0951966912820126
    Molecular point group: c1
  Basis Set: CC-PVTZ
  Basis Set:

  -Total Gradient:
     Atom            X                  Y                   Z
    ------   -----------------  -----------------  -----------------
       1       -0.000001250058     0.000000027533    -0.000001359277
       2        0.000004262844    -0.000008777527     0.000022917131
       3        0.000027809971    -0.000004771885    -0.000004707032
       4        0.000010983550    -0.000001714325    -0.000000884085
       5       -0.000001946598     0.000000545780    -0.000000702481
       6       -0.000017942254    -0.000003175605     0.000043452798
       7       -0.000348416590     0.001434300323    -0.001508950182
       8       -0.000020168470     0.000010552066     0.000010510837
       9       -0.000001378961     0.000007319984    -0.000008070369
      10        0.000529647008    -0.001407982536     0.001984283097
      11        0.000009112330     0.000019780169     0.000008999759
      12       -0.000018173958    -0.000029190130    -0.000051166291
      13       -0.000305142540    -0.002465034128    -0.000047135046
      14        0.000139771403     0.002458573425    -0.000440489984
      15       -0.000011795187     0.000002417851    -0.000007434379
      16        0.000004627510    -0.000012870993     0.000000735507

  **** Optimization is complete! (in 4 steps) ****
    Final optimized geometry and variables:
    Molecular point group: c1

    Geometry (in Angstrom), charge = 0, multiplicity = 1:

    H           -3.049967781958    -0.093322314498     0.034021976754
    C           -2.598924847028     0.891445047514    -0.064297993608
    O           -1.219727492452     0.807701714823    -0.199136553797
    H           -2.989841038546     1.365655466257    -0.952672615819
    H           -2.880814865202     1.486765976796     0.802348175990
    C           -0.572181514920     0.222526001161     0.882447189308
    C            0.900103919576     0.088280750790     0.584092519729
    H           -0.696357230130     0.837122104482     1.774099799010
    H           -0.986228083381    -0.761117053948     1.092754391331
    O            1.095902899517    -0.916571310422    -0.356905856271
    H            1.277218624221     1.038783545476     0.215454240055
    H            1.423946527429    -0.146306032458     1.510639394033
    C            2.404768276912    -1.085711923655    -0.801943346296
    H            2.386385162219    -1.279414570932    -1.866213698135
    H            3.001889878967    -0.192887063325    -0.640775569859
    H            2.886228077950    -1.915060907076    -0.292509375912

  Mulliken Charges: (a.u.)
   Center  Symbol    Alpha    Beta     Spin     Total
       1     H     0.47018  0.47018  0.00000  0.05964
       2     C     3.03203  3.03203  0.00000 -0.06405
       3     O     4.17031  4.17031  0.00000 -0.34061
       4     H     0.44645  0.44645  0.00000  0.10711
       5     H     0.47374  0.47374  0.00000  0.05252
       6     C     2.96283  2.96283  0.00000  0.07435
       7     C     2.95921  2.95921  0.00000  0.08157
       8     H     0.47623  0.47623  0.00000  0.04753
       9     H     0.47094  0.47094  0.00000  0.05812
      10     O     4.17403  4.17403  0.00000 -0.34805
      11     H     0.46942  0.46942  0.00000  0.06117
      12     H     0.47700  0.47700  0.00000  0.04599
      13     C     3.02788  3.02788  0.00000 -0.05576
      14     H     0.45136  0.45136  0.00000  0.09728
      15     H     0.47447  0.47447  0.00000  0.05107
      16     H     0.46394  0.46394  0.00000  0.07212

   Total alpha = 25.00000, Total beta = 25.00000, Total charge =  0.00000
