  ==> Input File <==

--------------------------------------------------------------------------
set {
	reference rhf
	basis cc-pvtz
}

set_num_threads( 4 )
memory 2 gb

molecule MOL {
0 1

O	 0.074770	 1.259872	 0.000487
C	 0.029490	 0.077183	 0.000078
C	 -1.232113	 -0.748027	 0.000015
O	 1.106773	 -0.690081	 -0.000204
C	 -2.501422	 0.088592	 -0.000052
H	 -1.188777	 -1.400384	 -0.865133
H	 -1.188857	 -1.400312	 0.865225
H	 -2.548170	 0.725504	 -0.873205
H	 -3.371613	 -0.556398	 -0.000040
H	 -2.548215	 0.725571	 0.873047
C	 2.193233	 -0.282874	 -0.807315
H	 1.899847	 -0.234742	 -1.845508
H	 2.960625	 -1.027521	 -0.671536
H	 2.555366	 0.686421	 -0.498168

	symmetry c1
}
set optking {
	frozen_dihedral = ("
		11 4 2 3
	")
}

ee = optimize('scf')
oeprop('DIPOLE', 'QUADRUPOLE', 'MULLIKEN_CHARGES')
f=open( 'psi4out.xyz', 'w' )
f.write( "14  " )
f.write( str(ee) + "\n" )
f.write( MOL.save_string_xyz() )
f.close()
--------------------------------------------------------------------------

    Molecular point group: c1
  Charge       = 0
  Multiplicity = 1
  Basis Set: CC-PVTZ
  Basis Set:
  @DF-RHF Final Energy:  -305.97952992489286
    Total Energy =                       -305.9795299248925176
    Molecular point group: c1
  Basis Set: CC-PVTZ
  Basis Set:
  Basis Set: CC-PVTZ
  Basis Set:
  @DF-RHF Final Energy:  -305.97726333531313
    Total Energy =                       -305.9772633353131823
  Basis Set: CC-PVTZ
  Basis Set:
  Basis Set: CC-PVTZ
  Basis Set:
  @DF-RHF Final Energy:  -305.98011572499638
    Total Energy =                       -305.9801157249963808
  Basis Set: CC-PVTZ
  Basis Set:
  Basis Set: CC-PVTZ
  Basis Set:
  @DF-RHF Final Energy:  -305.98026531167022
    Total Energy =                       -305.9802653116702231
  Basis Set: CC-PVTZ
  Basis Set:
  Basis Set: CC-PVTZ
  Basis Set:
  @DF-RHF Final Energy:  -305.98030165441708
    Total Energy =                       -305.9803016544167349
  Basis Set: CC-PVTZ
  Basis Set:
  Basis Set: CC-PVTZ
  Basis Set:
  @DF-RHF Final Energy:  -305.98030357554831
    Total Energy =                       -305.9803035755484757
  Basis Set: CC-PVTZ
  Basis Set:
  Charge       = 0
  Multiplicity = 1
  Basis Set: CC-PVTZ
  Basis Set:

    Orbital Energies (a.u.)
    -----------------------

    Doubly Occupied:

       1A    -20.589834     2A    -20.538581     3A    -11.366676
       4A    -11.282083     5A    -11.238755     6A    -11.215783
       7A     -1.468635     8A     -1.367626     9A     -1.064971
      10A     -0.979394    11A     -0.883317    12A     -0.769274
      13A     -0.702434    14A     -0.681740    15A     -0.675920
      16A     -0.621765    17A     -0.607305    18A     -0.553721
      19A     -0.540806    20A     -0.522003    21A     -0.512306
      22A     -0.498161    23A     -0.459984    24A     -0.440714

  @DF-RHF Final Energy:  -305.98030380186935

   => Energetics <=

    Nuclear Repulsion Energy =            247.2463596262583394
    One-Electron Energy =                -907.2897459352657279
    Two-Electron Energy =                 354.0630825071378922
    DFT Exchange-Correlation Energy =       0.0000000000000000
    Empirical Dispersion Energy =           0.0000000000000000
    PCM Polarization Energy =               0.0000000000000000
    EFP Energy =                            0.0000000000000000
    Total Energy =                       -305.9803038018694679
    Molecular point group: c1
  Basis Set: CC-PVTZ
  Basis Set:

  -Total Gradient:
     Atom            X                  Y                   Z
    ------   -----------------  -----------------  -----------------
       1       -0.000020293734    -0.000040411846     0.000048659724
       2       -0.001652883916    -0.001238724271     0.006971610587
       3        0.000244146981    -0.000711165157    -0.006840293426
       4        0.003997501735     0.006671897172     0.005388778617
       5       -0.000003271159    -0.000011929865    -0.000004526122
       6       -0.000006889770     0.000007580788    -0.000009713112
       7        0.000004224526     0.000019927820    -0.000009471800
       8        0.000005248891     0.000001075973    -0.000007016981
       9        0.000001783927     0.000004073726     0.000002386441
      10       -0.000007873658     0.000001181244     0.000006882220
      11       -0.002568357085    -0.004734239364    -0.005550990830
      12       -0.000004619855     0.000009684486     0.000003505850
      13        0.000009145043     0.000007704194    -0.000000743577
      14        0.000002138075     0.000013345101     0.000000932408

  **** Optimization is complete! (in 7 steps) ****
    Final optimized geometry and variables:
    Molecular point group: c1

    Geometry (in Angstrom), charge = 0, multiplicity = 1:

    O            0.081375651724     1.298265850224    -0.093468308548
    C            0.049451169279     0.134920745982     0.108882296628
    C           -1.201917501621    -0.702732054273     0.142836522417
    O            1.146533656211    -0.610375060535     0.233075733271
    C           -2.482450431068     0.110279432642     0.242264599471
    H           -1.179637414692    -1.288932261736    -0.771222673444
    H           -1.114895917779    -1.416072447241     0.953677203176
    H           -2.567332498588     0.804009269998    -0.582616580860
    H           -3.343505589452    -0.546666495162     0.229891588322
    H           -2.507848352837     0.684968914352     1.159336617285
    C            2.257503687021    -0.263194406438    -0.569173848359
    H            1.977593448437    -0.263279630383    -1.614421018561
    H            3.005198651938    -1.018965475643    -0.391789614436
    H            2.643237411465     0.709176472042    -0.303247095648

  Mulliken Charges: (a.u.)
   Center  Symbol    Alpha    Beta     Spin     Total
       1     O     4.18778  4.18778  0.00000 -0.37556
       2     C     2.80113  2.80113  0.00000  0.39773
       3     C     3.09286  3.09286  0.00000 -0.18573
       4     O     4.15592  4.15592  0.00000 -0.31183
       5     C     3.14097  3.14097  0.00000 -0.28194
       6     H     0.44585  0.44585  0.00000  0.10831
       7     H     0.43873  0.43873  0.00000  0.12253
       8     H     0.44579  0.44579  0.00000  0.10842
       9     H     0.45028  0.45028  0.00000  0.09945
      10     H     0.45002  0.45002  0.00000  0.09996
      11     C     3.03522  3.03522  0.00000 -0.07045
      12     H     0.46259  0.46259  0.00000  0.07482
      13     H     0.44548  0.44548  0.00000  0.10903
      14     H     0.44737  0.44737  0.00000  0.10526

   Total alpha = 24.00000, Total beta = 24.00000, Total charge = -0.00000
