  ==> Input File <==

--------------------------------------------------------------------------
set {
	reference rhf
	basis 6-31G*
}

set_num_threads( 1 )
memory 2 gb

molecule MOL {
0 1

O	 3.225979	 0.970355	 -0.599647
C	 2.701189	 0.057885	 -0.047330
C	 1.245376	 -0.013843	 0.345420
O	 3.347903	 -1.046386	 0.304773
C	 0.317069	 0.651416	 -0.668381
H	 1.005901	 -1.062208	 0.489554
H	 1.151698	 0.449347	 1.324386
C	 -1.152303	 0.679628	 -0.234047
H	 0.408338	 0.144895	 -1.624532
H	 0.657937	 1.667617	 -0.834414
C	 -1.824190	 -0.693321	 -0.140821
H	 -1.702860	 1.288017	 -0.947821
H	 -1.237235	 1.189038	 0.724753
C	 -3.315750	 -0.604636	 0.188394
H	 -1.695220	 -1.219529	 -1.085433
H	 -1.333036	 -1.300171	 0.616458
C	 -3.996482	 -1.970861	 0.289225
H	 -3.817392	 -0.009456	 -0.572756
H	 -3.446011	 -0.069136	 1.127527
C	 -5.486586	 -1.873349	 0.614468
H	 -3.866411	 -2.507726	 -0.648058
H	 -3.499207	 -2.565653	 1.052586
H	 -5.940683	 -2.857318	 0.679328
H	 -6.018712	 -1.313321	 -0.149342
H	 -5.648593	 -1.371142	 1.564108
C	 4.728119	 -1.109107	 -0.004993
H	 4.882018	 -1.033965	 -1.071845
H	 5.068212	 -2.067527	 0.355250
H	 5.265056	 -0.311663	 0.488280

	symmetry c1
}
set optking {
	frozen_dihedral = ("
		21 17 14 11,
		17 14 11 15,
		15 11 8 5,
		6 3 5 9,
		11 8 5 9,
		2 4 26 27,
		1 2 4 26
	")
}

ee = energy('scf')
oeprop('DIPOLE', 'QUADRUPOLE', 'MULLIKEN_CHARGES')
f=open( 'psi4out.xyz', 'w' )
f.write( "29  " )
f.write( str(ee) + "\n" )
f.write( MOL.save_string_xyz() )
f.close()
--------------------------------------------------------------------------

    Molecular point group: c1

    Geometry (in Angstrom), charge = 0, multiplicity = 1:

       Center              X                  Y                   Z               Mass
    ------------   -----------------  -----------------  -----------------  -----------------
           O          3.201789423603     1.430617359136    -0.605252543606    15.994914619560
           C          2.676999423603     0.518147359136    -0.052935543606    12.000000000000
           C          1.221186423603     0.446419359136     0.339814456394    12.000000000000
           O          3.323713423603    -0.586123640864     0.299167456394    15.994914619560
           C          0.292879423603     1.111678359136    -0.673986543606    12.000000000000
           H          0.981711423603    -0.601945640864     0.483948456394     1.007825032070
           H          1.127508423603     0.909609359136     1.318780456394     1.007825032070
           C         -1.176492576397     1.139890359136    -0.239652543606    12.000000000000
           H          0.384148423603     0.605157359136    -1.630137543606     1.007825032070
           H          0.633747423603     2.127879359136    -0.840019543606     1.007825032070
           C         -1.848379576397    -0.233058640864    -0.146426543606    12.000000000000
           H         -1.727049576397     1.748279359136    -0.953426543606     1.007825032070
           H         -1.261424576397     1.649300359136     0.719147456394     1.007825032070
           C         -3.339939576397    -0.144373640864     0.182788456394    12.000000000000
           H         -1.719409576397    -0.759266640864    -1.091038543606     1.007825032070
           H         -1.357225576397    -0.839908640864     0.610852456394     1.007825032070
           C         -4.020671576397    -1.510598640864     0.283619456394    12.000000000000
           H         -3.841581576397     0.450806359136    -0.578361543606     1.007825032070
           H         -3.470200576397     0.391126359136     1.121921456394     1.007825032070
           C         -5.510775576397    -1.413086640864     0.608862456394    12.000000000000
           H         -3.890600576397    -2.047463640864    -0.653663543606     1.007825032070
           H         -3.523396576397    -2.105390640864     1.046980456394     1.007825032070
           H         -5.964872576397    -2.397055640864     0.673722456394     1.007825032070
           H         -6.042901576397    -0.853058640864    -0.154947543606     1.007825032070
           H         -5.672782576397    -0.910879640864     1.558502456394     1.007825032070
           C          4.703929423603    -0.648844640864    -0.010598543606    12.000000000000
           H          4.857828423603    -0.573702640864    -1.077450543606     1.007825032070
           H          5.044022423603    -1.607264640864     0.349644456394     1.007825032070
           H          5.240866423603     0.148599359136     0.482674456394     1.007825032070

  Charge       = 0
  Multiplicity = 1
  Basis Set: 6-31G*
  Basis Set:

    Orbital Energies (a.u.)
    -----------------------

    Doubly Occupied:

       1A    -20.604653     2A    -20.544116     3A    -11.371828
       4A    -11.280469     5A    -11.233547     6A    -11.222155
       7A    -11.218892     8A    -11.216466     9A    -11.216198
      10A    -11.214878    11A    -11.209322    12A     -1.469230
      13A     -1.362205    14A     -1.098961    15A     -1.067334
      16A     -1.019701    17A     -0.977404    18A     -0.928943
      19A     -0.862393    20A     -0.799723    21A     -0.790758
      22A     -0.766878    23A     -0.699557    24A     -0.680917
      25A     -0.672352    26A     -0.651135    27A     -0.626758
      28A     -0.605766    29A     -0.595750    30A     -0.581075
      31A     -0.562707    32A     -0.556154    33A     -0.533547
      34A     -0.529485    35A     -0.515540    36A     -0.514413
      37A     -0.496324    38A     -0.478162    39A     -0.471000
      40A     -0.463172    41A     -0.459372    42A     -0.455555
      43A     -0.441123    44A     -0.433988

  @DF-RHF Final Energy:  -501.04304527262423

   => Energetics <=

    Nuclear Repulsion Energy =            610.7213174307338477
    One-Electron Energy =               -1892.5288063927730491
    Two-Electron Energy =                 780.7644436894148612
    DFT Exchange-Correlation Energy =       0.0000000000000000
    Empirical Dispersion Energy =           0.0000000000000000
    PCM Polarization Energy =               0.0000000000000000
    EFP Energy =                            0.0000000000000000
    Total Energy =                       -501.0430452726244539

  Mulliken Charges: (a.u.)
   Center  Symbol    Alpha    Beta     Spin     Total
       1     O     4.28608  4.28608  0.00000 -0.57216
       2     C     2.60342  2.60342  0.00000  0.79317
       3     C     3.21266  3.21266  0.00000 -0.42533
       4     O     4.30579  4.30579  0.00000 -0.61158
       5     C     3.15879  3.15879  0.00000 -0.31758
       6     H     0.39820  0.39820  0.00000  0.20360
       7     H     0.40069  0.40069  0.00000  0.19862
       8     C     3.15643  3.15643  0.00000 -0.31285
       9     H     0.41716  0.41716  0.00000  0.16568
      10     H     0.40260  0.40260  0.00000  0.19480
      11     C     3.15488  3.15488  0.00000 -0.30976
      12     H     0.41813  0.41813  0.00000  0.16374
      13     H     0.42271  0.42271  0.00000  0.15458
      14     C     3.15043  3.15043  0.00000 -0.30086
      15     H     0.42306  0.42306  0.00000  0.15387
      16     H     0.42274  0.42274  0.00000  0.15452
      17     C     3.15145  3.15145  0.00000 -0.30290
      18     H     0.42341  0.42341  0.00000  0.15319
      19     H     0.42385  0.42385  0.00000  0.15229
      20     C     3.23936  3.23936  0.00000 -0.47873
      21     H     0.42289  0.42289  0.00000  0.15423
      22     H     0.42327  0.42327  0.00000  0.15346
      23     H     0.41919  0.41919  0.00000  0.16162
      24     H     0.42157  0.42157  0.00000  0.15687
      25     H     0.42175  0.42175  0.00000  0.15650
      26     C     3.09320  3.09320  0.00000 -0.18641
      27     H     0.40878  0.40878  0.00000  0.18244
      28     H     0.40849  0.40849  0.00000  0.18302
      29     H     0.40902  0.40902  0.00000  0.18197

   Total alpha = 44.00000, Total beta = 44.00000, Total charge = -0.00000
