  ==> Input File <==

--------------------------------------------------------------------------
set {
	reference rhf
	basis 6-31G*
}

set_num_threads( 1 )
memory 2 gb

molecule MOL {
0 1

O	 1.519464	 0.109411	 -0.165366
C	 2.701189	 0.057885	 -0.047330
C	 3.658763	 1.203580	 -0.269191
O	 3.347903	 -1.046386	 0.304773
C	 2.959156	 2.502099	 -0.664809
H	 4.238355	 1.314799	 0.641245
H	 4.364880	 0.890884	 -1.034251
C	 3.923197	 3.646530	 -0.995562
H	 2.288124	 2.805444	 0.133199
H	 2.330199	 2.307208	 -1.526698
C	 4.749683	 4.156689	 0.188400
H	 3.340112	 4.473499	 -1.394131
H	 4.592856	 3.336449	 -1.796447
C	 5.613489	 5.368457	 -0.167208
H	 4.079551	 4.420221	 1.005279
H	 5.393499	 3.364957	 0.564744
C	 6.447746	 5.883655	 1.006981
H	 4.974738	 6.170829	 -0.532491
H	 6.276351	 5.108814	 -0.991161
C	 7.304575	 7.096168	 0.644547
H	 5.786991	 6.142626	 1.831589
H	 7.090033	 5.084306	 1.370695
H	 7.883919	 7.437826	 1.496742
H	 6.688216	 7.925755	 0.309760
H	 8.000823	 6.859352	 -0.155098
C	 4.728119	 -1.109107	 -0.004993
H	 4.882018	 -1.033965	 -1.071845
H	 5.068212	 -2.067527	 0.355250
H	 5.265056	 -0.311663	 0.488280

	symmetry c1
}
set optking {
	frozen_dihedral = ("
		21 17 14 11,
		17 14 11 15,
		15 11 8 5,
		6 3 5 9,
		11 8 5 9,
		2 4 26 27,
		6 3 2 1
	")
}

ee = energy('scf')
oeprop('DIPOLE', 'QUADRUPOLE', 'MULLIKEN_CHARGES')
f=open( 'psi4out.xyz', 'w' )
f.write( "29  " )
f.write( str(ee) + "\n" )
f.write( MOL.save_string_xyz() )
f.close()
--------------------------------------------------------------------------

    Molecular point group: c1

    Geometry (in Angstrom), charge = 0, multiplicity = 1:

       Center              X                  Y                   Z               Mass
    ------------   -----------------  -----------------  -----------------  -----------------
           O         -2.756443854287    -2.391160373549    -0.154059495613    15.994914619560
           C         -1.574718854287    -2.442686373549    -0.036023495613    12.000000000000
           C         -0.617144854287    -1.296991373549    -0.257884495613    12.000000000000
           O         -0.928004854287    -3.546957373549     0.316079504387    15.994914619560
           C         -1.316751854287     0.001527626451    -0.653502495613    12.000000000000
           H         -0.037552854287    -1.185772373549     0.652551504387     1.007825032070
           H          0.088972145713    -1.609687373549    -1.022944495613     1.007825032070
           C         -0.352710854287     1.145958626451    -0.984255495613    12.000000000000
           H         -1.987783854287     0.304872626451     0.144505504387     1.007825032070
           H         -1.945708854287    -0.193363373549    -1.515391495613     1.007825032070
           C          0.473775145713     1.656117626451     0.199706504387    12.000000000000
           H         -0.935795854287     1.972927626451    -1.382824495613     1.007825032070
           H          0.316948145713     0.835877626451    -1.785140495613     1.007825032070
           C          1.337581145713     2.867885626451    -0.155901495613    12.000000000000
           H         -0.196356854287     1.919649626451     1.016585504387     1.007825032070
           H          1.117591145713     0.864385626451     0.576050504387     1.007825032070
           C          2.171838145713     3.383083626451     1.018287504387    12.000000000000
           H          0.698830145713     3.670257626451    -0.521184495613     1.007825032070
           H          2.000443145713     2.608242626451    -0.979854495613     1.007825032070
           C          3.028667145713     4.595596626451     0.655853504387    12.000000000000
           H          1.511083145713     3.642054626451     1.842895504387     1.007825032070
           H          2.814125145713     2.583734626451     1.382001504387     1.007825032070
           H          3.608011145713     4.937254626451     1.508048504387     1.007825032070
           H          2.412308145713     5.425183626451     0.321066504387     1.007825032070
           H          3.724915145713     4.358780626451    -0.143791495613     1.007825032070
           C          0.452211145713    -3.609678373549     0.006313504387    12.000000000000
           H          0.606110145713    -3.534536373549    -1.060538495613     1.007825032070
           H          0.792304145713    -4.568098373549     0.366556504387     1.007825032070
           H          0.989148145713    -2.812234373549     0.499586504387     1.007825032070

  Charge       = 0
  Multiplicity = 1
  Basis Set: 6-31G*
  Basis Set:

    Orbital Energies (a.u.)
    -----------------------

    Doubly Occupied:

       1A    -20.605755     2A    -20.544335     3A    -11.374383
       4A    -11.297263     5A    -11.241297     6A    -11.222933
       7A    -11.221829     8A    -11.220777     9A    -11.219470
      10A    -11.218450    11A    -11.212086    12A     -1.467730
      13A     -1.368821    14A     -1.102431    15A     -1.069813
      16A     -1.016084    17A     -0.988381    18A     -0.949516
      19A     -0.873103    20A     -0.808516    21A     -0.795752
      22A     -0.759168    23A     -0.706964    24A     -0.697092
      25A     -0.677484    26A     -0.654475    27A     -0.629716
      28A     -0.608469    29A     -0.602639    30A     -0.589122
      31A     -0.569212    32A     -0.558763    33A     -0.549370
      34A     -0.538463    35A     -0.522289    36A     -0.513603
      37A     -0.502113    38A     -0.481877    39A     -0.473859
      40A     -0.466448    41A     -0.463008    42A     -0.451166
      43A     -0.444054    44A     -0.428719

  @DF-RHF Final Energy:  -501.01770033515675

   => Energetics <=

    Nuclear Repulsion Energy =            619.7658802920276457
    One-Electron Energy =               -1910.1532749928953763
    Two-Electron Energy =                 789.3696943657114389
    DFT Exchange-Correlation Energy =       0.0000000000000000
    Empirical Dispersion Energy =           0.0000000000000000
    PCM Polarization Energy =               0.0000000000000000
    EFP Energy =                            0.0000000000000000
    Total Energy =                       -501.0177003351564053

  Mulliken Charges: (a.u.)
   Center  Symbol    Alpha    Beta     Spin     Total
       1     O     4.27183  4.27183  0.00000 -0.54366
       2     C     2.58923  2.58923  0.00000  0.82154
       3     C     3.24830  3.24830  0.00000 -0.49659
       4     O     4.30091  4.30091  0.00000 -0.60182
       5     C     3.14938  3.14938  0.00000 -0.29876
       6     H     0.39708  0.39708  0.00000  0.20584
       7     H     0.40371  0.40371  0.00000  0.19259
       8     C     3.15658  3.15658  0.00000 -0.31317
       9     H     0.41091  0.41091  0.00000  0.17819
      10     H     0.40731  0.40731  0.00000  0.18539
      11     C     3.15434  3.15434  0.00000 -0.30869
      12     H     0.41702  0.41702  0.00000  0.16597
      13     H     0.42535  0.42535  0.00000  0.14931
      14     C     3.15030  3.15030  0.00000 -0.30060
      15     H     0.42130  0.42130  0.00000  0.15739
      16     H     0.42721  0.42721  0.00000  0.14559
      17     C     3.15148  3.15148  0.00000 -0.30296
      18     H     0.42235  0.42235  0.00000  0.15530
      19     H     0.42437  0.42437  0.00000  0.15127
      20     C     3.23944  3.23944  0.00000 -0.47889
      21     H     0.42216  0.42216  0.00000  0.15569
      22     H     0.42428  0.42428  0.00000  0.15143
      23     H     0.41879  0.41879  0.00000  0.16242
      24     H     0.42101  0.42101  0.00000  0.15798
      25     H     0.42192  0.42192  0.00000  0.15616
      26     C     3.10261  3.10261  0.00000 -0.20522
      27     H     0.41119  0.41119  0.00000  0.17763
      28     H     0.39582  0.39582  0.00000  0.20837
      29     H     0.41383  0.41383  0.00000  0.17233

   Total alpha = 44.00000, Total beta = 44.00000, Total charge =  0.00000
