  ==> Input File <==

--------------------------------------------------------------------------
set {
	reference rhf
	basis 6-31G*
}

set_num_threads( 1 )
memory 2 gb

molecule MOL {
0 1

O	 3.225979	 0.970355	 -0.599647
C	 2.701189	 0.057885	 -0.047330
C	 1.245376	 -0.013843	 0.345420
O	 3.347903	 -1.046386	 0.304773
C	 0.479196	 1.272807	 0.046064
H	 0.819197	 -0.869775	 -0.167361
H	 1.208092	 -0.253804	 1.405007
C	 -0.973340	 1.253914	 0.534201
H	 0.505757	 1.465720	 -1.022205
H	 1.000002	 2.101852	 0.512828
C	 -1.881183	 0.248551	 -0.180064
H	 -1.386520	 2.250992	 0.400628
H	 -0.993228	 1.060575	 1.605758
C	 -3.341822	 0.344954	 0.265175
H	 -1.821367	 0.413284	 -1.254822
H	 -1.527385	 -0.765145	 -0.006225
C	 -4.257383	 -0.658607	 -0.438205
H	 -3.707905	 1.353756	 0.082045
H	 -3.401101	 0.190959	 1.341498
C	 -5.714907	 -0.553191	 0.009245
H	 -4.198587	 -0.506780	 -1.513907
H	 -3.895589	 -1.667805	 -0.252718
H	 -6.338505	 -1.276795	 -0.506633
H	 -6.117156	 0.435091	 -0.194934
H	 -5.811633	 -0.734284	 1.076073
C	 4.728119	 -1.109107	 -0.004993
H	 4.882018	 -1.033965	 -1.071845
H	 5.068212	 -2.067527	 0.355250
H	 5.265056	 -0.311663	 0.488280

	symmetry c1
}
set optking {
	frozen_dihedral = ("
		21 17 14 11,
		17 14 11 15,
		15 11 8 5,
		6 3 5 9,
		11 8 5 9,
		2 4 26 27,
		1 2 4 26
	")
}

ee = energy('scf')
oeprop('DIPOLE', 'QUADRUPOLE', 'MULLIKEN_CHARGES')
f=open( 'psi4out.xyz', 'w' )
f.write( "29  " )
f.write( str(ee) + "\n" )
f.write( MOL.save_string_xyz() )
f.close()
--------------------------------------------------------------------------

    Molecular point group: c1

    Geometry (in Angstrom), charge = 0, multiplicity = 1:

       Center              X                  Y                   Z               Mass
    ------------   -----------------  -----------------  -----------------  -----------------
           O          3.223696379196     0.915417856761    -0.618140431517    15.994914619560
           C          2.698906379196     0.002947856761    -0.065823431517    12.000000000000
           C          1.243093379196    -0.068780143239     0.326926568483    12.000000000000
           O          3.345620379196    -1.101323143239     0.286279568483    15.994914619560
           C          0.476913379196     1.217869856761     0.027570568483    12.000000000000
           H          0.816914379196    -0.924712143239    -0.185854431517     1.007825032070
           H          1.205809379196    -0.308741143239     1.386513568483     1.007825032070
           C         -0.975622620804     1.198976856761     0.515707568483    12.000000000000
           H          0.503474379196     1.410782856761    -1.040698431517     1.007825032070
           H          0.997719379196     2.046914856761     0.494334568483     1.007825032070
           C         -1.883465620804     0.193613856761    -0.198557431517    12.000000000000
           H         -1.388802620804     2.196054856761     0.382134568483     1.007825032070
           H         -0.995510620804     1.005637856761     1.587264568483     1.007825032070
           C         -3.344104620804     0.290016856761     0.246681568483    12.000000000000
           H         -1.823649620804     0.358346856761    -1.273315431517     1.007825032070
           H         -1.529667620804    -0.820082143239    -0.024718431517     1.007825032070
           C         -4.259665620804    -0.713544143239    -0.456698431517    12.000000000000
           H         -3.710187620804     1.298818856761     0.063551568483     1.007825032070
           H         -3.403383620804     0.136021856761     1.323004568483     1.007825032070
           C         -5.717189620804    -0.608128143239    -0.009248431517    12.000000000000
           H         -4.200869620804    -0.561717143239    -1.532400431517     1.007825032070
           H         -3.897871620804    -1.722742143239    -0.271211431517     1.007825032070
           H         -6.340787620804    -1.331732143239    -0.525126431517     1.007825032070
           H         -6.119438620804     0.380153856761    -0.213427431517     1.007825032070
           H         -5.813915620804    -0.789221143239     1.057579568483     1.007825032070
           C          4.725836379196    -1.164044143239    -0.023486431517    12.000000000000
           H          4.879735379196    -1.088902143239    -1.090338431517     1.007825032070
           H          5.065929379196    -2.122464143239     0.336756568483     1.007825032070
           H          5.262773379196    -0.366600143239     0.469786568483     1.007825032070

  Charge       = 0
  Multiplicity = 1
  Basis Set: 6-31G*
  Basis Set:

    Orbital Energies (a.u.)
    -----------------------

    Doubly Occupied:

       1A    -20.603362     2A    -20.545163     3A    -11.371974
       4A    -11.280646     5A    -11.234738     6A    -11.219163
       7A    -11.217664     8A    -11.216019     9A    -11.215853
      10A    -11.214470    11A    -11.209063    12A     -1.469047
      13A     -1.362481    14A     -1.098093    15A     -1.066821
      16A     -1.019502    17A     -0.977217    18A     -0.928576
      19A     -0.861622    20A     -0.799268    21A     -0.790514
      22A     -0.763758    23A     -0.700719    24A     -0.682336
      25A     -0.672144    26A     -0.650933    27A     -0.628882
      28A     -0.604606    29A     -0.594751    30A     -0.580874
      31A     -0.567614    32A     -0.548482    33A     -0.532395
      34A     -0.530294    35A     -0.516177    36A     -0.511718
      37A     -0.496335    38A     -0.477745    39A     -0.470147
      40A     -0.462355    41A     -0.458730    42A     -0.455985
      43A     -0.441518    44A     -0.435062

  @DF-RHF Final Energy:  -501.04409134433627

   => Energetics <=

    Nuclear Repulsion Energy =            610.1419433826351906
    One-Electron Energy =               -1891.4023730759288355
    Two-Electron Energy =                 780.2163383489574926
    DFT Exchange-Correlation Energy =       0.0000000000000000
    Empirical Dispersion Energy =           0.0000000000000000
    PCM Polarization Energy =               0.0000000000000000
    EFP Energy =                            0.0000000000000000
    Total Energy =                       -501.0440913443361524

  Mulliken Charges: (a.u.)
   Center  Symbol    Alpha    Beta     Spin     Total
       1     O     4.28597  4.28597  0.00000 -0.57194
       2     C     2.60492  2.60492  0.00000  0.79016
       3     C     3.20960  3.20960  0.00000 -0.41920
       4     O     4.30745  4.30745  0.00000 -0.61490
       5     C     3.15375  3.15375  0.00000 -0.30750
       6     H     0.39857  0.39857  0.00000  0.20286
       7     H     0.40149  0.40149  0.00000  0.19703
       8     C     3.15658  3.15658  0.00000 -0.31316
       9     H     0.41223  0.41223  0.00000  0.17554
      10     H     0.40972  0.40972  0.00000  0.18057
      11     C     3.15510  3.15510  0.00000 -0.31019
      12     H     0.41823  0.41823  0.00000  0.16354
      13     H     0.42388  0.42388  0.00000  0.15224
      14     C     3.15030  3.15030  0.00000 -0.30059
      15     H     0.42249  0.42249  0.00000  0.15501
      16     H     0.42368  0.42368  0.00000  0.15265
      17     C     3.15146  3.15146  0.00000 -0.30293
      18     H     0.42331  0.42331  0.00000  0.15338
      19     H     0.42397  0.42397  0.00000  0.15205
      20     C     3.23935  3.23935  0.00000 -0.47871
      21     H     0.42277  0.42277  0.00000  0.15445
      22     H     0.42344  0.42344  0.00000  0.15312
      23     H     0.41922  0.41922  0.00000  0.16155
      24     H     0.42154  0.42154  0.00000  0.15692
      25     H     0.42183  0.42183  0.00000  0.15633
      26     C     3.09240  3.09240  0.00000 -0.18481
      27     H     0.40911  0.40911  0.00000  0.18177
      28     H     0.40852  0.40852  0.00000  0.18295
      29     H     0.40910  0.40910  0.00000  0.18179

   Total alpha = 44.00000, Total beta = 44.00000, Total charge =  0.00000
