  ==> Input File <==

--------------------------------------------------------------------------
set {
	reference rhf
	basis 6-31G*
}

set_num_threads( 4 )
memory 2 gb

molecule MOL {
0 1

H	 3.834147	 0.455804	 -0.506300
N	 3.045653	 -0.161430	 -0.477236
C	 1.865559	 0.531981	 0.018834
H	 3.291841	 -0.916815	 0.134004
C	 0.645745	 -0.382037	 -0.029944
H	 1.695029	 1.391937	 -0.621677
H	 1.989328	 0.917422	 1.033977
C	 -0.679275	 0.379305	 0.025956
H	 0.698998	 -0.976915	 -0.937203
H	 0.693479	 -1.083846	 0.802235
C	 -1.903357	 -0.536963	 -0.023547
H	 -0.726309	 1.082987	 -0.803784
H	 -0.717680	 0.977832	 0.934877
C	 -3.225172	 0.228290	 0.028445
H	 -1.867824	 -1.134999	 -0.931459
H	 -1.860449	 -1.239604	 0.805977
H	 -3.313397	 0.915643	 -0.808262
H	 -4.073500	 -0.448134	 -0.008893
H	 -3.306061	 0.809945	 0.942516

	symmetry c1
}
set optking {
	frozen_dihedral = ("
		6 3 5 9
	")
}

ee = optimize('scf')
oeprop('DIPOLE', 'QUADRUPOLE', 'MULLIKEN_CHARGES')
f=open( 'psi4out.xyz', 'w' )
f.write( "19  " )
f.write( str(ee) + "\n" )
f.write( MOL.save_string_xyz() )
f.close()
--------------------------------------------------------------------------

    Molecular point group: c1
  Charge       = 0
  Multiplicity = 1
  Basis Set: 6-31G*
  Basis Set:
  @DF-RHF Final Energy:  -251.35049365211788
    Total Energy =                       -251.3504936521177342
    Molecular point group: c1
  Basis Set: 6-31G*
  Basis Set:
  Basis Set: 6-31G*
  Basis Set:
  @DF-RHF Final Energy:  -251.35062256306119
    Total Energy =                       -251.3506225630610516
  Basis Set: 6-31G*
  Basis Set:
  Basis Set: 6-31G*
  Basis Set:
  @DF-RHF Final Energy:  -251.35066639362302
    Total Energy =                       -251.3506663936231007
  Basis Set: 6-31G*
  Basis Set:
  Charge       = 0
  Multiplicity = 1
  Basis Set: 6-31G*
  Basis Set:

    Orbital Energies (a.u.)
    -----------------------

    Doubly Occupied:

       1A    -15.532979     2A    -11.239579     3A    -11.213958
       4A    -11.213011     5A    -11.209339     6A    -11.207454
       7A     -1.176954     8A     -1.073000     9A     -0.998258
      10A     -0.900174    11A     -0.813232    12A     -0.789947
      13A     -0.659994    14A     -0.646516    15A     -0.615229
      16A     -0.591288    17A     -0.560978    18A     -0.548185
      19A     -0.534015    20A     -0.495789    21A     -0.480466
      22A     -0.465110    23A     -0.460282    24A     -0.450740
      25A     -0.380789

  @DF-RHF Final Energy:  -251.35066728007919

   => Energetics <=

    Nuclear Repulsion Energy =            245.6120252815418041
    One-Electron Energy =                -825.4108556508201673
    Two-Electron Energy =                 328.4481630891993404
    DFT Exchange-Correlation Energy =       0.0000000000000000
    Empirical Dispersion Energy =           0.0000000000000000
    PCM Polarization Energy =               0.0000000000000000
    EFP Energy =                            0.0000000000000000
    Total Energy =                       -251.3506672800789943
    Molecular point group: c1
  Basis Set: 6-31G*
  Basis Set:

  -Total Gradient:
     Atom            X                  Y                   Z
    ------   -----------------  -----------------  -----------------
       1       -0.000065184224     0.000066765231     0.000025480370
       2       -0.000070669522    -0.000055894273    -0.000155869516
       3        0.002267970092    -0.002776365224    -0.002730947252
       4       -0.000100375056     0.000041300784     0.000041250624
       5       -0.002497287466     0.003457287719    -0.001339653326
       6       -0.001378758195     0.001647324739     0.002661204978
       7       -0.000069414217     0.000131389119     0.000021212564
       8        0.000044450484     0.000099523690    -0.000133714371
       9        0.001653994213    -0.002459545694     0.001683115247
      10        0.000102742079    -0.000098793318    -0.000014188373
      11        0.000047639281    -0.000058406704    -0.000063766910
      12       -0.000003979178    -0.000005549216    -0.000027429207
      13        0.000042359236     0.000001645594    -0.000036027056
      14        0.000020701553     0.000017003283     0.000084866043
      15       -0.000026945221     0.000027528800    -0.000026090674
      16        0.000024721535    -0.000025692961    -0.000027215256
      17        0.000014668920    -0.000030670570     0.000003997496
      18        0.000008300755    -0.000006757695     0.000028187101
      19       -0.000014935072     0.000027906697     0.000005587517

  **** Optimization is complete! (in 4 steps) ****
    Final optimized geometry and variables:
    Molecular point group: c1

    Geometry (in Angstrom), charge = 0, multiplicity = 1:

    H            3.866010805725     0.434740456515    -0.321124343041
    N            3.070829154330    -0.173276521287    -0.363471430989
    C            1.871677433086     0.519573788551     0.082124700142
    H            3.269209282642    -0.949264561664     0.239695565134
    C            0.647677124550    -0.389750499795    -0.004780235668
    H            1.723279186829     1.391691429079    -0.547678630638
    H            1.953318470962     0.903721522492     1.102593665880
    C           -0.677423132468     0.367861154132     0.065476225759
    H            0.715910272922    -0.972406755826    -0.919061075267
    H            0.690225769349    -1.113833457105     0.809205293056
    C           -1.899460293739    -0.552094966282     0.057681840713
    H           -0.741982148625     1.057140681134    -0.774539171102
    H           -0.697476662171     0.981300600315     0.965357564966
    C           -3.221635656755     0.210456494609     0.134107982782
    H           -1.884798546871    -1.160643411783    -0.843816111633
    H           -1.833760593531    -1.244540306562     0.894187337652
    H           -3.334751378338     0.884569985103    -0.710251300754
    H           -4.068590902581    -0.468749389115     0.130362153045
    H           -3.279319212075     0.805825241400     1.041118364684

  Mulliken Charges: (a.u.)
   Center  Symbol    Alpha    Beta     Spin     Total
       1     H     0.33259  0.33259  0.00000  0.33481
       2     N     3.92088  3.92088  0.00000 -0.84175
       3     C     3.06025  3.06025  0.00000 -0.12051
       4     H     0.33535  0.33535  0.00000  0.32929
       5     C     3.15563  3.15563  0.00000 -0.31125
       6     H     0.42091  0.42091  0.00000  0.15819
       7     H     0.43494  0.43494  0.00000  0.13011
       8     C     3.15438  3.15438  0.00000 -0.30877
       9     H     0.41142  0.41142  0.00000  0.17715
      10     H     0.42756  0.42756  0.00000  0.14487
      11     C     3.15123  3.15123  0.00000 -0.30245
      12     H     0.42220  0.42220  0.00000  0.15560
      13     H     0.42493  0.42493  0.00000  0.15014
      14     C     3.23939  3.23939  0.00000 -0.47878
      15     H     0.42166  0.42166  0.00000  0.15669
      16     H     0.42341  0.42341  0.00000  0.15318
      17     H     0.42159  0.42159  0.00000  0.15681
      18     H     0.41940  0.41940  0.00000  0.16121
      19     H     0.42227  0.42227  0.00000  0.15547

   Total alpha = 25.00000, Total beta = 25.00000, Total charge = -0.00000
