  ==> Input File <==

--------------------------------------------------------------------------
set {
	reference rhf
	basis 6-31G*
}

set_num_threads( 1 )
memory 2 gb

molecule MOL {
0 1

O	 -2.726481	 -0.035318	 0.349016
C	 -1.911616	 -0.530502	 1.066805
C	 -0.670985	 -1.193991	 0.495033
C	 -2.053485	 -0.495405	 2.572135
C	 0.379448	 -0.143569	 0.099626
H	 -0.972536	 -1.752917	 -0.384156
H	 -0.246658	 -1.892315	 1.210796
C	 1.631333	 -0.777471	 -0.511575
H	 -0.079118	 0.546685	 -0.599409
H	 0.663563	 0.438117	 0.975221
C	 2.915987	 -0.544314	 0.291766
H	 1.766672	 -0.399098	 -1.523130
H	 1.471257	 -1.849544	 -0.605828
C	 3.373361	 0.914346	 0.347591
H	 3.708709	 -1.142521	 -0.150311
H	 2.780642	 -0.921148	 1.303579
H	 3.506512	 1.320010	 -0.651625
H	 4.322697	 0.999599	 0.867103
H	 2.660624	 1.545032	 0.868198
H	 -2.196096	 -1.504729	 2.949217
H	 -2.901608	 0.114739	 2.849978
H	 -1.151137	 -0.105610	 3.034338

	symmetry c1
}
set optking {
	frozen_dihedral = ("
		6 3 2 1,
		6 3 5 8,
		12 8 11 15
	")
}

ee = energy('scf')
oeprop('DIPOLE', 'QUADRUPOLE', 'MULLIKEN_CHARGES')
f=open( 'psi4out.xyz', 'w' )
f.write( "22  " )
f.write( str(ee) + "\n" )
f.write( MOL.save_string_xyz() )
f.close()
--------------------------------------------------------------------------

    Molecular point group: c1

    Geometry (in Angstrom), charge = 0, multiplicity = 1:

       Center              X                  Y                   Z               Mass
    ------------   -----------------  -----------------  -----------------  -----------------
           O         -2.847392512358     0.301702154922    -0.248177115785    15.994914619560
           C         -2.032527512358    -0.193481845078     0.469611884215    12.000000000000
           C         -0.791896512358    -0.856970845078    -0.102160115785    12.000000000000
           C         -2.174396512358    -0.158384845078     1.974941884215    12.000000000000
           C          0.258536487642     0.193451154922    -0.497567115785    12.000000000000
           H         -1.093447512358    -1.415896845078    -0.981349115785     1.007825032070
           H         -0.367569512358    -1.555294845078     0.613602884215     1.007825032070
           C          1.510421487642    -0.440450845078    -1.108768115785    12.000000000000
           H         -0.200029512358     0.883705154922    -1.196602115785     1.007825032070
           H          0.542651487642     0.775137154922     0.378027884215     1.007825032070
           C          2.795075487642    -0.207293845078    -0.305427115785    12.000000000000
           H          1.645760487642    -0.062077845078    -2.120323115785     1.007825032070
           H          1.350345487642    -1.512523845078    -1.203021115785     1.007825032070
           C          3.252449487642     1.251366154922    -0.249602115785    12.000000000000
           H          3.587797487642    -0.805500845078    -0.747504115785     1.007825032070
           H          2.659730487642    -0.584127845078     0.706385884215     1.007825032070
           H          3.385600487642     1.657030154922    -1.248818115785     1.007825032070
           H          4.201785487642     1.336619154922     0.269909884215     1.007825032070
           H          2.539712487642     1.882052154922     0.271004884215     1.007825032070
           H         -2.317007512358    -1.167708845078     2.352023884215     1.007825032070
           H         -3.022519512358     0.451759154922     2.252784884215     1.007825032070
           H         -1.272048512358     0.231410154922     2.437144884215     1.007825032070

  Charge       = 0
  Multiplicity = 1
  Basis Set: 6-31G*
  Basis Set:

    Orbital Energies (a.u.)
    -----------------------

    Doubly Occupied:

       1A    -20.547129     2A    -11.323922     3A    -11.229497
       4A    -11.228060     5A    -11.227860     6A    -11.222421
       7A    -11.220810     8A    -11.213616     9A     -1.392830
      10A     -1.096589    11A     -1.044274    12A     -0.999676
      13A     -0.938231    14A     -0.860241    15A     -0.784731
      16A     -0.734936    17A     -0.662444    18A     -0.646198
      19A     -0.626250    20A     -0.614436    21A     -0.599596
      22A     -0.586173    23A     -0.559949    24A     -0.545738
      25A     -0.531334    26A     -0.525511    27A     -0.500349
      28A     -0.487707    29A     -0.467144    30A     -0.463684
      31A     -0.459309    32A     -0.395842

  @DF-RHF Final Energy:  -348.09263410845432

   => Energetics <=

    Nuclear Repulsion Energy =            374.5224921281927095
    One-Electron Energy =               -1213.7570173087412968
    Two-Electron Energy =                 491.1418910720938698
    DFT Exchange-Correlation Energy =       0.0000000000000000
    Empirical Dispersion Energy =           0.0000000000000000
    PCM Polarization Energy =               0.0000000000000000
    EFP Energy =                            0.0000000000000000
    Total Energy =                       -348.0926341084547744

  Mulliken Charges: (a.u.)
   Center  Symbol    Alpha    Beta     Spin     Total
       1     O     4.26258  4.26258  0.00000 -0.52516
       2     C     2.73718  2.73718  0.00000  0.52564
       3     C     3.20300  3.20300  0.00000 -0.40600
       4     C     3.28962  3.28962  0.00000 -0.57925
       5     C     3.16469  3.16469  0.00000 -0.32937
       6     H     0.40061  0.40061  0.00000  0.19879
       7     H     0.41674  0.41674  0.00000  0.16651
       8     C     3.15601  3.15601  0.00000 -0.31202
       9     H     0.40278  0.40278  0.00000  0.19443
      10     H     0.41855  0.41855  0.00000  0.16290
      11     C     3.15516  3.15516  0.00000 -0.31033
      12     H     0.41721  0.41721  0.00000  0.16558
      13     H     0.41816  0.41816  0.00000  0.16367
      14     C     3.24119  3.24119  0.00000 -0.48239
      15     H     0.41956  0.41956  0.00000  0.16087
      16     H     0.42460  0.42460  0.00000  0.15080
      17     H     0.42025  0.42025  0.00000  0.15950
      18     H     0.41797  0.41797  0.00000  0.16405
      19     H     0.42015  0.42015  0.00000  0.15970
      20     H     0.40704  0.40704  0.00000  0.18592
      21     H     0.39709  0.39709  0.00000  0.20583
      22     H     0.40984  0.40984  0.00000  0.18032

   Total alpha = 32.00000, Total beta = 32.00000, Total charge =  0.00000
