  ==> Input File <==

--------------------------------------------------------------------------
set {
	reference rhf
	basis cc-pvtz
}

set_num_threads( 4 )
memory 2 gb

molecule MOL {
0 1

H	 2.685922	 0.326766	 1.754436
O	 1.989609	 0.867049	 1.429940
C	 1.135873	 0.113391	 0.608264
C	 0.027642	 1.012027	 0.090274
H	 0.694702	 -0.705287	 1.171204
H	 1.691696	 -0.322966	 -0.217033
C	 -1.138737	 0.285728	 -0.581921
H	 0.464661	 1.708096	 -0.618252
H	 -0.340737	 1.603071	 0.925246
C	 -1.933983	 -0.631436	 0.343653
H	 -0.763151	 -0.285569	 -1.422081
H	 -1.808359	 1.035291	 -0.992333
H	 -2.789188	 -1.049673	 -0.174718
H	 -1.335629	 -1.461368	 0.700418
H	 -2.305435	 -0.092167	 1.209725

	symmetry c1
}
set optking {
	frozen_dihedral = ("
		2 3 4 8
	")
}

ee = optimize('scf')
oeprop('DIPOLE', 'QUADRUPOLE', 'MULLIKEN_CHARGES')
f=open( 'psi4out.xyz', 'w' )
f.write( "15  " )
f.write( str(ee) + "\n" )
f.write( MOL.save_string_xyz() )
f.close()
--------------------------------------------------------------------------

    Molecular point group: c1
  Charge       = 0
  Multiplicity = 1
  Basis Set: CC-PVTZ
  Basis Set:
  @DF-RHF Final Energy:  -232.23615764219170
    Total Energy =                       -232.2361576421916993
    Molecular point group: c1
  Basis Set: CC-PVTZ
  Basis Set:
  Basis Set: CC-PVTZ
  Basis Set:
  @DF-RHF Final Energy:  -232.23641870289416
    Total Energy =                       -232.2364187028941842
  Basis Set: CC-PVTZ
  Basis Set:
  Basis Set: CC-PVTZ
  Basis Set:
  @DF-RHF Final Energy:  -232.23660978318705
    Total Energy =                       -232.2366097831874185
  Basis Set: CC-PVTZ
  Basis Set:
  Basis Set: CC-PVTZ
  Basis Set:
  @DF-RHF Final Energy:  -232.23662785020548
    Total Energy =                       -232.2366278502054797
  Basis Set: CC-PVTZ
  Basis Set:
  Basis Set: CC-PVTZ
  Basis Set:
  @DF-RHF Final Energy:  -232.23662972238529
    Total Energy =                       -232.2366297223850324
  Basis Set: CC-PVTZ
  Basis Set:
  Charge       = 0
  Multiplicity = 1
  Basis Set: CC-PVTZ
  Basis Set:

    Orbital Energies (a.u.)
    -----------------------

    Doubly Occupied:

       1A    -20.545352     2A    -11.264808     3A    -11.216579
       4A    -11.209781     5A    -11.207983     6A     -1.363038
       7A     -1.070365     8A     -0.972157     9A     -0.868789
      10A     -0.785987    11A     -0.697592    12A     -0.653793
      13A     -0.620563    14A     -0.579859    15A     -0.558064
      16A     -0.542397    17A     -0.505401    18A     -0.475731
      19A     -0.473145    20A     -0.458320    21A     -0.435170

  @DF-RHF Final Energy:  -232.23663004734118

   => Energetics <=

    Nuclear Repulsion Energy =            188.2972636466924428
    One-Electron Energy =                -688.0580419350524153
    Two-Electron Energy =                 267.5241482410188496
    DFT Exchange-Correlation Energy =       0.0000000000000000
    Empirical Dispersion Energy =           0.0000000000000000
    PCM Polarization Energy =               0.0000000000000000
    EFP Energy =                            0.0000000000000000
    Total Energy =                       -232.2366300473411229
    Molecular point group: c1
  Basis Set: CC-PVTZ
  Basis Set:

  -Total Gradient:
     Atom            X                  Y                   Z
    ------   -----------------  -----------------  -----------------
       1       -0.000015425745    -0.000010338111    -0.000012519368
       2       -0.001059650289    -0.000551834651     0.001548499951
       3        0.001247895430     0.000366783490    -0.002440182292
       4        0.000258661628     0.001746288903     0.002843650715
       5       -0.000009447648    -0.000013145055    -0.000000023623
       6       -0.000000601494     0.000013763452     0.000008396204
       7       -0.000003370916    -0.000028017519     0.000010519048
       8       -0.000443092832    -0.001537661752    -0.001958106726
       9        0.000002309244     0.000002668936     0.000001046843
      10        0.000009402924     0.000005932195    -0.000012003680
      11        0.000000033150    -0.000000219856     0.000003116963
      12       -0.000002151271     0.000003570309     0.000002944406
      13       -0.000002952255     0.000004350516    -0.000001598584
      14        0.000011005789    -0.000001297130     0.000009074939
      15        0.000007384287    -0.000000843727    -0.000002814794

  **** Optimization is complete! (in 6 steps) ****
    Final optimized geometry and variables:
    Molecular point group: c1

    Geometry (in Angstrom), charge = 0, multiplicity = 1:

    H            2.670972660800     0.017873868244     1.266196269855
    O            1.931772666621     0.536378681976     1.007540235360
    C            1.091482463958    -0.207809885887     0.164502905572
    C           -0.052784586628     0.685677228397    -0.279516779319
    H            0.713053141921    -1.077168254482     0.694207866162
    H            1.637185315368    -0.566340195946    -0.705462658759
    C           -1.183467615392    -0.062782117331    -0.990132846776
    H            0.346273998198     1.433177288122    -0.956614440982
    H           -0.438683195408     1.209352558598     0.588345439879
    C           -2.052053557746    -0.925849459543    -0.077245200346
    H           -0.768465836797    -0.678481780229    -1.784523434539
    H           -1.818665165660     0.667264768829    -1.480530416499
    H           -2.858101085428    -1.386082160264    -0.637252076735
    H           -1.487974118465    -1.722593496080     0.392582819048
    H           -2.497031155146    -0.328139283851     0.711193982249

  Mulliken Charges: (a.u.)
   Center  Symbol    Alpha    Beta     Spin     Total
       1     H     0.39675  0.39675  0.00000  0.20651
       2     O     4.19596  4.19596  0.00000 -0.39193
       3     C     2.96113  2.96113  0.00000  0.07775
       4     C     3.08987  3.08987  0.00000 -0.17974
       5     H     0.47529  0.47529  0.00000  0.04942
       6     H     0.47351  0.47351  0.00000  0.05299
       7     C     3.09887  3.09887  0.00000 -0.19775
       8     H     0.44889  0.44889  0.00000  0.10221
       9     H     0.45022  0.45022  0.00000  0.09956
      10     C     3.14872  3.14872  0.00000 -0.29744
      11     H     0.45632  0.45632  0.00000  0.08736
      12     H     0.44720  0.44720  0.00000  0.10560
      13     H     0.44746  0.44746  0.00000  0.10507
      14     H     0.45638  0.45638  0.00000  0.08724
      15     H     0.45343  0.45343  0.00000  0.09314

   Total alpha = 21.00000, Total beta = 21.00000, Total charge = -0.00000
