                              Psi4 1.0.54 Driver

  ==> Input File <==

--------------------------------------------------------------------------
set {
	reference rhf
	basis cc-pvtz
}

set_num_threads( 4 )
memory 2 gb

molecule MOL {
0 1

H	 -2.498963	 -0.741158	 -0.729149
O	 -2.346257	 -0.289210	 0.080372
C	 -1.183935	 0.486039	 -0.009831
C	 0.062853	 -0.375310	 0.027457
H	 -1.178881	 1.094526	 -0.908634
H	 -1.184406	 1.155156	 0.838676
O	 0.583217	 -0.446589	 -1.259241
H	 -0.184473	 -1.372312	 0.395851
H	 0.783521	 0.058047	 0.717684
C	 1.754865	 -1.185605	 -1.370222
H	 1.603064	 -2.219160	 -1.066914
H	 2.060334	 -1.168318	 -2.406116
H	 2.550872	 -0.761927	 -0.762447

	symmetry c1
}
set optking {
	frozen_dihedral = ("
		8 4 3 5
	")
}

ee,wfn = optimize('scf', return_wfn=True)
oeprop( wfn, 'DIPOLE', 'QUADRUPOLE', 'MULLIKEN_CHARGES')
f=open( 'psi4out.xyz', 'w' )
f.write( "13  " )
f.write( str(ee) + "\n" )
f.write( MOL.save_string_xyz() )
f.close()
--------------------------------------------------------------------------

    Molecular point group: c1
  Charge       = 0
  Multiplicity = 1
  Basis Set: CC-PVTZ
  Basis Set:
  @DF-RHF Final Energy:  -268.05842579045986
    Total Energy =                       -268.0584257904597507
    Molecular point group: c1
  Basis Set: CC-PVTZ
  Basis Set:
  Basis Set: CC-PVTZ
  Basis Set:
  @DF-RHF Final Energy:  -268.05920530452374
    Total Energy =                       -268.0592053045240846
  Basis Set: CC-PVTZ
  Basis Set:
  Basis Set: CC-PVTZ
  Basis Set:
  @DF-RHF Final Energy:  -268.05942702939944
    Total Energy =                       -268.0594270293994441
  Basis Set: CC-PVTZ
  Basis Set:
  Basis Set: CC-PVTZ
  Basis Set:
  @DF-RHF Final Energy:  -268.05943737520670
    Total Energy =                       -268.0594373752065849
  Basis Set: CC-PVTZ
  Basis Set:
  Charge       = 0
  Multiplicity = 1
  Basis Set: CC-PVTZ
  Basis Set:

    Orbital Energies (a.u.)
    -----------------------

    Doubly Occupied:

       1A    -20.555696     2A    -20.546914     3A    -11.269429
       4A    -11.267771     5A    -11.267739     6A     -1.390712
       7A     -1.362714     8A     -1.018079     9A     -0.916244
      10A     -0.840386    11A     -0.706627    12A     -0.682046
      13A     -0.658499    14A     -0.633094    15A     -0.603469
      16A     -0.568469    17A     -0.538019    18A     -0.493992
      19A     -0.487573    20A     -0.440423    21A     -0.423504

  @DF-RHF Final Energy:  -268.05943819489494

   => Energetics <=

    Nuclear Repulsion Energy =            191.8173313765888111
    One-Electron Energy =                -746.4107427894998636
    Two-Electron Energy =                 286.5339732180162287
    DFT Exchange-Correlation Energy =       0.0000000000000000
    Empirical Dispersion Energy =           0.0000000000000000
    PCM Polarization Energy =               0.0000000000000000
    EFP Energy =                            0.0000000000000000
    Total Energy =                       -268.0594381948948808
    Molecular point group: c1
  Basis Set: CC-PVTZ
  Basis Set:

  -Total Gradient:
     Atom            X                  Y                   Z
    ------   -----------------  -----------------  -----------------
       1       -0.000021355990    -0.000021316124    -0.000000185008
       2        0.000008458962     0.000013465036    -0.000043743540
       3        0.002942283807     0.004669019536     0.002199890049
       4        0.000715834961     0.001170926202     0.005848609619
       5       -0.002660237006    -0.004120070836    -0.002761129018
       6        0.000032438063    -0.000008604029    -0.000002914680
       7       -0.000032887614     0.000009099906     0.000013095859
       8       -0.000991127120    -0.001706689826    -0.005264668266
       9       -0.000008417409     0.000005413974     0.000000788315
      10        0.000025130471    -0.000024859954     0.000007918862
      11       -0.000000566095    -0.000002529771    -0.000001909020
      12       -0.000016175968     0.000014953279     0.000008507367
      13        0.000006620938     0.000001192606    -0.000004260538

  **** Optimization is complete! (in 5 steps) ****
    Final optimized geometry and variables:
    Molecular point group: c1

    Geometry (in Angstrom), charge = 0, multiplicity = 1:

    H           -2.189987590326    -0.358277578036    -0.262533546604
    O           -2.103545173314     0.107789334866     0.549538512563
    C           -0.933848518142     0.883843144566     0.523985915849
    C            0.334044193681     0.039752474823     0.562003838853
    H           -0.915129984785     1.479681440420    -0.381098667104
    H           -0.986601624290     1.535305243293     1.383790977560
    O            0.833014548366    -0.077453434217    -0.740053564760
    H            0.083834016016    -0.950936483488     0.931827388399
    H            1.085886886157     0.485287627605     1.209373500536
    C            1.965934507529    -0.874054284955    -0.849618293990
    H            1.770375701284    -1.893167909403    -0.523255342351
    H            2.259932780639    -0.891587518299    -1.889014464397
    H            2.789654785168    -0.477637761481    -0.259912202721

  Mulliken Charges: (a.u.)
   Center  Symbol    Alpha    Beta     Spin     Total
       1     H     0.39050  0.39050  0.00000  0.21901
       2     O     4.20614  4.20614  0.00000 -0.41229
       3     C     2.96584  2.96584  0.00000  0.06833
       4     C     2.98125  2.98125  0.00000  0.03751
       5     H     0.46397  0.46397  0.00000  0.07206
       6     H     0.45599  0.45599  0.00000  0.08803
       7     O     4.17759  4.17759  0.00000 -0.35519
       8     H     0.46812  0.46812  0.00000  0.06376
       9     H     0.47261  0.47261  0.00000  0.05478
      10     C     3.02877  3.02877  0.00000 -0.05755
      11     H     0.47129  0.47129  0.00000  0.05743
      12     H     0.44679  0.44679  0.00000  0.10642
      13     H     0.47115  0.47115  0.00000  0.05770

   Total alpha = 21.00000, Total beta = 21.00000, Total charge =  0.00000

*** Psi4 exiting successfully. Buy a developer a beer!
