  ==> Input File <==

--------------------------------------------------------------------------
set {
	reference rhf
	basis 6-31G*
}

set_num_threads( 4 )
memory 2 gb

molecule MOL {
0 1

O	 2.862325	 1.357334	 0.000267
C	 2.843464	 0.164689	 -0.000222
C	 1.546494	 -0.624492	 -0.000609
C	 4.124123	 -0.644674	 -0.000428
C	 0.291004	 0.242674	 0.000989
H	 1.557904	 -1.283758	 -0.867573
H	 1.558622	 -1.285963	 0.864672
C	 -0.841683	 -0.364083	 -0.828847
H	 0.539330	 1.228837	 -0.378413
H	 -0.038828	 0.389246	 1.024647
C	 -2.105450	 0.497648	 -0.835591
H	 -0.502997	 -0.511597	 -1.853336
H	 -1.084562	 -1.353520	 -0.444021
C	 -3.243013	 -0.102533	 -1.663690
H	 -1.863985	 1.486767	 -1.220764
H	 -2.445422	 0.645053	 0.187975
C	 -4.501847	 0.764080	 -1.665768
H	 -2.904746	 -0.249234	 -2.687348
H	 -3.486306	 -1.090675	 -1.278667
H	 -4.299059	 1.748873	 -2.077120
H	 -5.289593	 0.312879	 -2.261229
H	 -4.885423	 0.900523	 -0.658595
H	 4.165367	 -1.288615	 -0.874074
H	 4.976217	 0.020734	 -0.001915
H	 4.166763	 -1.286207	 0.874930

	symmetry c1
}
set optking {
	frozen_dihedral = ("
		9 5 3 6
	")
}

ee = optimize('scf')
oeprop('DIPOLE', 'QUADRUPOLE', 'MULLIKEN_CHARGES')
f=open( 'psi4out.xyz', 'w' )
f.write( "25  " )
f.write( str(ee) + "\n" )
f.write( MOL.save_string_xyz() )
f.close()
--------------------------------------------------------------------------

    Molecular point group: c1
  Charge       = 0
  Multiplicity = 1
  Basis Set: 6-31G*
  Basis Set:
  @DF-RHF Final Energy:  -387.13324586935619
    Total Energy =                       -387.1332458693566423
    Molecular point group: c1
  Basis Set: 6-31G*
  Basis Set:
  Basis Set: 6-31G*
  Basis Set:
  @DF-RHF Final Energy:  -387.13350347620076
    Total Energy =                       -387.1335034762007581
  Basis Set: 6-31G*
  Basis Set:
  Basis Set: 6-31G*
  Basis Set:
  @DF-RHF Final Energy:  -387.13352685122493
    Total Energy =                       -387.1335268512247012
  Basis Set: 6-31G*
  Basis Set:
  Basis Set: 6-31G*
  Basis Set:
  @DF-RHF Final Energy:  -387.13357584119711
    Total Energy =                       -387.1335758411971710
  Basis Set: 6-31G*
  Basis Set:
  Basis Set: 6-31G*
  Basis Set:
  @DF-RHF Final Energy:  -387.13359066871635
    Total Energy =                       -387.1335906687165789
  Basis Set: 6-31G*
  Basis Set:
  Charge       = 0
  Multiplicity = 1
  Basis Set: 6-31G*
  Basis Set:

    Orbital Energies (a.u.)
    -----------------------

    Doubly Occupied:

       1A    -20.551106     2A    -11.327262     3A    -11.231802
       4A    -11.228580     5A    -11.216905     6A    -11.215394
       7A    -11.215155     8A    -11.213210     9A    -11.208141
      10A     -1.396498    11A     -1.092572    12A     -1.055737
      13A     -1.014678    14A     -0.968741    15A     -0.890970
      16A     -0.814742    17A     -0.790866    18A     -0.730402
      19A     -0.663762    20A     -0.647714    21A     -0.631487
      22A     -0.623619    23A     -0.595258    24A     -0.583878
      25A     -0.570029    26A     -0.559029    27A     -0.538338
      28A     -0.525904    29A     -0.513304    30A     -0.493495
      31A     -0.484823    32A     -0.470725    33A     -0.464032
      34A     -0.460923    35A     -0.448850    36A     -0.400895

  @DF-RHF Final Energy:  -387.13359093430728

   => Energetics <=

    Nuclear Repulsion Energy =            438.5419995541514595
    One-Electron Energy =               -1393.6735270026551916
    Two-Electron Energy =                 567.9979365141966809
    DFT Exchange-Correlation Energy =       0.0000000000000000
    Empirical Dispersion Energy =           0.0000000000000000
    PCM Polarization Energy =               0.0000000000000000
    EFP Energy =                            0.0000000000000000
    Total Energy =                       -387.1335909343069943
    Molecular point group: c1
  Basis Set: 6-31G*
  Basis Set:

  -Total Gradient:
     Atom            X                  Y                   Z
    ------   -----------------  -----------------  -----------------
       1       -0.000072208294     0.000005472332    -0.000006217384
       2        0.000009984011     0.000082713843    -0.000060666820
       3        0.002394464650     0.003352145414    -0.001480710422
       4       -0.000036319379    -0.000074331033     0.000049157787
       5       -0.001340652247    -0.001970383422    -0.003597516573
       6       -0.001696869492    -0.002461029835     0.001852586943
       7       -0.000011108006    -0.000021632984    -0.000038166667
       8       -0.000005537193    -0.000019706353    -0.000042207466
       9        0.000721506978     0.001080146756     0.003276301888
      10       -0.000006413599     0.000037955970     0.000035743665
      11        0.000015965422     0.000028160738     0.000027526801
      12        0.000002117485     0.000015629094    -0.000017237750
      13        0.000013560670    -0.000004945036    -0.000012849436
      14        0.000008814674    -0.000033555683     0.000012306472
      15       -0.000008360933    -0.000000024691    -0.000010930099
      16        0.000002249943     0.000008287344     0.000010709804
      17        0.000015834498     0.000011545405     0.000013280617
      18        0.000005841752    -0.000000786921     0.000005950455
      19       -0.000006019977    -0.000005403004     0.000001159017
      20        0.000000544953     0.000002106522     0.000001467117
      21        0.000012304263    -0.000003907801    -0.000001919792
      22       -0.000004467338    -0.000000907465     0.000000343838
      23        0.000000351083    -0.000006934072    -0.000008614568
      24       -0.000045262525     0.000009662995    -0.000011782465
      25        0.000029678586    -0.000030278118     0.000002285041

  **** Optimization is complete! (in 6 steps) ****
    Final optimized geometry and variables:
    Molecular point group: c1

    Geometry (in Angstrom), charge = 0, multiplicity = 1:

    O            2.816508022527     1.204201077060     0.598281074579
    C            2.763470714061     0.012989787895     0.577346186657
    C            1.450785929357    -0.748160809837     0.517207332292
    C            4.020824426371    -0.831566222175     0.615332935484
    C            0.191186241824     0.125331149285     0.488872403864
    H            1.482247178856    -1.418110212176    -0.340768399224
    H            1.429725918038    -1.419336182223     1.374626738897
    C           -0.952460764797    -0.495191929474    -0.313983091006
    H            0.445296518121     1.106228822024     0.105657876227
    H           -0.139895088502     0.296491343436     1.510181408850
    C           -2.227346165207     0.348821969243    -0.288701088514
    H           -0.632637644576    -0.632963207246    -1.345719542333
    H           -1.172146182776    -1.489770618131     0.072013853081
    C           -3.372940812805    -0.260882784976    -1.098564643800
    H           -2.006472743983     1.343857666790    -0.670794478851
    H           -2.549236974053     0.483736042309     0.742557559053
    C           -4.643500338502     0.587857263644    -1.067972050211
    H           -3.053470336559    -0.394314311169    -2.129990172676
    H           -3.594503780532    -1.255495026628    -0.717010146113
    H           -4.462695924924     1.578756909311    -1.474796517785
    H           -5.436624935931     0.130539550242    -1.651480606782
    H           -5.008738186390     0.710442155947    -0.052196674490
    H            4.075042084240    -1.471300506179    -0.260594596151
    H            4.889822191341    -0.189364018735     0.648038754216
    H            4.015948182505    -1.478794993438     1.487513614570

  Mulliken Charges: (a.u.)
   Center  Symbol    Alpha    Beta     Spin     Total
       1     O     4.26035  4.26035  0.00000 -0.52070
       2     C     2.73719  2.73719  0.00000  0.52562
       3     C     3.21381  3.21381  0.00000 -0.42762
       4     C     3.28714  3.28714  0.00000 -0.57429
       5     C     3.15351  3.15351  0.00000 -0.30702
       6     H     0.40851  0.40851  0.00000  0.18298
       7     H     0.40822  0.40822  0.00000  0.18355
       8     C     3.15512  3.15512  0.00000 -0.31025
       9     H     0.39883  0.39883  0.00000  0.20235
      10     H     0.41899  0.41899  0.00000  0.16201
      11     C     3.15141  3.15141  0.00000 -0.30282
      12     H     0.42341  0.42341  0.00000  0.15317
      13     H     0.42513  0.42513  0.00000  0.14975
      14     C     3.15150  3.15150  0.00000 -0.30301
      15     H     0.42132  0.42132  0.00000  0.15735
      16     H     0.42341  0.42341  0.00000  0.15319
      17     C     3.23933  3.23933  0.00000 -0.47865
      18     H     0.42318  0.42318  0.00000  0.15365
      19     H     0.42376  0.42376  0.00000  0.15248
      20     H     0.42109  0.42109  0.00000  0.15781
      21     H     0.41954  0.41954  0.00000  0.16091
      22     H     0.42171  0.42171  0.00000  0.15657
      23     H     0.40874  0.40874  0.00000  0.18252
      24     H     0.39635  0.39635  0.00000  0.20730
      25     H     0.40843  0.40843  0.00000  0.18313

   Total alpha = 36.00000, Total beta = 36.00000, Total charge = -0.00000
