  ==> Input File <==

--------------------------------------------------------------------------
set {
	reference rhf
	basis 6-31G*
}

set_num_threads( 1 )
memory 2 gb

molecule MOL {
0 1

H	 -2.499100	 -0.730091	 -0.745082
O	 -2.347518	 -0.290803	 0.079804
C	 -1.184022	 0.487508	 -0.006784
C	 0.062599	 -0.378592	 0.031606
H	 -1.176523	 1.099369	 -0.904519
H	 -1.187323	 1.153111	 0.844927
O	 1.171513	 0.459272	 -0.058250
H	 0.050699	 -1.089204	 -0.797170
H	 0.078739	 -0.954914	 0.954740
C	 2.232675	 0.103354	 0.770242
H	 2.606819	 -0.890742	 0.532713
H	 3.024754	 0.822398	 0.613749
H	 1.941480	 0.121209	 1.818420

	symmetry c1
}
set optking {
	frozen_dihedral = ("
		8 4 3 5,
		1 2 3 5,
		4 7 10 13
	")
}

ee = energy('scf')
oeprop('DIPOLE', 'QUADRUPOLE', 'MULLIKEN_CHARGES')
f=open( 'psi4out.xyz', 'w' )
f.write( "13  " )
f.write( str(ee) + "\n" )
f.write( MOL.save_string_xyz() )
f.close()
--------------------------------------------------------------------------

    Molecular point group: c1

    Geometry (in Angstrom), charge = 0, multiplicity = 1:

       Center              X                  Y                   Z               Mass
    ------------   -----------------  -----------------  -----------------  -----------------
           H         -2.464738033475    -0.792802400896    -0.905779523510     1.007825032070
           O         -2.313156033475    -0.353514400896    -0.080893523510    15.994914619560
           C         -1.149660033475     0.424796599104    -0.167481523510    12.000000000000
           C          0.096960966525    -0.441303400896    -0.129091523510    12.000000000000
           H         -1.142161033475     1.036657599104    -1.065216523510     1.007825032070
           H         -1.152961033475     1.090399599104     0.684229476490     1.007825032070
           O          1.205874966525     0.396560599104    -0.218947523510    15.994914619560
           H          0.085060966525    -1.151915400896    -0.957867523510     1.007825032070
           H          0.113100966525    -1.017625400896     0.794042476490     1.007825032070
           C          2.267036966525     0.040642599104     0.609544476490    12.000000000000
           H          2.641180966525    -0.953453400896     0.372015476490     1.007825032070
           H          3.059115966525     0.759686599104     0.453051476490     1.007825032070
           H          1.975841966525     0.058497599104     1.657722476490     1.007825032070

  Charge       = 0
  Multiplicity = 1
  Basis Set: 6-31G*
  Basis Set:

    Orbital Energies (a.u.)
    -----------------------

    Doubly Occupied:

       1A    -20.560893     2A    -20.559330     3A    -11.270491
       4A    -11.270254     5A    -11.267943     6A     -1.388551
       7A     -1.364554     8A     -1.017240     9A     -0.915370
      10A     -0.841104    11A     -0.708317    12A     -0.676106
      13A     -0.658178    14A     -0.634507    15A     -0.599315
      16A     -0.574939    17A     -0.533310    18A     -0.492186
      19A     -0.484111    20A     -0.447705    21A     -0.411370

  @DF-RHF Final Energy:  -267.94805653527408

   => Energetics <=

    Nuclear Repulsion Energy =            190.7628150322247222
    One-Electron Energy =                -744.0701366640236074
    Two-Electron Energy =                 285.3592650965247230
    DFT Exchange-Correlation Energy =       0.0000000000000000
    Empirical Dispersion Energy =           0.0000000000000000
    PCM Polarization Energy =               0.0000000000000000
    EFP Energy =                            0.0000000000000000
    Total Energy =                       -267.9480565352741905

  Mulliken Charges: (a.u.)
   Center  Symbol    Alpha    Beta     Spin     Total
       1     H     0.28120  0.28120  0.00000  0.43761
       2     O     4.37113  4.37113  0.00000 -0.74227
       3     C     3.00365  3.00365  0.00000 -0.00731
       4     C     2.99987  2.99987  0.00000  0.00026
       5     H     0.42184  0.42184  0.00000  0.15632
       6     H     0.41161  0.41161  0.00000  0.17677
       7     O     4.30705  4.30705  0.00000 -0.61409
       8     H     0.43202  0.43202  0.00000  0.13597
       9     H     0.42296  0.42296  0.00000  0.15408
      10     C     3.08172  3.08172  0.00000 -0.16344
      11     H     0.42813  0.42813  0.00000  0.14375
      12     H     0.41164  0.41164  0.00000  0.17672
      13     H     0.42719  0.42719  0.00000  0.14563

   Total alpha = 21.00000, Total beta = 21.00000, Total charge = -0.00000
