                              Psi4 1.0.54 Driver

  ==> Input File <==

--------------------------------------------------------------------------
set {
	reference rhf
	basis cc-pvtz
}

set_num_threads( 4 )
memory 2 gb

molecule MOL {
0 1

H	 4.051741	 4.899441	 0.000271
C	 3.493893	 3.982391	 0.000217
C	 2.110956	 4.015969	 0.000195
C	 4.159616	 2.771277	 0.000169
H	 1.594909	 4.956392	 0.000232
C	 1.394812	 2.837143	 0.000125
H	 5.232112	 2.746313	 0.000186
C	 3.443941	 1.590046	 0.000099
H	 0.323831	 2.844812	 0.000107
C	 2.058439	 1.619981	 0.000076
H	 3.956425	 0.650424	 0.000062
C	 1.238974	 0.374429	 0.000004
O	 1.968286	 -0.725612	 -0.000027
O	 0.053610	 0.364958	 0.000015
C	 3.373556	 -0.568203	 0.000011
H	 3.695416	 -0.031588	 -0.879663
H	 3.782700	 -1.565294	 -0.000152
H	 3.695405	 -0.031851	 0.879862

	symmetry c1
}
set optking {
	frozen_dihedral = ("
		10 12 13 15
	")
}

ee,wfn = optimize('scf', return_wfn=True)
oeprop( wfn, 'DIPOLE', 'QUADRUPOLE', 'MULLIKEN_CHARGES')
f=open( 'psi4out.xyz', 'w' )
f.write( "18  " )
f.write( str(ee) + "\n" )
f.write( MOL.save_string_xyz() )
f.close()
--------------------------------------------------------------------------

    Molecular point group: c1
  Charge       = 0
  Multiplicity = 1
  Basis Set: CC-PVTZ
  Basis Set:
  @DF-RHF Final Energy:  -457.30549322855751
    Total Energy =                       -457.3054932285579071
    Molecular point group: c1
  Basis Set: CC-PVTZ
  Basis Set:
  Basis Set: CC-PVTZ
  Basis Set:
  @DF-RHF Final Energy:  -457.40761020858571
    Total Energy =                       -457.4076102085859930
  Basis Set: CC-PVTZ
  Basis Set:
  Basis Set: CC-PVTZ
  Basis Set:
  @DF-RHF Final Energy:  -457.44959833451804
    Total Energy =                       -457.4495983345183276
  Basis Set: CC-PVTZ
  Basis Set:
  Basis Set: CC-PVTZ
  Basis Set:
  @DF-RHF Final Energy:  -457.47098405319213
    Total Energy =                       -457.4709840531920690
  Basis Set: CC-PVTZ
  Basis Set:
  @DF-RHF Final Energy:  -457.47895870756105
    Total Energy =                       -457.4789587075611053
  @DF-RHF Final Energy:  -457.48143115342418
    Total Energy =                       -457.4814311534242961
  @DF-RHF Final Energy:  -457.48209185184254
    Total Energy =                       -457.4820918518428243
  @DF-RHF Final Energy:  -457.48228147429637
    Total Energy =                       -457.4822814742964283
  @DF-RHF Final Energy:  -457.48217180053092
    Total Energy =                       -457.4821718005312050
  Basis Set: CC-PVTZ
  Basis Set:
  @DF-RHF Final Energy:  -457.48239635636185
    Total Energy =                       -457.4823963563617326
  Basis Set: CC-PVTZ
  Basis Set:
  Basis Set: CC-PVTZ
  Basis Set:
  @DF-RHF Final Energy:  -457.48242445347182
    Total Energy =                       -457.4824244534723903
  Basis Set: CC-PVTZ
  Basis Set:
  Basis Set: CC-PVTZ
  Basis Set:
  @DF-RHF Final Energy:  -457.48243164037069
    Total Energy =                       -457.4824316403703506
  Basis Set: CC-PVTZ
  Basis Set:
  Charge       = 0
  Multiplicity = 1
  Basis Set: CC-PVTZ
  Basis Set:

    Orbital Energies (a.u.)
    -----------------------

    Doubly Occupied:

       1A    -20.596104     2A    -20.524608     3A    -11.376548
       4A    -11.295944     5A    -11.257424     6A    -11.252705
       7A    -11.248567     8A    -11.242493     9A    -11.242163
      10A    -11.239287    11A     -1.467995    12A     -1.365936
      13A     -1.175507    14A     -1.048340    15A     -1.034770
      16A     -0.995919    17A     -0.875849    18A     -0.847240
      19A     -0.790023    20A     -0.740983    21A     -0.694363
      22A     -0.682445    23A     -0.675721    24A     -0.645598
      25A     -0.628304    26A     -0.608629    27A     -0.593619
      28A     -0.576699    29A     -0.545860    30A     -0.519358
      31A     -0.510656    32A     -0.493970    33A     -0.453355
      34A     -0.443369    35A     -0.357199    36A     -0.350450

  @DF-RHF Final Energy:  -457.48243263766216

   => Energetics <=

    Nuclear Repulsion Energy =            496.1269949566002992
    One-Electron Energy =               -1606.4228506371173353
    Two-Electron Energy =                 652.8134230428547653
    DFT Exchange-Correlation Energy =       0.0000000000000000
    Empirical Dispersion Energy =           0.0000000000000000
    PCM Polarization Energy =               0.0000000000000000
    EFP Energy =                            0.0000000000000000
    Total Energy =                       -457.4824326376622139
    Molecular point group: c1
  Basis Set: CC-PVTZ
  Basis Set:

  -Total Gradient:
     Atom            X                  Y                   Z
    ------   -----------------  -----------------  -----------------
       1       -0.000000426113     0.000001547028    -0.000000669373
       2       -0.000035425486     0.000016647933     0.000002707869
       3        0.000031085316     0.000018404292    -0.000000697225
       4        0.000002264110    -0.000042400639    -0.000002395606
       5       -0.000001629096     0.000000411449     0.000000169593
       6        0.000000585845    -0.000035760513    -0.000003592351
       7       -0.000002230345     0.000002079631    -0.000000530748
       8        0.000071446498     0.000105910858     0.000000696447
       9       -0.000000477784     0.000007673632    -0.000000252762
      10       -0.000002036602     0.000005689815     0.000017223935
      11       -0.000043807308    -0.000050895828    -0.000004082853
      12       -0.000207334491     0.000074038942    -0.000021833451
      13       -0.000003762344    -0.000103657766     0.000006609807
      14        0.000140843809    -0.000004702432     0.000007053739
      15        0.000009327059     0.000079018273    -0.000002552141
      16        0.000007829656    -0.000038775716    -0.000006322550
      17        0.000032166398    -0.000000283164    -0.000000698292
      18        0.000001580874    -0.000034945794     0.000009165962

  **** Optimization is complete! (in 13 steps) ****
    Final optimized geometry and variables:
    Molecular point group: c1

    Geometry (in Angstrom), charge = 0, multiplicity = 1:

    H            1.523670956749     3.627528943820    -0.000108202470
    C            1.060411059807     2.659447915206    -0.000047138570
    C           -0.318058560681     2.545551624949    -0.000258431125
    C            1.835343215884     1.520199456569     0.000203431314
    H           -0.932989031541     3.424530097758    -0.000475768969
    C           -0.907401104651     1.301387197336    -0.000192367657
    H            2.905578372953     1.594583917449     0.000345228769
    C            1.242886807285     0.269603497572     0.000270542348
    H           -1.972444848520     1.209569283502    -0.000350338998
    C           -0.138923053894     0.138685680452     0.000096779873
    H            1.888635587664    -0.576165369561     0.000444306516
    C           -0.944341093930    -1.141517219096     0.000114800535
    O           -0.406336009515    -2.355066708570    -0.000127932642
    O           -2.125174368583    -1.085897110105     0.000434903493
    C            0.936941471243    -2.756801557032    -0.000451263958
    H            1.455827039119    -2.425097465165    -0.888531553013
    H            0.908175492790    -3.834545322326    -0.000890092824
    H            1.455940181197    -2.425813439135     0.887833773348

  Mulliken Charges: (a.u.)
   Center  Symbol    Alpha    Beta     Spin     Total
       1     H     0.41927  0.41927  0.00000  0.16147
       2     C     3.06929  3.06929  0.00000 -0.13859
       3     C     3.07521  3.07521  0.00000 -0.15043
       4     C     3.08177  3.08177  0.00000 -0.16355
       5     H     0.41938  0.41938  0.00000  0.16124
       6     C     3.06827  3.06827  0.00000 -0.13654
       7     H     0.42288  0.42288  0.00000  0.15424
       8     C     3.09820  3.09820  0.00000 -0.19641
       9     H     0.40103  0.40103  0.00000  0.19795
      10     C     3.03029  3.03029  0.00000 -0.06058
      11     H     0.42073  0.42073  0.00000  0.15854
      12     C     2.77908  2.77908  0.00000  0.44183
      13     O     4.12516  4.12516  0.00000 -0.25031
      14     O     4.19475  4.19475  0.00000 -0.38951
      15     C     3.04191  3.04191  0.00000 -0.08381
      16     H     0.45904  0.45904  0.00000  0.08191
      17     H     0.43469  0.43469  0.00000  0.13062
      18     H     0.45905  0.45905  0.00000  0.08191

   Total alpha = 36.00000, Total beta = 36.00000, Total charge = -0.00000

*** Psi4 exiting successfully. Buy a developer a beer!
