                              Psi4 1.0.54 Driver

  ==> Input File <==

--------------------------------------------------------------------------
set {
	reference rhf
	basis cc-pvtz
}

set_num_threads( 4 )
memory 2 gb

molecule MOL {
0 1

H	 2.043764	 -1.202497	 0.972849
C	 1.244095	 -0.508988	 1.171361
O	 0.462329	 -0.453336	 -0.000137
H	 1.664440	 0.460791	 1.406003
H	 0.662706	 -0.867567	 2.011389
C	 -0.590565	 0.341382	 0.000062
O	 -1.693898	 -0.053880	 0.000252
H	 -0.340426	 1.403822	 0.000200

	symmetry c1
}
set optking {
	frozen_dihedral = ("
		2 3 6 7
	")
}

ee,wfn = optimize('scf', return_wfn=True)
oeprop( wfn, 'DIPOLE', 'QUADRUPOLE', 'MULLIKEN_CHARGES')
f=open( 'psi4out.xyz', 'w' )
f.write( "8  " )
f.write( str(ee) + "\n" )
f.write( MOL.save_string_xyz() )
f.close()
--------------------------------------------------------------------------

    Molecular point group: c1
  Charge       = 0
  Multiplicity = 1
  Basis Set: CC-PVTZ
  Basis Set:
  @DF-RHF Final Energy:  -227.86017425119877
    Total Energy =                       -227.8601742511987425
    Molecular point group: c1
  Basis Set: CC-PVTZ
  Basis Set:
  Basis Set: CC-PVTZ
  Basis Set:
  @DF-RHF Final Energy:  -227.86057936827959
    Total Energy =                       -227.8605793682794740
  Basis Set: CC-PVTZ
  Basis Set:
  Basis Set: CC-PVTZ
  Basis Set:
  @DF-RHF Final Energy:  -227.86063138472122
    Total Energy =                       -227.8606313847211879
  Basis Set: CC-PVTZ
  Basis Set:
  Basis Set: CC-PVTZ
  Basis Set:
  @DF-RHF Final Energy:  -227.86063371378407
    Total Energy =                       -227.8606337137840114
  Basis Set: CC-PVTZ
  Basis Set:
  Basis Set: CC-PVTZ
  Basis Set:
  @DF-RHF Final Energy:  -227.86062510329754
    Total Energy =                       -227.8606251032975933
  Basis Set: CC-PVTZ
  Basis Set:
  Charge       = 0
  Multiplicity = 1
  Basis Set: CC-PVTZ
  Basis Set:

    Orbital Energies (a.u.)
    -----------------------

    Doubly Occupied:

       1A    -20.593728     2A    -20.561637     3A    -11.376417
       4A    -11.299282     5A     -1.474555     6A     -1.387165
       7A     -0.986954     8A     -0.840645     9A     -0.740464
      10A     -0.691043    11A     -0.673235    12A     -0.625749
      13A     -0.566995    14A     -0.518283    15A     -0.476226
      16A     -0.461073

  @DF-RHF Final Energy:  -227.86063575600031

   => Energetics <=

    Nuclear Repulsion Energy =            121.8510615556600811
    One-Electron Energy =                -552.8764942238556159
    Two-Electron Energy =                 203.1647969121950439
    DFT Exchange-Correlation Energy =       0.0000000000000000
    Empirical Dispersion Energy =           0.0000000000000000
    PCM Polarization Energy =               0.0000000000000000
    EFP Energy =                            0.0000000000000000
    Total Energy =                       -227.8606357560005051
    Molecular point group: c1
  Basis Set: CC-PVTZ
  Basis Set:

  -Total Gradient:
     Atom            X                  Y                   Z
    ------   -----------------  -----------------  -----------------
       1        0.000009027098     0.000015221731    -0.000001029268
       2       -0.002105686050    -0.002219316260     0.001388755261
       3        0.003105219292     0.003378586441     0.000147387041
       4        0.000010059008    -0.000010254917     0.000004686522
       5       -0.000005164103     0.000014051494    -0.000008915155
       6       -0.001139981502    -0.001400550670    -0.005937534803
       7        0.000117228608     0.000246778682     0.004388634537
       8        0.000009297651    -0.000024516502     0.000018015864

  **** Optimization is complete! (in 6 steps) ****
    Final optimized geometry and variables:
    Molecular point group: c1

    Geometry (in Angstrom), charge = 0, multiplicity = 1:

    H            2.153383867851    -1.103296560039     0.679227870984
    C            1.341089247587    -0.420834524235     0.865563156928
    O            0.560553467192    -0.383111130984    -0.309491867657
    H            1.745647915872     0.558824043221     1.099384199555
    H            0.749291833668    -0.776344985712     1.698825167239
    C           -0.409150582966     0.534871231551    -0.333317610179
    O           -1.550652578807     0.282754440111    -0.283739428163
    H           -0.031166242203     1.555735476080    -0.399782618567

  Mulliken Charges: (a.u.)
   Center  Symbol    Alpha    Beta     Spin     Total
       1     H     0.44280  0.44280  0.00000  0.11441
       2     C     3.02401  3.02401  0.00000 -0.04802
       3     O     4.14679  4.14679  0.00000 -0.29359
       4     H     0.46723  0.46723  0.00000  0.06554
       5     H     0.45568  0.45568  0.00000  0.08864
       6     C     2.83219  2.83219  0.00000  0.33563
       7     O     4.16139  4.16139  0.00000 -0.32277
       8     H     0.46992  0.46992  0.00000  0.06017

   Total alpha = 16.00000, Total beta = 16.00000, Total charge =  0.00000

*** Psi4 exiting successfully. Buy a developer a beer!
