  ==> Input File <==

--------------------------------------------------------------------------
set {
	reference rhf
	basis 6-31G*
}

set_num_threads( 1 )
memory 2 gb

molecule MOL {
0 1

O	 1.846825	 1.296220	 0.000415
C	 1.705091	 0.115954	 0.001797
C	 0.381791	 -0.609817	 0.001258
O	 2.721346	 -0.737485	 -0.000216
C	 -0.823008	 0.326187	 0.001381
H	 0.371250	 -1.265087	 -0.865474
H	 0.370908	 -1.265746	 0.867490
C	 -2.057001	 -0.316046	 -0.634118
H	 -0.567325	 1.238188	 -0.528779
H	 -1.045377	 0.622749	 1.021632
C	 -3.274863	 0.609474	 -0.643180
H	 -1.826518	 -0.614460	 -1.655795
H	 -2.306885	 -1.231289	 -0.099544
C	 -4.507852	 -0.033211	 -1.277170
H	 -3.027684	 1.523188	 -1.179063
H	 -3.506884	 0.907740	 0.376791
H	 -4.318047	 -0.311486	 -2.310007
H	 -5.353880	 0.646946	 -1.268447
H	 -4.800792	 -0.932152	 -0.742006
C	 4.024888	 -0.184556	 -0.001949
H	 4.179030	 0.422472	 -0.882452
H	 4.701782	 -1.024608	 -0.003642
H	 4.181981	 0.421185	 0.878906

	symmetry c1
}
set optking {
	frozen_dihedral = ("
		15 11 8 12,
		9 5 8 12,
		1 2 3 6,
		1 2 4 20
	")
}

ee = energy('scf')
oeprop('DIPOLE', 'QUADRUPOLE', 'MULLIKEN_CHARGES')
f=open( 'psi4out.xyz', 'w' )
f.write( "23  " )
f.write( str(ee) + "\n" )
f.write( MOL.save_string_xyz() )
f.close()
--------------------------------------------------------------------------

    Molecular point group: c1

    Geometry (in Angstrom), charge = 0, multiplicity = 1:

       Center              X                  Y                   Z               Mass
    ------------   -----------------  -----------------  -----------------  -----------------
           O          1.805269889135     1.242694528610     0.285281723481    15.994914619560
           C          1.663535889135     0.062428528610     0.286663723481    12.000000000000
           C          0.340235889135    -0.663342471390     0.286124723481    12.000000000000
           O          2.679790889135    -0.791010471390     0.284650723481    15.994914619560
           C         -0.864563110865     0.272661528610     0.286247723481    12.000000000000
           H          0.329694889135    -1.318612471390    -0.580607276519     1.007825032070
           H          0.329352889135    -1.319271471390     1.152356723481     1.007825032070
           C         -2.098556110865    -0.369571471390    -0.349251276519    12.000000000000
           H         -0.608880110865     1.184662528610    -0.243912276519     1.007825032070
           H         -1.086932110865     0.569223528610     1.306498723481     1.007825032070
           C         -3.316418110865     0.555948528610    -0.358313276519    12.000000000000
           H         -1.868073110865    -0.667985471390    -1.370928276519     1.007825032070
           H         -2.348440110865    -1.284814471390     0.185322723481     1.007825032070
           C         -4.549407110865    -0.086736471390    -0.992303276519    12.000000000000
           H         -3.069239110865     1.469662528610    -0.894196276519     1.007825032070
           H         -3.548439110865     0.854214528610     0.661657723481     1.007825032070
           H         -4.359602110865    -0.365011471390    -2.025140276519     1.007825032070
           H         -5.395435110865     0.593420528610    -0.983580276519     1.007825032070
           H         -4.842347110865    -0.985677471390    -0.457139276519     1.007825032070
           C          3.983332889135    -0.238081471390     0.282917723481    12.000000000000
           H          4.137474889135     0.368946528610    -0.597585276519     1.007825032070
           H          4.660226889135    -1.078133471390     0.281224723481     1.007825032070
           H          4.140425889135     0.367659528610     1.163772723481     1.007825032070

  Charge       = 0
  Multiplicity = 1
  Basis Set: 6-31G*
  Basis Set:

    Orbital Energies (a.u.)
    -----------------------

    Doubly Occupied:

       1A    -20.603903     2A    -20.545802     3A    -11.372547
       4A    -11.280982     5A    -11.234883     6A    -11.217678
       7A    -11.217089     8A    -11.215833     9A    -11.209245
      10A     -1.469617    11A     -1.363210    12A     -1.092708
      13A     -1.043282    14A     -0.986904    15A     -0.931754
      16A     -0.843302    17A     -0.795015    18A     -0.767133
      19A     -0.698958    20A     -0.682825    21A     -0.672015
      22A     -0.649543    23A     -0.610041    24A     -0.599673
      25A     -0.571771    26A     -0.557631    27A     -0.556742
      28A     -0.524843    29A     -0.522756    30A     -0.504802
      31A     -0.484147    32A     -0.469335    33A     -0.464620
      34A     -0.459624    35A     -0.456161    36A     -0.436366

  @DF-RHF Final Energy:  -422.97423706154444

   => Energetics <=

    Nuclear Repulsion Energy =            452.8954340165852841
    One-Electron Energy =               -1473.5140331569209593
    Two-Electron Energy =                 597.6443620787879354
    DFT Exchange-Correlation Energy =       0.0000000000000000
    Empirical Dispersion Energy =           0.0000000000000000
    PCM Polarization Energy =               0.0000000000000000
    EFP Energy =                            0.0000000000000000
    Total Energy =                       -422.9742370615476830

  Mulliken Charges: (a.u.)
   Center  Symbol    Alpha    Beta     Spin     Total
       1     O     4.28532  4.28532  0.00000 -0.57063
       2     C     2.60793  2.60793  0.00000  0.78414
       3     C     3.20914  3.20914  0.00000 -0.41828
       4     O     4.30658  4.30658  0.00000 -0.61316
       5     C     3.15623  3.15623  0.00000 -0.31247
       6     H     0.39984  0.39984  0.00000  0.20032
       7     H     0.39909  0.39909  0.00000  0.20183
       8     C     3.15458  3.15458  0.00000 -0.30916
       9     H     0.40160  0.40160  0.00000  0.19680
      10     H     0.41658  0.41658  0.00000  0.16684
      11     C     3.15189  3.15189  0.00000 -0.30378
      12     H     0.42328  0.42328  0.00000  0.15345
      13     H     0.42444  0.42444  0.00000  0.15111
      14     C     3.23953  3.23953  0.00000 -0.47905
      15     H     0.42066  0.42066  0.00000  0.15868
      16     H     0.42209  0.42209  0.00000  0.15582
      17     H     0.42174  0.42174  0.00000  0.15652
      18     H     0.41861  0.41861  0.00000  0.16278
      19     H     0.42200  0.42200  0.00000  0.15601
      20     C     3.09235  3.09235  0.00000 -0.18469
      21     H     0.40907  0.40907  0.00000  0.18186
      22     H     0.40841  0.40841  0.00000  0.18318
      23     H     0.40905  0.40905  0.00000  0.18190

   Total alpha = 36.00000, Total beta = 36.00000, Total charge = -0.00000
