                              Psi4 1.0.54 Driver

  ==> Input File <==

--------------------------------------------------------------------------
set {
	reference rhf
	basis cc-pvtz
}

set_num_threads( 4 )
memory 2 gb

molecule MOL {
0 1

O	 0.366136	 0.814489	 -0.862391
C	 0.029490	 0.077183	 0.000078
C	 -1.232113	 -0.748027	 0.000015
O	 0.734750	 -0.121407	 1.101169
C	 -2.501422	 0.088592	 -0.000052
H	 -1.188777	 -1.400384	 -0.865133
H	 -1.188857	 -1.400312	 0.865225
H	 -2.548170	 0.725504	 -0.873205
H	 -3.371613	 -0.556398	 -0.000040
H	 -2.548215	 0.725571	 0.873047
C	 1.947327	 0.592731	 1.232726
H	 2.626719	 0.341135	 0.431875
H	 2.365095	 0.297991	 2.181632
H	 1.766009	 1.657248	 1.219654

	symmetry c1
}
set optking {
	frozen_dihedral = ("
		4 2 3 6
	")
}

ee,wfn = optimize('scf', return_wfn=True)
oeprop( wfn, 'DIPOLE', 'QUADRUPOLE', 'MULLIKEN_CHARGES')
f=open( 'psi4out.xyz', 'w' )
f.write( "14  " )
f.write( str(ee) + "\n" )
f.write( MOL.save_string_xyz() )
f.close()
--------------------------------------------------------------------------

    Molecular point group: c1
  Charge       = 0
  Multiplicity = 1
  Basis Set: CC-PVTZ
  Basis Set:
  @DF-RHF Final Energy:  -305.98528105782458
    Total Energy =                       -305.9852810578246363
    Molecular point group: c1
  Basis Set: CC-PVTZ
  Basis Set:
  Basis Set: CC-PVTZ
  Basis Set:
  @DF-RHF Final Energy:  -305.98532324651541
    Total Energy =                       -305.9853232465154633
  Basis Set: CC-PVTZ
  Basis Set:
  Basis Set: CC-PVTZ
  Basis Set:
  @DF-RHF Final Energy:  -305.98597750228839
    Total Energy =                       -305.9859775022885060
  Basis Set: CC-PVTZ
  Basis Set:
  Basis Set: CC-PVTZ
  Basis Set:
  @DF-RHF Final Energy:  -305.98579822556997
    Total Energy =                       -305.9857982255699653
  Basis Set: CC-PVTZ
  Basis Set:
  Basis Set: CC-PVTZ
  Basis Set:
  @DF-RHF Final Energy:  -305.98599673635073
    Total Energy =                       -305.9859967363508417
  Basis Set: CC-PVTZ
  Basis Set:
  Charge       = 0
  Multiplicity = 1
  Basis Set: CC-PVTZ
  Basis Set:

    Orbital Energies (a.u.)
    -----------------------

    Doubly Occupied:

       1A    -20.599745     2A    -20.532072     3A    -11.364884
       4A    -11.279283     5A    -11.235932     6A    -11.221660
       7A     -1.473612     8A     -1.365571     9A     -1.065919
      10A     -0.980745    11A     -0.881150    12A     -0.774703
      13A     -0.701100    14A     -0.683898    15A     -0.675901
      16A     -0.618761    17A     -0.602697    18A     -0.562345
      19A     -0.540880    20A     -0.520354    21A     -0.511648
      22A     -0.501235    23A     -0.459721    24A     -0.439670

  @DF-RHF Final Energy:  -305.98599767999229

   => Energetics <=

    Nuclear Repulsion Energy =            247.8221943186369458
    One-Electron Energy =                -908.4294172670665830
    Two-Electron Energy =                 354.6212252684371151
    DFT Exchange-Correlation Energy =       0.0000000000000000
    Empirical Dispersion Energy =           0.0000000000000000
    PCM Polarization Energy =               0.0000000000000000
    EFP Energy =                            0.0000000000000000
    Total Energy =                       -305.9859976799924652
    Molecular point group: c1
  Basis Set: CC-PVTZ
  Basis Set:

  -Total Gradient:
     Atom            X                  Y                   Z
    ------   -----------------  -----------------  -----------------
       1        0.000047274943    -0.000007341946     0.000130871822
       2        0.000224208299    -0.000293330472    -0.000439314247
       3        0.000166732974    -0.000240978180     0.000314452161
       4       -0.000187938073     0.000288499988     0.000124156594
       5        0.000005418523    -0.000009231261    -0.000005269377
       6       -0.000210002155     0.000292128130    -0.000157382852
       7       -0.000022297871    -0.000024065585    -0.000000284082
       8       -0.000002828057    -0.000002774777     0.000004586362
       9       -0.000018785052    -0.000002997532     0.000002967153
      10        0.000000855628    -0.000004811760    -0.000005243542
      11       -0.000025960178    -0.000003294520     0.000039477342
      12       -0.000012429189    -0.000011897143    -0.000010614273
      13        0.000035097495     0.000019720373     0.000003612773
      14        0.000000652711     0.000000374686    -0.000002015836

  **** Optimization is complete! (in 6 steps) ****
    Final optimized geometry and variables:
    Molecular point group: c1

    Geometry (in Angstrom), charge = 0, multiplicity = 1:

    O            0.298252336007     0.805967583567    -1.043754166388
    C            0.101454279303    -0.039393166290    -0.237627231162
    C           -1.089770463381    -0.965250700932    -0.258798835904
    O            0.906644874602    -0.265875031242     0.784704269167
    C           -2.403625705125    -0.187211794790    -0.191911136099
    H           -1.040510316751    -1.512939476587    -1.192545526118
    H           -1.014514657357    -1.673281166105     0.553199596334
    H           -2.469558350486     0.521345840300    -1.005770988042
    H           -3.243356438101    -0.867396724912    -0.257749781260
    H           -2.487729561219     0.357924748695     0.741089202385
    C            2.056080909203     0.550283604946     0.895768436726
    H            2.686744846758     0.438903593794     0.026407529136
    H            2.575184152332     0.214538059912     1.778715504564
    H            1.777015054188     1.588332955713     0.998116158129

  Mulliken Charges: (a.u.)
   Center  Symbol    Alpha    Beta     Spin     Total
       1     O     4.20459  4.20459  0.00000 -0.40917
       2     C     2.80361  2.80361  0.00000  0.39278
       3     C     3.08551  3.08551  0.00000 -0.17102
       4     O     4.14426  4.14426  0.00000 -0.28851
       5     C     3.14579  3.14579  0.00000 -0.29158
       6     H     0.44508  0.44508  0.00000  0.10984
       7     H     0.43979  0.43979  0.00000  0.12041
       8     H     0.44191  0.44191  0.00000  0.11619
       9     H     0.44914  0.44914  0.00000  0.10172
      10     H     0.45319  0.45319  0.00000  0.09362
      11     C     3.03385  3.03385  0.00000 -0.06770
      12     H     0.45402  0.45402  0.00000  0.09197
      13     H     0.44529  0.44529  0.00000  0.10943
      14     H     0.45399  0.45399  0.00000  0.09202

   Total alpha = 24.00000, Total beta = 24.00000, Total charge = -0.00000

*** Psi4 exiting successfully. Buy a developer a beer!
