                              Psi4 1.0.54 Driver

  ==> Input File <==

--------------------------------------------------------------------------
set {
	reference rhf
	basis cc-pvtz
}

set_num_threads( 4 )
memory 2 gb

molecule MOL {
0 1

H	 -3.436473	 1.252944	 -1.023892
O	 -3.458596	 0.315260	 -0.960865
C	 -3.176635	 -0.080824	 0.355601
C	 -1.763371	 0.265266	 0.799691
H	 -3.321825	 -1.153438	 0.379502
H	 -3.895468	 0.357385	 1.043382
C	 -1.008483	 -0.904165	 1.424909
H	 -1.207525	 0.646218	 -0.055747
H	 -1.824513	 1.085612	 1.510804
C	 0.418319	 -0.548454	 1.834392
H	 -0.990577	 -1.732812	 0.725669
H	 -1.556926	 -1.253262	 2.296602
C	 1.166617	 -1.721768	 2.464021
H	 0.956344	 -0.190905	 0.961708
H	 0.395811	 0.279928	 2.539469
C	 2.574206	 -1.393432	 2.964758
H	 1.223599	 -2.537033	 1.746425
H	 0.582916	 -2.096418	 3.300412
C	 3.574445	 -1.035259	 1.868228
H	 2.952087	 -2.251414	 3.512343
H	 2.518577	 -0.578270	 3.681582
H	 3.646807	 -1.830271	 1.132840
H	 4.563269	 -0.881603	 2.285193
H	 3.297287	 -0.126994	 1.346842

	symmetry c1
}
set optking {
	frozen_dihedral = ("
		7 4 3 2
	")
}

ee,wfn = optimize('scf', return_wfn=True)
oeprop( wfn, 'DIPOLE', 'QUADRUPOLE', 'MULLIKEN_CHARGES')
f=open( 'psi4out.xyz', 'w' )
f.write( "24  " )
f.write( str(ee) + "\n" )
f.write( MOL.save_string_xyz() )
f.close()
--------------------------------------------------------------------------

    Molecular point group: c1
  Charge       = 0
  Multiplicity = 1
  Basis Set: CC-PVTZ
  Basis Set:
  @DF-RHF Final Energy:  -349.37464947126512
    Total Energy =                       -349.3746494712655704
    Molecular point group: c1
  Basis Set: CC-PVTZ
  Basis Set:
  Basis Set: CC-PVTZ
  Basis Set:
  @DF-RHF Final Energy:  -349.37515913305583
    Total Energy =                       -349.3751591330555470
  Basis Set: CC-PVTZ
  Basis Set:
  Basis Set: CC-PVTZ
  Basis Set:
  @DF-RHF Final Energy:  -349.37521491836992
    Total Energy =                       -349.3752149183696929
  Basis Set: CC-PVTZ
  Basis Set:
  Basis Set: CC-PVTZ
  Basis Set:
  @DF-RHF Final Energy:  -349.37521789817890
    Total Energy =                       -349.3752178981789029
  Basis Set: CC-PVTZ
  Basis Set:
  Charge       = 0
  Multiplicity = 1
  Basis Set: CC-PVTZ
  Basis Set:

    Orbital Energies (a.u.)
    -----------------------

    Doubly Occupied:

       1A    -20.545107     2A    -11.264681     3A    -11.215049
       4A    -11.213432     5A    -11.213002     6A    -11.212104
       7A    -11.211385     8A    -11.206060     9A     -1.362444
      10A     -1.092030    11A     -1.050171    12A     -0.985519
      13A     -0.914528    14A     -0.851687    15A     -0.805336
      16A     -0.778331    17A     -0.691801    18A     -0.647278
      19A     -0.626509    20A     -0.615025    21A     -0.599351
      22A     -0.587668    23A     -0.565307    24A     -0.532686
      25A     -0.520270    26A     -0.518405    27A     -0.488752
      28A     -0.479529    29A     -0.465045    30A     -0.463612
      31A     -0.460024    32A     -0.453698    33A     -0.419652

  @DF-RHF Final Energy:  -349.37521856289015

   => Energetics <=

    Nuclear Repulsion Energy =            380.7230578176173594
    One-Electron Energy =               -1228.0855785953756367
    Two-Electron Energy =                 497.9873022148684640
    DFT Exchange-Correlation Energy =       0.0000000000000000
    Empirical Dispersion Energy =           0.0000000000000000
    PCM Polarization Energy =               0.0000000000000000
    EFP Energy =                            0.0000000000000000
    Total Energy =                       -349.3752185628898133
    Molecular point group: c1
  Basis Set: CC-PVTZ
  Basis Set:

  -Total Gradient:
     Atom            X                  Y                   Z
    ------   -----------------  -----------------  -----------------
       1        0.000004169589    -0.000017239992     0.000028015091
       2        0.000716316634    -0.002162181023    -0.000696215888
       3       -0.000677237991     0.002726948358     0.000268914642
       4       -0.000765292549     0.000073261993     0.002445894567
       5        0.000017828458     0.000028946104    -0.000015963354
       6       -0.000004873674     0.000015170237    -0.000038614907
       7        0.000728560941    -0.000662897444    -0.001985625340
       8        0.000013430390     0.000002603677     0.000008562211
       9       -0.000053065701    -0.000032239321    -0.000029145684
      10        0.000005883385     0.000002811073     0.000010582067
      11       -0.000015288939     0.000018921986    -0.000000009259
      12        0.000002816162     0.000002601540    -0.000011380208
      13        0.000013463104     0.000007015860    -0.000005695093
      14       -0.000019161607    -0.000015262575     0.000008285977
      15        0.000013637556     0.000009602269    -0.000000476027
      16       -0.000006032035     0.000015021003     0.000007758715
      17        0.000002194158     0.000011511992    -0.000002970017
      18        0.000005285827    -0.000010375291    -0.000002067664
      19        0.000005165247    -0.000007728516     0.000000597923
      20        0.000002490403     0.000004568302     0.000006085343
      21       -0.000001479446     0.000003230232    -0.000006488390
      22       -0.000001258923     0.000002294229    -0.000004282851
      23       -0.000000622992    -0.000007139763     0.000000678188
      24        0.000013072000    -0.000009444932     0.000013559953

  **** Optimization is complete! (in 5 steps) ****
    Final optimized geometry and variables:
    Molecular point group: c1

    Geometry (in Angstrom), charge = 0, multiplicity = 1:

    H           -3.202522614064     1.829603667149    -2.375739288488
    O           -3.220152471666     0.894731878604    -2.279908998167
    C           -2.919285391709     0.540567885084    -0.955353034039
    C           -1.480712359162     0.884352059413    -0.541621087629
    H           -3.068819267198    -0.529666325382    -0.910046112497
    H           -3.634055671194     0.989982678904    -0.271697047039
    C           -0.740986965587    -0.281547983273     0.110445783631
    H           -0.943179463472     1.180547880457    -1.436438239530
    H           -1.473548715836     1.741637716929     0.125314657692
    C            0.680045787000     0.069309891693     0.541763139829
    H           -0.712442125537    -1.112563881872    -0.589178189982
    H           -1.301883352192    -0.630467238943     0.974902779874
    C            1.419310483947    -1.107866181086     1.175038346410
    H            1.228747688827     0.432256230030    -0.321661416067
    H            0.646628681134     0.893297005241     1.251167099374
    C            2.818513206804    -0.781301435169     1.700017387349
    H            1.489159490839    -1.918161698757     0.452908772319
    H            0.823061918666    -1.488830775945     1.999756418468
    C            3.835531671005    -0.415413700243     0.621635803610
    H            3.188428824648    -1.642369313412     2.248151517747
    H            2.750547412517     0.029198434653     2.421023020035
    H            3.918825958699    -1.204747797426    -0.118634307042
    H            4.817834420086    -0.265608708470     1.054985381001
    H            3.566949752943     0.496907775166     0.102962642083

  Mulliken Charges: (a.u.)
   Center  Symbol    Alpha    Beta     Spin     Total
       1     H     0.39477  0.39477  0.00000  0.21045
       2     O     4.20133  4.20133  0.00000 -0.40266
       3     C     2.96859  2.96859  0.00000  0.06282
       4     C     3.10046  3.10046  0.00000 -0.20093
       5     H     0.45887  0.45887  0.00000  0.08225
       6     H     0.46749  0.46749  0.00000  0.06503
       7     C     3.09702  3.09702  0.00000 -0.19404
       8     H     0.45237  0.45237  0.00000  0.09525
       9     H     0.45518  0.45518  0.00000  0.08965
      10     C     3.09334  3.09334  0.00000 -0.18668
      11     H     0.45035  0.45035  0.00000  0.09931
      12     H     0.45347  0.45347  0.00000  0.09306
      13     C     3.09488  3.09488  0.00000 -0.18977
      14     H     0.45169  0.45169  0.00000  0.09662
      15     H     0.45509  0.45509  0.00000  0.08982
      16     C     3.09047  3.09047  0.00000 -0.18094
      17     H     0.45356  0.45356  0.00000  0.09288
      18     H     0.45003  0.45003  0.00000  0.09994
      19     C     3.15234  3.15234  0.00000 -0.30467
      20     H     0.44847  0.44847  0.00000  0.10305
      21     H     0.45512  0.45512  0.00000  0.08976
      22     H     0.45464  0.45464  0.00000  0.09073
      23     H     0.44656  0.44656  0.00000  0.10687
      24     H     0.45389  0.45389  0.00000  0.09222

   Total alpha = 33.00000, Total beta = 33.00000, Total charge = -0.00000

*** Psi4 exiting successfully. Buy a developer a beer!
