  ==> Input File <==

--------------------------------------------------------------------------
set {
	reference rhf
	basis cc-pvtz
}

set_num_threads( 4 )
memory 2 gb

molecule MOL {
0 1

O	 -2.374409	 1.338660	 -0.336961
C	 -2.104891	 0.204655	 -0.107126
C	 -0.881910	 -0.448129	 -0.720509
C	 -2.949910	 -0.638219	 0.818225
C	 -0.409639	 0.322587	 -1.959783
H	 -1.155667	 -1.456889	 -1.002594
H	 -0.079617	 -0.503079	 0.007620
C	 0.813831	 -0.319502	 -2.610435
H	 -1.231506	 0.371437	 -2.662901
H	 -0.170950	 1.347257	 -1.685233
C	 1.364121	 0.440506	 -3.818523
H	 0.567445	 -1.335784	 -2.907829
H	 1.601393	 -0.402825	 -1.866521
C	 0.433832	 0.473422	 -5.028629
H	 2.301861	 -0.020456	 -4.112570
H	 1.607560	 1.457446	 -3.522037
H	 0.169170	 -0.530820	 -5.343339
H	 0.913066	 0.965819	 -5.866871
H	 -0.485434	 1.007278	 -4.820715
H	 -3.440322	 -1.417144	 0.243099
H	 -3.694377	 -0.025850	 1.303346
H	 -2.331085	 -1.129829	 1.560495

	symmetry c1
}
set optking {
	frozen_dihedral = ("
		6 3 2 1
	")
}

ee = optimize('scf')
oeprop('DIPOLE', 'QUADRUPOLE', 'MULLIKEN_CHARGES')
f=open( 'psi4out.xyz', 'w' )
f.write( "22  " )
f.write( str(ee) + "\n" )
f.write( MOL.save_string_xyz() )
f.close()
--------------------------------------------------------------------------

    Molecular point group: c1
  Charge       = 0
  Multiplicity = 1
  Basis Set: CC-PVTZ
  Basis Set:
  @DF-RHF Final Energy:  -348.22370083797637
    Total Energy =                       -348.2237008379762528
    Molecular point group: c1
  Basis Set: CC-PVTZ
  Basis Set:
  Basis Set: CC-PVTZ
  Basis Set:
  @DF-RHF Final Energy:  -348.22463685733527
    Total Energy =                       -348.2246368573354403
  Basis Set: CC-PVTZ
  Basis Set:
  Basis Set: CC-PVTZ
  Basis Set:
  @DF-RHF Final Energy:  -348.22371843461940
    Total Energy =                       -348.2237184346195704
  Basis Set: CC-PVTZ
  Basis Set:
  Basis Set: CC-PVTZ
  Basis Set:
  @DF-RHF Final Energy:  -348.22504918738730
    Total Energy =                       -348.2250491873879241
  Basis Set: CC-PVTZ
  Basis Set:
  Basis Set: CC-PVTZ
  Basis Set:
  @DF-RHF Final Energy:  -348.22506129004489
    Total Energy =                       -348.2250612900451756
  Basis Set: CC-PVTZ
  Basis Set:
  Basis Set: CC-PVTZ
  Basis Set:
  @DF-RHF Final Energy:  -348.22505286963468
    Total Energy =                       -348.2250528696346805
  Basis Set: CC-PVTZ
  Basis Set:
  Basis Set: CC-PVTZ
  Basis Set:
  @DF-RHF Final Energy:  -348.22506282532311
    Total Energy =                       -348.2250628253228797
  Basis Set: CC-PVTZ
  Basis Set:
  Charge       = 0
  Multiplicity = 1
  Basis Set: CC-PVTZ
  Basis Set:

    Orbital Energies (a.u.)
    -----------------------

    Doubly Occupied:

       1A    -20.538402     2A    -11.320632     3A    -11.230275
       4A    -11.226840     5A    -11.215937     6A    -11.215116
       7A    -11.214565     8A    -11.206329     9A     -1.398673
      10A     -1.092199    11A     -1.044241    12A     -1.001983
      13A     -0.936002    14A     -0.855342    15A     -0.782205
      16A     -0.732017    17A     -0.655853    18A     -0.653298
      19A     -0.632350    20A     -0.612780    21A     -0.604405
      22A     -0.580597    23A     -0.559889    24A     -0.549033
      25A     -0.523180    26A     -0.515046    27A     -0.499429
      28A     -0.485675    29A     -0.465241    30A     -0.463350
      31A     -0.459100    32A     -0.401302

  @DF-RHF Final Energy:  -348.22506327629958

   => Energetics <=

    Nuclear Repulsion Energy =            372.8991499288636078
    One-Electron Energy =               -1210.9058578121916980
    Two-Electron Energy =                 489.7816446070288521
    DFT Exchange-Correlation Energy =       0.0000000000000000
    Empirical Dispersion Energy =           0.0000000000000000
    PCM Polarization Energy =               0.0000000000000000
    EFP Energy =                            0.0000000000000000
    Total Energy =                       -348.2250632762992382
    Molecular point group: c1
  Basis Set: CC-PVTZ
  Basis Set:

  -Total Gradient:
     Atom            X                  Y                   Z
    ------   -----------------  -----------------  -----------------
       1        0.000473434790     0.000287483452     0.000598380087
       2       -0.000581500728    -0.000433516205    -0.000665310907
       3       -0.000139771850     0.000401413900    -0.000621276833
       4       -0.000066570157    -0.000012199168    -0.000059772130
       5       -0.000008383295    -0.000032493791     0.000021772464
       6        0.000265171548    -0.000235795608     0.000700832705
       7        0.000005112321    -0.000012754900     0.000001200179
       8        0.000010968599     0.000013414107    -0.000009610060
       9        0.000002835888    -0.000000893677     0.000002611342
      10        0.000002205589     0.000017052591    -0.000017748561
      11       -0.000009361427     0.000010218955     0.000008131808
      12       -0.000008963598    -0.000000293551    -0.000000457385
      13        0.000002921877    -0.000005045968     0.000000968528
      14        0.000002324973    -0.000000520110    -0.000004392910
      15       -0.000002951118    -0.000001229170     0.000006771636
      16        0.000000093350     0.000003433843    -0.000001468630
      17       -0.000001574966    -0.000001132542    -0.000000550050
      18        0.000000432093    -0.000001529756    -0.000000970317
      19        0.000006346576    -0.000000402211    -0.000002845868
      20        0.000017916347    -0.000007947533     0.000020516168
      21        0.000010183641    -0.000001978217     0.000009612488
      22        0.000019129543     0.000014715561     0.000013606248

  **** Optimization is complete! (in 8 steps) ****
    Final optimized geometry and variables:
    Molecular point group: c1

    Geometry (in Angstrom), charge = 0, multiplicity = 1:

    O           -1.700836768578     1.150400532824     1.397482977354
    C           -1.362465797765     0.034955803389     1.624317568278
    C           -0.160394883779    -0.598082496624     0.953292349712
    C           -2.103216313602    -0.826871238049     2.620773242986
    C            0.349741773642     0.155119550023    -0.267701789353
    H           -0.402402474225    -1.628643828078     0.708223307945
    H            0.616427207097    -0.659600880781     1.713911520232
    C            1.578557830353    -0.508609571817    -0.886118980579
    H           -0.450318008124     0.223638427468    -0.994976514033
    H            0.585545329547     1.173357594196     0.017704309908
    C            2.180842694922     0.248595269684    -2.070853782028
    H            1.326742215757    -1.519482106747    -1.200201139365
    H            2.343090059024    -0.611882754365    -0.120377762278
    C            1.288011075507     0.311107110621    -3.307703395486
    H            3.117617878802    -0.228776174314    -2.341449492846
    H            2.434285843165     1.257786318748    -1.757947764817
    H            1.010742333784    -0.684813741572    -3.638692903523
    H            1.802661986305     0.798715715986    -4.127631972609
    H            0.375734548839     0.864588335883    -3.122038707245
    H           -2.621113959355    -1.621265389222     2.093401498735
    H           -2.820972081931    -0.230209696604     3.162466470293
    H           -1.412430128324    -1.295971088359     3.312187558026

  Mulliken Charges: (a.u.)
   Center  Symbol    Alpha    Beta     Spin     Total
       1     O     4.17203  4.17203  0.00000 -0.34405
       2     C     2.86112  2.86112  0.00000  0.27776
       3     C     3.11317  3.11317  0.00000 -0.22635
       4     C     3.15211  3.15211  0.00000 -0.30421
       5     C     3.08684  3.08684  0.00000 -0.17367
       6     H     0.44537  0.44537  0.00000  0.10926
       7     H     0.44409  0.44409  0.00000  0.11182
       8     C     3.09594  3.09594  0.00000 -0.19188
       9     H     0.44783  0.44783  0.00000  0.10434
      10     H     0.44222  0.44222  0.00000  0.11556
      11     C     3.09001  3.09001  0.00000 -0.18001
      12     H     0.45539  0.45539  0.00000  0.08922
      13     H     0.45032  0.45032  0.00000  0.09935
      14     C     3.15281  3.15281  0.00000 -0.30562
      15     H     0.44865  0.44865  0.00000  0.10271
      16     H     0.45337  0.45337  0.00000  0.09325
      17     H     0.45589  0.45589  0.00000  0.08821
      18     H     0.44625  0.44625  0.00000  0.10750
      19     H     0.45122  0.45122  0.00000  0.09756
      20     H     0.44882  0.44882  0.00000  0.10236
      21     H     0.43570  0.43570  0.00000  0.12861
      22     H     0.45085  0.45085  0.00000  0.09829

   Total alpha = 32.00000, Total beta = 32.00000, Total charge =  0.00000
