                              Psi4 1.0.54 Driver

  ==> Input File <==

--------------------------------------------------------------------------
set {
	reference rhf
	basis cc-pvtz
}

set_num_threads( 4 )
memory 2 gb

molecule MOL {
0 1

H	 3.880129	 0.353891	 -0.203968
N	 3.091268	 -0.241216	 -0.065538
C	 1.860978	 0.530248	 0.016256
H	 3.250217	 -0.749106	 0.779525
C	 0.644130	 -0.381765	 -0.031064
H	 1.835721	 1.204666	 -0.833114
H	 1.808789	 1.151975	 0.911067
C	 -0.678115	 0.376691	 0.025731
H	 0.693998	 -0.977147	 -0.936845
H	 0.693309	 -1.082142	 0.800523
C	 -1.900706	 -0.535531	 -0.022488
H	 -0.725296	 1.079516	 -0.802982
H	 -0.715474	 0.974884	 0.933278
C	 -3.220513	 0.226854	 0.028039
H	 -1.865036	 -1.134397	 -0.928236
H	 -1.857948	 -1.236381	 0.806820
H	 -3.309098	 0.911849	 -0.808725
H	 -4.066838	 -0.449485	 -0.008086
H	 -3.301685	 0.809374	 0.939860

	symmetry c1
}
set optking {
	frozen_dihedral = ("
		1 2 3 6
	")
}

ee,wfn = optimize('scf', return_wfn=True)
oeprop( wfn, 'DIPOLE', 'QUADRUPOLE', 'MULLIKEN_CHARGES')
f=open( 'psi4out.xyz', 'w' )
f.write( "19  " )
f.write( str(ee) + "\n" )
f.write( MOL.save_string_xyz() )
f.close()
--------------------------------------------------------------------------

    Molecular point group: c1
  Charge       = 0
  Multiplicity = 1
  Basis Set: CC-PVTZ
  Basis Set:
  @DF-RHF Final Energy:  -251.44802876910725
    Total Energy =                       -251.4480287691073954
    Molecular point group: c1
  Basis Set: CC-PVTZ
  Basis Set:
  Basis Set: CC-PVTZ
  Basis Set:
  @DF-RHF Final Energy:  -251.44804278543702
    Total Energy =                       -251.4480427854369964
  Basis Set: CC-PVTZ
  Basis Set:
  Basis Set: CC-PVTZ
  Basis Set:
  @DF-RHF Final Energy:  -251.44804489304067
    Total Energy =                       -251.4480448930405032
  Basis Set: CC-PVTZ
  Basis Set:
  Charge       = 0
  Multiplicity = 1
  Basis Set: CC-PVTZ
  Basis Set:

    Orbital Energies (a.u.)
    -----------------------

    Doubly Occupied:

       1A    -15.526137     2A    -11.238014     3A    -11.211508
       4A    -11.209967     5A    -11.206638     6A    -11.205188
       7A     -1.177752     8A     -1.073883     9A     -0.999333
      10A     -0.900839    11A     -0.812858    12A     -0.788968
      13A     -0.668476    14A     -0.641871    15A     -0.617595
      16A     -0.588286    17A     -0.565813    18A     -0.550673
      19A     -0.528564    20A     -0.499717    21A     -0.479462
      22A     -0.464686    23A     -0.460887    24A     -0.451948
      25A     -0.382657

  @DF-RHF Final Energy:  -251.44804504334371

   => Energetics <=

    Nuclear Repulsion Energy =            245.9929916042983109
    One-Electron Energy =                -826.3786345826169963
    Two-Electron Energy =                 328.9375979349751447
    DFT Exchange-Correlation Energy =       0.0000000000000000
    Empirical Dispersion Energy =           0.0000000000000000
    PCM Polarization Energy =               0.0000000000000000
    EFP Energy =                            0.0000000000000000
    Total Energy =                       -251.4480450433434839
    Molecular point group: c1
  Basis Set: CC-PVTZ
  Basis Set:

  -Total Gradient:
     Atom            X                  Y                   Z
    ------   -----------------  -----------------  -----------------
       1       -0.000120937448    -0.000070917574    -0.000908989596
       2        0.000245945076     0.000190954192     0.001247420480
       3       -0.000545585156    -0.000714316143    -0.000753858435
       4       -0.000012228570     0.000010056599    -0.000018180848
       5        0.000018948669    -0.000000696805    -0.000003202617
       6        0.000391068433     0.000567860216     0.000449003592
       7       -0.000000064683     0.000004087503    -0.000003812871
       8        0.000012050989     0.000006459193    -0.000002864043
       9        0.000003273155     0.000003367439    -0.000002749270
      10        0.000004684226     0.000007926875    -0.000005453506
      11        0.000000122510    -0.000003983495    -0.000000109394
      12        0.000003521428    -0.000003073061    -0.000001771426
      13        0.000001221401     0.000002173764    -0.000003316358
      14       -0.000000987455    -0.000000536480     0.000006898152
      15        0.000000997386     0.000004321545     0.000000838064
      16       -0.000001415569    -0.000003045038    -0.000001096460
      17        0.000001591872    -0.000002248102     0.000000194896
      18       -0.000000783516     0.000000293440     0.000001333952
      19       -0.000001422751     0.000001315931    -0.000000284314

  **** Optimization is complete! (in 4 steps) ****
    Final optimized geometry and variables:
    Molecular point group: c1

    Geometry (in Angstrom), charge = 0, multiplicity = 1:

    H            3.881980272133     0.359889607377    -0.190947006280
    N            3.092827177563    -0.235290067114    -0.058039560847
    C            1.859255383086     0.531723315124     0.012397072800
    H            3.244956774539    -0.753756326967     0.781231680090
    C            0.643751631855    -0.382060895787    -0.033196539022
    H            1.838713873112     1.204521707070    -0.838297506259
    H            1.802628112172     1.159869713907     0.902597173009
    C           -0.679590364265     0.374350272918     0.024159623111
    H            0.694426242793    -0.978523875153    -0.938091540377
    H            0.695813231841    -1.081452456584     0.798848555113
    C           -1.900810777919    -0.539711209475    -0.022922664348
    H           -0.728565492241     1.076998171280    -0.804726473880
    H           -0.717368917144     0.972769569421     0.931579327504
    C           -3.221727748369     0.220379497804     0.032167849526
    H           -1.866311672897    -1.136815362626    -0.929852210610
    H           -1.854915351577    -1.241949493988     0.805022206825
    H           -3.313498153246     0.906569650928    -0.803276075790
    H           -4.067073173834    -0.457297930320    -0.002910407152
    H           -3.301530890597     0.801278262168     0.945154617139

  Mulliken Charges: (a.u.)
   Center  Symbol    Alpha    Beta     Spin     Total
       1     H     0.42912  0.42912  0.00000  0.14175
       2     N     3.69059  3.69059  0.00000 -0.38117
       3     C     3.02944  3.02944  0.00000 -0.05888
       4     H     0.43047  0.43047  0.00000  0.13906
       5     C     3.07879  3.07879  0.00000 -0.15758
       6     H     0.45682  0.45682  0.00000  0.08635
       7     H     0.46798  0.46798  0.00000  0.06403
       8     C     3.09356  3.09356  0.00000 -0.18712
       9     H     0.44955  0.44955  0.00000  0.10091
      10     H     0.46003  0.46003  0.00000  0.07993
      11     C     3.08333  3.08333  0.00000 -0.16665
      12     H     0.45538  0.45538  0.00000  0.08924
      13     H     0.45687  0.45687  0.00000  0.08626
      14     C     3.14979  3.14979  0.00000 -0.29958
      15     H     0.45380  0.45380  0.00000  0.09240
      16     H     0.45494  0.45494  0.00000  0.09013
      17     H     0.45527  0.45527  0.00000  0.08946
      18     H     0.44858  0.44858  0.00000  0.10285
      19     H     0.45569  0.45569  0.00000  0.08862

   Total alpha = 25.00000, Total beta = 25.00000, Total charge = -0.00000

*** Psi4 exiting successfully. Buy a developer a beer!
