  ==> Input File <==

--------------------------------------------------------------------------
set {
	reference rhf
	basis 6-31G*
}

set_num_threads( 1 )
memory 2 gb

molecule MOL {
0 1

O	 -1.316236	 1.512359	 -1.926025
C	 -1.660668	 0.799589	 -1.032852
C	 -0.889235	 -0.467034	 -0.705952
C	 -2.853969	 1.133479	 -0.165716
C	 0.379448	 -0.143569	 0.099626
H	 -0.612455	 -0.934967	 -1.644427
H	 -1.513423	 -1.162600	 -0.152233
C	 1.631333	 -0.777471	 -0.511575
H	 0.482768	 0.934507	 0.149241
H	 0.263088	 -0.495696	 1.123449
C	 2.915987	 -0.544314	 0.291766
H	 1.766672	 -0.399098	 -1.523130
H	 1.471257	 -1.849544	 -0.605828
C	 3.373361	 0.914346	 0.347591
H	 3.708709	 -1.142521	 -0.150311
H	 2.780642	 -0.921148	 1.303579
H	 3.506512	 1.320010	 -0.651625
H	 4.322697	 0.999599	 0.867103
H	 2.660624	 1.545032	 0.868198
H	 -3.637456	 0.396854	 -0.323182
H	 -3.229662	 2.116010	 -0.415262
H	 -2.586908	 1.096691	 0.886486

	symmetry c1
}
set optking {
	frozen_dihedral = ("
		6 3 2 1,
		3 5 8 12,
		12 8 11 15
	")
}

ee = energy('scf')
oeprop('DIPOLE', 'QUADRUPOLE', 'MULLIKEN_CHARGES')
f=open( 'psi4out.xyz', 'w' )
f.write( "22  " )
f.write( str(ee) + "\n" )
f.write( MOL.save_string_xyz() )
f.close()
--------------------------------------------------------------------------

    Molecular point group: c1

    Geometry (in Angstrom), charge = 0, multiplicity = 1:

       Center              X                  Y                   Z               Mass
    ------------   -----------------  -----------------  -----------------  -----------------
           O         -1.519194660132     1.190853122998    -1.477295951105    15.994914619560
           C         -1.863626660132     0.478083122998    -0.584122951105    12.000000000000
           C         -1.092193660132    -0.788539877002    -0.257222951105    12.000000000000
           C         -3.056927660132     0.811973122998     0.283013048895    12.000000000000
           C          0.176489339868    -0.465074877002     0.548355048895    12.000000000000
           H         -0.815413660132    -1.256472877002    -1.195697951105     1.007825032070
           H         -1.716381660132    -1.484105877002     0.296496048895     1.007825032070
           C          1.428374339868    -1.098976877002    -0.062845951105    12.000000000000
           H          0.279809339868     0.613001122998     0.597970048895     1.007825032070
           H          0.060129339868    -0.817201877002     1.572178048895     1.007825032070
           C          2.713028339868    -0.865819877002     0.740495048895    12.000000000000
           H          1.563713339868    -0.720603877002    -1.074400951105     1.007825032070
           H          1.268298339868    -2.171049877002    -0.157098951105     1.007825032070
           C          3.170402339868     0.592840122998     0.796320048895    12.000000000000
           H          3.505750339868    -1.464026877002     0.298418048895     1.007825032070
           H          2.577683339868    -1.242653877002     1.752308048895     1.007825032070
           H          3.303553339868     0.998504122998    -0.202895951105     1.007825032070
           H          4.119738339868     0.678093122998     1.315832048895     1.007825032070
           H          2.457665339868     1.223526122998     1.316927048895     1.007825032070
           H         -3.840414660132     0.075348122998     0.125547048895     1.007825032070
           H         -3.432620660132     1.794504122998     0.033467048895     1.007825032070
           H         -2.789866660132     0.775185122998     1.335215048895     1.007825032070

  Charge       = 0
  Multiplicity = 1
  Basis Set: 6-31G*
  Basis Set:

    Orbital Energies (a.u.)
    -----------------------

    Doubly Occupied:

       1A    -20.546599     2A    -11.324482     3A    -11.228311
       4A    -11.228260     5A    -11.227410     6A    -11.219911
       7A    -11.218154     8A    -11.209198     9A     -1.392825
      10A     -1.094373    11A     -1.043117    12A     -0.999135
      13A     -0.935666    14A     -0.856813    15A     -0.785561
      16A     -0.734505    17A     -0.661827    18A     -0.638825
      19A     -0.627339    20A     -0.612923    21A     -0.599203
      22A     -0.588100    23A     -0.555093    24A     -0.546698
      25A     -0.530829    26A     -0.520458    27A     -0.501444
      28A     -0.481447    29A     -0.465168    30A     -0.463234
      31A     -0.457392    32A     -0.396048

  @DF-RHF Final Energy:  -348.09270058255504

   => Energetics <=

    Nuclear Repulsion Energy =            375.7112113239398923
    One-Electron Energy =               -1216.2267487502060703
    Two-Electron Energy =                 492.4228368437112522
    DFT Exchange-Correlation Energy =       0.0000000000000000
    Empirical Dispersion Energy =           0.0000000000000000
    PCM Polarization Energy =               0.0000000000000000
    EFP Energy =                            0.0000000000000000
    Total Energy =                       -348.0927005825549259

  Mulliken Charges: (a.u.)
   Center  Symbol    Alpha    Beta     Spin     Total
       1     O     4.26278  4.26278  0.00000 -0.52557
       2     C     2.74195  2.74195  0.00000  0.51610
       3     C     3.20077  3.20077  0.00000 -0.40154
       4     C     3.28954  3.28954  0.00000 -0.57908
       5     C     3.16140  3.16140  0.00000 -0.32280
       6     H     0.39905  0.39905  0.00000  0.20189
       7     H     0.41470  0.41470  0.00000  0.17061
       8     C     3.15589  3.15589  0.00000 -0.31179
       9     H     0.40747  0.40747  0.00000  0.18507
      10     H     0.41928  0.41928  0.00000  0.16144
      11     C     3.15452  3.15452  0.00000 -0.30903
      12     H     0.41500  0.41500  0.00000  0.17000
      13     H     0.42114  0.42114  0.00000  0.15771
      14     C     3.24140  3.24140  0.00000 -0.48280
      15     H     0.41954  0.41954  0.00000  0.16092
      16     H     0.42389  0.42389  0.00000  0.15222
      17     H     0.41883  0.41883  0.00000  0.16234
      18     H     0.41889  0.41889  0.00000  0.16223
      19     H     0.42029  0.42029  0.00000  0.15943
      20     H     0.40675  0.40675  0.00000  0.18650
      21     H     0.39722  0.39722  0.00000  0.20556
      22     H     0.40971  0.40971  0.00000  0.18059

   Total alpha = 32.00000, Total beta = 32.00000, Total charge = -0.00000
