  ==> Input File <==

--------------------------------------------------------------------------
set {
	reference rhf
	basis cc-pvtz
}

set_num_threads( 4 )
memory 2 gb

molecule MOL {
0 1

H	 -1.770843	 0.880546	 2.501007
O	 -1.386092	 1.670581	 2.168273
C	 -0.727207	 1.416297	 0.959410
C	 0.570154	 0.664296	 1.181095
H	 -1.356458	 0.860953	 0.271104
H	 -0.514758	 2.374928	 0.508216
O	 1.172093	 0.457955	 -0.054438
H	 0.368447	 -0.289061	 1.672338
H	 1.216273	 1.240519	 1.839936
C	 2.395478	 -0.199028	 -0.000366
H	 2.505946	 -0.901710	 -0.823354
H	 3.174616	 0.545641	 -0.071768
H	 2.513730	 -0.742241	 0.934223

	symmetry c1
}
set optking {
	frozen_dihedral = ("
		4 7 10 13
	")
}

ee = optimize('scf')
oeprop('DIPOLE', 'QUADRUPOLE', 'MULLIKEN_CHARGES')
f=open( 'psi4out.xyz', 'w' )
f.write( "13  " )
f.write( str(ee) + "\n" )
f.write( MOL.save_string_xyz() )
f.close()
--------------------------------------------------------------------------

    Molecular point group: c1
  Charge       = 0
  Multiplicity = 1
  Basis Set: CC-PVTZ
  Basis Set:
  @DF-RHF Final Energy:  -268.05891950807472
    Total Energy =                       -268.0589195080745526
    Molecular point group: c1
  Basis Set: CC-PVTZ
  Basis Set:
  Basis Set: CC-PVTZ
  Basis Set:
  @DF-RHF Final Energy:  -268.05946449932731
    Total Energy =                       -268.0594644993274187
  Basis Set: CC-PVTZ
  Basis Set:
  Basis Set: CC-PVTZ
  Basis Set:
  @DF-RHF Final Energy:  -268.05957897730758
    Total Energy =                       -268.0595789773076376
  Basis Set: CC-PVTZ
  Basis Set:
  Charge       = 0
  Multiplicity = 1
  Basis Set: CC-PVTZ
  Basis Set:

    Orbital Energies (a.u.)
    -----------------------

    Doubly Occupied:

       1A    -20.553316     2A    -20.552610     3A    -11.269648
       4A    -11.267469     5A    -11.267045     6A     -1.388667
       7A     -1.368601     8A     -1.019459     9A     -0.914183
      10A     -0.842646    11A     -0.711156    12A     -0.674331
      13A     -0.661735    14A     -0.637930    15A     -0.598545
      16A     -0.568936    17A     -0.550901    18A     -0.490650
      19A     -0.483926    20A     -0.441302    21A     -0.420169

  @DF-RHF Final Energy:  -268.05957994546782

   => Energetics <=

    Nuclear Repulsion Energy =            190.2570832947043300
    One-Electron Energy =                -743.2668767901875526
    Two-Electron Energy =                 284.9502135500154054
    DFT Exchange-Correlation Energy =       0.0000000000000000
    Empirical Dispersion Energy =           0.0000000000000000
    PCM Polarization Energy =               0.0000000000000000
    EFP Energy =                            0.0000000000000000
    Total Energy =                       -268.0595799454678172
    Molecular point group: c1
  Basis Set: CC-PVTZ
  Basis Set:

  -Total Gradient:
     Atom            X                  Y                   Z
    ------   -----------------  -----------------  -----------------
       1        0.000006422698     0.000000716883    -0.000008790257
       2        0.000008598979     0.000025001976     0.000019497897
       3       -0.000004848455    -0.000015636757    -0.000021579515
       4       -0.000938737883    -0.001813710785    -0.000093317519
       5        0.000021748844     0.000003434213    -0.000007396186
       6       -0.000020652795     0.000013751113     0.000002976078
       7        0.001688809309     0.003000365667     0.000477173721
       8       -0.000000759306     0.000008149229     0.000019820140
       9        0.000011519491    -0.000011744498    -0.000053895094
      10       -0.001671106146    -0.003183388120    -0.001349752073
      11       -0.000059820456     0.000006886881     0.000003660911
      12        0.000005606170     0.000003240965    -0.000005537438
      13        0.000953219549     0.001962933233     0.001017139334

  **** Optimization is complete! (in 4 steps) ****
    Final optimized geometry and variables:
    Molecular point group: c1

    Geometry (in Angstrom), charge = 0, multiplicity = 1:

    H           -2.175071775766     0.082403490359     1.615643780902
    O           -1.789465320061     0.872825697126     1.284842749772
    C           -1.118254856949     0.617338300352     0.082857867439
    C            0.179278061750    -0.129623915855     0.319257111144
    H           -1.738604731607     0.057401483501    -0.609813498426
    H           -0.905249781739     1.575349726912    -0.369362748507
    O            0.787722696272    -0.340862690241    -0.913096809449
    H           -0.024212062940    -1.080444278544     0.813068476174
    H            0.815803722727     0.453732340531     0.980975739020
    C            2.019207581338    -0.993827681317    -0.880514753260
    H            2.071701243131    -1.684006750874    -1.711506539076
    H            2.832169131864    -0.279121536185    -0.968567121513
    H            2.159723731148    -1.541749111230     0.045908228515

  Mulliken Charges: (a.u.)
   Center  Symbol    Alpha    Beta     Spin     Total
       1     H     0.39414  0.39414  0.00000  0.21172
       2     O     4.20212  4.20212  0.00000 -0.40424
       3     C     2.97493  2.97493  0.00000  0.05014
       4     C     2.96486  2.96486  0.00000  0.07029
       5     H     0.46718  0.46718  0.00000  0.06563
       6     H     0.45265  0.45265  0.00000  0.09470
       7     O     4.17927  4.17927  0.00000 -0.35853
       8     H     0.48112  0.48112  0.00000  0.03777
       9     H     0.47020  0.47020  0.00000  0.05961
      10     C     3.02820  3.02820  0.00000 -0.05639
      11     H     0.45203  0.45203  0.00000  0.09593
      12     H     0.46109  0.46109  0.00000  0.07781
      13     H     0.47222  0.47222  0.00000  0.05556

   Total alpha = 21.00000, Total beta = 21.00000, Total charge =  0.00000
