  ==> Input File <==

--------------------------------------------------------------------------
set {
	reference rhf
	basis 6-31G*
}

set_num_threads( 4 )
memory 2 gb

molecule MOL {
0 1

H	 3.089270	 -1.380733	 0.000000
O	 2.178328	 -1.639175	 0.000000
C	 1.368216	 -0.558384	 0.000000
C	 0.109153	 -0.572097	 0.586409
C	 1.833362	 0.591862	 -0.613193
H	 -0.250938	 -1.468280	 1.063093
C	 -0.683214	 0.563283	 0.559309
H	 2.805691	 0.603803	 -1.066523
C	 1.033782	 1.724211	 -0.635912
H	 -1.655775	 0.540606	 1.016464
C	 -0.226369	 1.717212	 -0.051325
C	 1.527362	 2.963346	 -1.293021
H	 -0.840169	 2.600253	 -0.073541
O	 2.588124	 3.070420	 -1.820149
H	 0.832587	 3.808171	 -1.264595

	symmetry c1
}
set optking {
	frozen_dihedral = ("
		4 3 2 1
	")
}

ee = optimize('scf')
oeprop('DIPOLE', 'QUADRUPOLE', 'MULLIKEN_CHARGES')
f=open( 'psi4out.xyz', 'w' )
f.write( "15  " )
f.write( str(ee) + "\n" )
f.write( MOL.save_string_xyz() )
f.close()
--------------------------------------------------------------------------

    Molecular point group: c1
  Charge       = 0
  Multiplicity = 1
  Basis Set: 6-31G*
  Basis Set:
  @DF-RHF Final Energy:  -418.28436471971378
    Total Energy =                       -418.2843647197137216
    Molecular point group: c1
  Basis Set: 6-31G*
  Basis Set:
  Basis Set: 6-31G*
  Basis Set:
  @DF-RHF Final Energy:  -418.28617441368510
    Total Energy =                       -418.2861744136849893
  Basis Set: 6-31G*
  Basis Set:
  Basis Set: 6-31G*
  Basis Set:
  @DF-RHF Final Energy:  -418.28572686395688
    Total Energy =                       -418.2857268639577342
  Basis Set: 6-31G*
  Basis Set:
  Basis Set: 6-31G*
  Basis Set:
  @DF-RHF Final Energy:  -418.28629245816029
    Total Energy =                       -418.2862924581603465
  Basis Set: 6-31G*
  Basis Set:
  Basis Set: 6-31G*
  Basis Set:
  @DF-RHF Final Energy:  -418.28635522623819
    Total Energy =                       -418.2863552262377880
  Basis Set: 6-31G*
  Basis Set:
  Basis Set: 6-31G*
  Basis Set:
  @DF-RHF Final Energy:  -418.28635752881274
    Total Energy =                       -418.2863575288128004
  Basis Set: 6-31G*
  Basis Set:
  Charge       = 0
  Multiplicity = 1
  Basis Set: 6-31G*
  Basis Set:

    Orbital Energies (a.u.)
    -----------------------

    Doubly Occupied:

       1A    -20.597581     2A    -20.566768     3A    -11.335170
       4A    -11.310246     5A    -11.253243     6A    -11.251176
       7A    -11.248903     8A    -11.245399     9A    -11.244451
      10A     -1.416406    11A     -1.407304    12A     -1.170023
      13A     -1.049512    14A     -1.026129    15A     -0.900387
      16A     -0.851937    17A     -0.796941    18A     -0.752392
      19A     -0.700201    20A     -0.668195    21A     -0.660871
      22A     -0.628875    23A     -0.615458    24A     -0.606577
      25A     -0.564349    26A     -0.551570    27A     -0.534558
      28A     -0.515579    29A     -0.486115    30A     -0.425994
      31A     -0.353065    32A     -0.330166

  @DF-RHF Final Energy:  -418.28635798969623

   => Energetics <=

    Nuclear Repulsion Energy =            403.1545670221070736
    One-Electron Energy =               -1368.7507682429431952
    Two-Electron Energy =                 547.3098432311392116
    DFT Exchange-Correlation Energy =       0.0000000000000000
    Empirical Dispersion Energy =           0.0000000000000000
    PCM Polarization Energy =               0.0000000000000000
    EFP Energy =                            0.0000000000000000
    Total Energy =                       -418.2863579896968531
    Molecular point group: c1
  Basis Set: 6-31G*
  Basis Set:

  -Total Gradient:
     Atom            X                  Y                   Z
    ------   -----------------  -----------------  -----------------
       1       -0.000052492635     0.000073569041     0.002660963450
       2        0.000432326794     0.000142380395    -0.002540766471
       3       -0.001150975218    -0.000783891538    -0.001744679122
       4        0.000753316858     0.000590215728     0.001638351608
       5        0.000005978714     0.000003326720     0.000010026519
       6        0.000008431829     0.000003848577    -0.000002730429
       7        0.000004866368    -0.000029008324    -0.000018016527
       8        0.000001531433    -0.000000272165    -0.000007862989
       9       -0.000020503180     0.000002464731    -0.000037954047
      10       -0.000000760217    -0.000000302122     0.000005220461
      11        0.000015917610     0.000001356777     0.000024828594
      12       -0.000005127438     0.000014442751     0.000033396122
      13        0.000001312807    -0.000000302193    -0.000000231240
      14        0.000008597597    -0.000005800753    -0.000012708098
      15       -0.000002421325    -0.000012027621    -0.000007837830

  **** Optimization is complete! (in 7 steps) ****
    Final optimized geometry and variables:
    Molecular point group: c1

    Geometry (in Angstrom), charge = 0, multiplicity = 1:

    H            1.906980320541    -2.341024446303     0.424462498213
    O            0.981349527726    -2.542010120306     0.415167528356
    C            0.244171890010    -1.405432504686     0.369719292720
    C           -1.012704183108    -1.430037590208     0.967488999763
    C            0.696782610817    -0.254786395923    -0.241651243992
    H           -1.338916801219    -2.335283079418     1.444755960323
    C           -1.815057793963    -0.307549542545     0.935387098397
    H            1.663024922497    -0.218397990006    -0.711408045513
    C           -0.111893040343     0.878101215503    -0.259182934561
    H           -2.785856986023    -0.335041984827     1.395818143162
    C           -1.367338255503     0.855620496518     0.323149560146
    C            0.375704364705     2.119391561944    -0.912095899082
    H           -1.989926024911     1.732735251291     0.303661273011
    O            1.443000781266     2.234368533292    -1.426253759257
    H           -0.326104646569     2.958242172867    -0.894191679590

  Mulliken Charges: (a.u.)
   Center  Symbol    Alpha    Beta     Spin     Total
       1     H     0.26945  0.26945  0.00000  0.46110
       2     O     4.38044  4.38044  0.00000 -0.76087
       3     C     2.79896  2.79896  0.00000  0.40208
       4     C     3.11153  3.11153  0.00000 -0.22306
       5     C     3.13011  3.13011  0.00000 -0.26022
       6     H     0.38578  0.38578  0.00000  0.22843
       7     C     3.09765  3.09765  0.00000 -0.19531
       8     H     0.37952  0.37952  0.00000  0.24096
       9     C     3.04726  3.04726  0.00000 -0.09453
      10     H     0.39258  0.39258  0.00000  0.21485
      11     C     3.11313  3.11313  0.00000 -0.22627
      12     C     2.83222  2.83222  0.00000  0.33556
      13     H     0.39273  0.39273  0.00000  0.21455
      14     O     4.24798  4.24798  0.00000 -0.49595
      15     H     0.42067  0.42067  0.00000  0.15867

   Total alpha = 32.00000, Total beta = 32.00000, Total charge =  0.00000
