  ==> Input File <==

--------------------------------------------------------------------------
set {
	reference rhf
	basis 6-31G*
}

set_num_threads( 4 )
memory 2 gb

molecule MOL {
0 1

H	 -2.566393	 -0.811513	 1.774526
C	 -2.564112	 -1.327279	 0.816339
O	 -1.320206	 -1.247739	 0.198513
H	 -2.779790	 -2.373844	 0.981650
H	 -3.349082	 -0.900828	 0.193130
C	 -0.906847	 0.051277	 -0.085989
C	 0.494022	 0.017251	 -0.650448
H	 -1.576039	 0.509865	 -0.815080
H	 -0.916850	 0.666045	 0.811766
O	 1.392611	 -0.295398	 0.366430
H	 0.541047	 -0.720480	 -1.448914
H	 0.731715	 0.991856	 -1.078630
C	 2.706965	 -0.449871	 -0.062409
H	 2.756559	 -0.644779	 -1.131878
H	 3.305899	 0.433456	 0.155466
H	 3.125548	 -1.294566	 0.467107

	symmetry c1
}
set optking {
	frozen_dihedral = ("
		7 10 13 14
	")
}

ee = optimize('scf')
oeprop('DIPOLE', 'QUADRUPOLE', 'MULLIKEN_CHARGES')
f=open( 'psi4out.xyz', 'w' )
f.write( "16  " )
f.write( str(ee) + "\n" )
f.write( MOL.save_string_xyz() )
f.close()
--------------------------------------------------------------------------

    Molecular point group: c1
  Charge       = 0
  Multiplicity = 1
  Basis Set: 6-31G*
  Basis Set:
  @DF-RHF Final Energy:  -306.97440462321180
    Total Energy =                       -306.9744046232117398
    Molecular point group: c1
  Basis Set: 6-31G*
  Basis Set:
  Basis Set: 6-31G*
  Basis Set:
  @DF-RHF Final Energy:  -306.97461911944691
    Total Energy =                       -306.9746191194471976
  Basis Set: 6-31G*
  Basis Set:
  Basis Set: 6-31G*
  Basis Set:
  @DF-RHF Final Energy:  -306.97471308101638
    Total Energy =                       -306.9747130810159774
  Basis Set: 6-31G*
  Basis Set:
  Basis Set: 6-31G*
  Basis Set:
  @DF-RHF Final Energy:  -306.97471426724161
    Total Energy =                       -306.9747142672416658
  Basis Set: 6-31G*
  Basis Set:
  Charge       = 0
  Multiplicity = 1
  Basis Set: 6-31G*
  Basis Set:

    Orbital Energies (a.u.)
    -----------------------

    Doubly Occupied:

       1A    -20.553219     2A    -20.550498     3A    -11.269278
       4A    -11.268141     5A    -11.263308     6A    -11.263082
       7A     -1.386345     8A     -1.368093     9A     -1.030584
      10A     -0.936200    11A     -0.891884    12A     -0.823685
      13A     -0.682712    14A     -0.679016    15A     -0.656428
      16A     -0.634641    17A     -0.627691    18A     -0.596930
      19A     -0.553097    20A     -0.536274    21A     -0.508796
      22A     -0.476950    23A     -0.461710    24A     -0.417808
      25A     -0.407528

  @DF-RHF Final Energy:  -306.97471444692980

   => Energetics <=

    Nuclear Repulsion Energy =            258.6277971926769510
    One-Electron Energy =                -931.5172255923502007
    Two-Electron Energy =                 365.9147139527431705
    DFT Exchange-Correlation Energy =       0.0000000000000000
    Empirical Dispersion Energy =           0.0000000000000000
    PCM Polarization Energy =               0.0000000000000000
    EFP Energy =                            0.0000000000000000
    Total Energy =                       -306.9747144469301361
    Molecular point group: c1
  Basis Set: 6-31G*
  Basis Set:

  -Total Gradient:
     Atom            X                  Y                   Z
    ------   -----------------  -----------------  -----------------
       1        0.000000882808     0.000000776225     0.000000094754
       2        0.000000730509     0.000001590499    -0.000004176489
       3        0.000004206602     0.000003227812    -0.000010164804
       4        0.000000225944     0.000000108936     0.000000389511
       5       -0.000000392233     0.000000021704     0.000000861050
       6       -0.000006375247     0.000003729277     0.000012579091
       7       -0.000382255457    -0.002061990842    -0.000328325974
       8       -0.000005070372    -0.000002046406    -0.000002295724
       9        0.000004319450     0.000005938777    -0.000002936147
      10        0.000601846838     0.003694161606     0.000341642912
      11        0.000005878579    -0.000000632608    -0.000004316206
      12       -0.000004730545    -0.000003313628     0.000006378812
      13       -0.000417684675    -0.004220352784     0.000481140192
      14        0.000202682073     0.002572828229    -0.000486140044
      15       -0.000005010420     0.000000701625    -0.000000402850
      16        0.000000746148     0.000005251576    -0.000004328085

  **** Optimization is complete! (in 5 steps) ****
    Final optimized geometry and variables:
    Molecular point group: c1

    Geometry (in Angstrom), charge = 0, multiplicity = 1:

    H           -2.522641139549    -0.272534960404     1.682738361012
    C           -2.525281065831    -0.784578610065     0.722550670723
    O           -1.286320226815    -0.697660024179     0.095859780152
    H           -2.735835452353    -1.832587916589     0.885342154766
    H           -3.316208267400    -0.358581643528     0.106677241124
    C           -0.880358313059     0.604148783701    -0.186780374470
    C            0.517052831082     0.578713325594    -0.760424830787
    H           -1.556026078818     1.062125890834    -0.910364598047
    H           -0.888073809264     1.215868870243     0.712953027192
    O            1.419822862719     0.257876696275     0.250920943661
    H            0.560246960233    -0.153229711537    -1.563254710616
    H            0.744710227111     1.557846330657    -1.183577312625
    C            2.744113367399     0.077901540533    -0.151304129643
    H            2.820278259957    -0.126417938817    -1.215563952096
    H            3.330592110272     0.969750370549     0.056556896565
    H            3.164390886069    -0.752412424877     0.401306559745

  Mulliken Charges: (a.u.)
   Center  Symbol    Alpha    Beta     Spin     Total
       1     H     0.42808  0.42808  0.00000  0.14383
       2     C     3.07943  3.07943  0.00000 -0.15886
       3     O     4.30086  4.30086  0.00000 -0.60173
       4     H     0.41140  0.41140  0.00000  0.17720
       5     H     0.43196  0.43196  0.00000  0.13608
       6     C     2.99356  2.99356  0.00000  0.01288
       7     C     2.99300  2.99300  0.00000  0.01400
       8     H     0.43244  0.43244  0.00000  0.13512
       9     H     0.42275  0.42275  0.00000  0.15451
      10     O     4.30485  4.30485  0.00000 -0.60970
      11     H     0.42204  0.42204  0.00000  0.15591
      12     H     0.43270  0.43270  0.00000  0.13459
      13     C     3.07609  3.07609  0.00000 -0.15219
      14     H     0.43041  0.43041  0.00000  0.13918
      15     H     0.42618  0.42618  0.00000  0.14765
      16     H     0.41423  0.41423  0.00000  0.17153

   Total alpha = 25.00000, Total beta = 25.00000, Total charge = -0.00000
