  ==> Input File <==

--------------------------------------------------------------------------
set {
	reference rhf
	basis 6-31G*
}

set_num_threads( 4 )
memory 2 gb

molecule MOL {
0 1

H	 1.830125	 -0.846418	 -0.905352
O	 1.586534	 -0.678666	 -0.000226
C	 0.489431	 0.077273	 0.000046
C	 -0.764129	 -0.759190	 0.000191
O	 0.537743	 1.263962	 0.000257
C	 -2.038368	 0.075731	 -0.000248
H	 -0.717284	 -1.412404	 -0.866059
H	 -0.717458	 -1.411724	 0.866967
H	 -2.086483	 0.712501	 -0.875098
H	 -2.908485	 -0.571682	 -0.000042
H	 -2.086576	 0.713280	 0.874068

	symmetry c1
}
set optking {
	frozen_dihedral = ("
		1 2 3 5
	")
}

ee = optimize('scf')
oeprop('DIPOLE', 'QUADRUPOLE', 'MULLIKEN_CHARGES')
f=open( 'psi4out.xyz', 'w' )
f.write( "11  " )
f.write( str(ee) + "\n" )
f.write( MOL.save_string_xyz() )
f.close()
--------------------------------------------------------------------------

    Molecular point group: c1
  Charge       = 0
  Multiplicity = 1
  Basis Set: 6-31G*
  Basis Set:
  @DF-RHF Final Energy:  -266.82299000259553
    Total Energy =                       -266.8229900025956454
    Molecular point group: c1
  Basis Set: 6-31G*
  Basis Set:
  Basis Set: 6-31G*
  Basis Set:
  @DF-RHF Final Energy:  -266.82358126744089
    Total Energy =                       -266.8235812674407725
  Basis Set: 6-31G*
  Basis Set:
  Basis Set: 6-31G*
  Basis Set:
  @DF-RHF Final Energy:  -266.82449368726083
    Total Energy =                       -266.8244936872608832
  Basis Set: 6-31G*
  Basis Set:
  Basis Set: 6-31G*
  Basis Set:
  @DF-RHF Final Energy:  -266.82476074528756
    Total Energy =                       -266.8247607452875627
  Basis Set: 6-31G*
  Basis Set:
  Basis Set: 6-31G*
  Basis Set:
  @DF-RHF Final Energy:  -266.82476436688489
    Total Energy =                       -266.8247643668851197
  Basis Set: 6-31G*
  Basis Set:
  Charge       = 0
  Multiplicity = 1
  Basis Set: 6-31G*
  Basis Set:

    Orbital Energies (a.u.)
    -----------------------

    Doubly Occupied:

       1A    -20.594795     2A    -20.563784     3A    -11.382329
       4A    -11.246375     5A    -11.221949     6A     -1.460931
       7A     -1.368287     8A     -1.064272     9A     -0.909911
      10A     -0.806702    11A     -0.711799    12A     -0.674403
      13A     -0.658434    14A     -0.613745    15A     -0.567623
      16A     -0.529141    17A     -0.520868    18A     -0.498128
      19A     -0.493391    20A     -0.446230

  @DF-RHF Final Energy:  -266.82476635449837

   => Energetics <=

    Nuclear Repulsion Energy =            178.9421871994795481
    One-Electron Energy =                -718.8677145054172115
    Two-Electron Energy =                 273.1007609514391561
    DFT Exchange-Correlation Energy =       0.0000000000000000
    Empirical Dispersion Energy =           0.0000000000000000
    PCM Polarization Energy =               0.0000000000000000
    EFP Energy =                            0.0000000000000000
    Total Energy =                       -266.8247663544984789
    Molecular point group: c1
  Basis Set: 6-31G*
  Basis Set:

  -Total Gradient:
     Atom            X                  Y                   Z
    ------   -----------------  -----------------  -----------------
       1       -0.001484022164    -0.002227672759    -0.000075669503
       2        0.001726818721     0.002832926474     0.001164501163
       3       -0.000148528080    -0.000557673315    -0.003437858820
       4        0.000009745943     0.000011695217     0.000027640301
       5       -0.000092390167    -0.000042897428     0.002352926555
       6        0.000000842601     0.000003604499    -0.000012668410
       7       -0.000016134217    -0.000010391164    -0.000008073402
       8        0.000006127058    -0.000004583669    -0.000008047198
       9       -0.000003173258     0.000003057410     0.000003527251
      10       -0.000004827721    -0.000001812140     0.000000804131
      11        0.000005541281    -0.000006253122    -0.000007082069

  **** Optimization is complete! (in 6 steps) ****
    Final optimized geometry and variables:
    Molecular point group: c1

    Geometry (in Angstrom), charge = 0, multiplicity = 1:

    H            1.949474181020    -0.840744679769    -0.865866028589
    O            1.625588854604    -0.670670064721     0.010365895478
    C            0.492227119126     0.085864259336    -0.009788568914
    C           -0.770113690380    -0.740537694149     0.006197992600
    O            0.533052774365     1.264036837287     0.024673648926
    C           -2.044904566977     0.092876422539     0.021585017904
    H           -0.741125650169    -1.402738213089    -0.856121275363
    H           -0.709038269814    -1.391643221058     0.873614055663
    H           -2.107842088398     0.727187221126    -0.854553961589
    H           -2.915685690736    -0.553543432462     0.038379735533
    H           -2.077915470347     0.733541829125     0.894187743833

  Mulliken Charges: (a.u.)
   Center  Symbol    Alpha    Beta     Spin     Total
       1     H     0.26606  0.26606  0.00000  0.46788
       2     O     4.36934  4.36934  0.00000 -0.73868
       3     C     2.63245  2.63245  0.00000  0.73510
       4     C     3.20755  3.20755  0.00000 -0.41510
       5     O     4.24449  4.24449  0.00000 -0.48898
       6     C     3.23967  3.23967  0.00000 -0.47934
       7     H     0.40930  0.40930  0.00000  0.18140
       8     H     0.39612  0.39612  0.00000  0.20777
       9     H     0.41092  0.41092  0.00000  0.17816
      10     H     0.41679  0.41679  0.00000  0.16641
      11     H     0.40732  0.40732  0.00000  0.18537

   Total alpha = 20.00000, Total beta = 20.00000, Total charge = -0.00000
