  ==> Input File <==

--------------------------------------------------------------------------
set {
	reference rhf
	basis 6-31G*
}

set_num_threads( 4 )
memory 2 gb

molecule MOL {
0 1

H	 -0.877068	 -1.263562	 -0.225830
N	 -1.172117	 -0.314371	 -0.100254
C	 -0.024542	 0.565565	 0.069209
H	 -1.690381	 -0.060871	 -0.920143
C	 1.271298	 -0.229563	 -0.014192
H	 -0.049409	 1.297310	 -0.731596
H	 -0.046881	 1.125219	 1.006750
H	 1.332152	 -0.753033	 -0.961461
H	 2.134169	 0.422483	 0.080702
H	 1.326077	 -0.968298	 0.781395

	symmetry c1
}
set optking {
	frozen_dihedral = ("
		1 2 3 6
	")
}

ee = optimize('scf')
oeprop('DIPOLE', 'QUADRUPOLE', 'MULLIKEN_CHARGES')
f=open( 'psi4out.xyz', 'w' )
f.write( "10  " )
f.write( str(ee) + "\n" )
f.write( MOL.save_string_xyz() )
f.close()
--------------------------------------------------------------------------

    Molecular point group: c1
  Charge       = 0
  Multiplicity = 1
  Basis Set: 6-31G*
  Basis Set:
  @DF-RHF Final Energy:  -134.24177215464778
    Total Energy =                       -134.2417721546477765
    Molecular point group: c1
  Basis Set: 6-31G*
  Basis Set:
  Basis Set: 6-31G*
  Basis Set:
  @DF-RHF Final Energy:  -134.24299314512564
    Total Energy =                       -134.2429931451257232
  Basis Set: 6-31G*
  Basis Set:
  Basis Set: 6-31G*
  Basis Set:
  @DF-RHF Final Energy:  -134.24319366381951
    Total Energy =                       -134.2431936638195680
  Basis Set: 6-31G*
  Basis Set:
  Basis Set: 6-31G*
  Basis Set:
  @DF-RHF Final Energy:  -134.24319735159639
    Total Energy =                       -134.2431973515963080
  Basis Set: 6-31G*
  Basis Set:
  Charge       = 0
  Multiplicity = 1
  Basis Set: 6-31G*
  Basis Set:

    Orbital Energies (a.u.)
    -----------------------

    Doubly Occupied:

       1A    -15.529354     2A    -11.242445     3A    -11.213707
       4A     -1.172709     5A     -0.989778     6A     -0.830701
       7A     -0.663022     8A     -0.612789     9A     -0.594101
      10A     -0.531777    11A     -0.506141    12A     -0.490986
      13A     -0.375322

  @DF-RHF Final Energy:  -134.24319813967438

   => Energetics <=

    Nuclear Repulsion Energy =             83.2494551470121280
    One-Electron Energy =                -345.4796425727707856
    Two-Electron Energy =                 127.9869892860841958
    DFT Exchange-Correlation Energy =       0.0000000000000000
    Empirical Dispersion Energy =           0.0000000000000000
    PCM Polarization Energy =               0.0000000000000000
    EFP Energy =                            0.0000000000000000
    Total Energy =                       -134.2431981396744902
    Molecular point group: c1
  Basis Set: 6-31G*
  Basis Set:

  -Total Gradient:
     Atom            X                  Y                   Z
    ------   -----------------  -----------------  -----------------
       1        0.000010639940    -0.000034542996     0.000167743895
       2       -0.000094164346     0.000026406616    -0.000164777834
       3        0.000172130891    -0.000117022635    -0.000096571082
       4        0.000009114575     0.000000940858    -0.000027507125
       5       -0.000040917165     0.000008380682     0.000026983346
       6       -0.000087589382     0.000092051915     0.000082691721
       7        0.000038545392    -0.000013615161     0.000010633673
       8       -0.000019924098     0.000019157882     0.000018464168
       9        0.000017738083     0.000016117143    -0.000000565611
      10       -0.000005573892     0.000002125697    -0.000017095148

  **** Optimization is complete! (in 5 steps) ****
    Final optimized geometry and variables:
    Molecular point group: c1

    Geometry (in Angstrom), charge = 0, multiplicity = 1:

    H           -0.948746933465    -1.254902885121    -0.173482174999
    N           -1.207806057606    -0.297650809917    -0.043339703940
    C           -0.033753918927     0.566349263719     0.075506672462
    H           -1.784439037137    -0.037200995644    -0.816659562460
    C            1.277161164163    -0.211007702876     0.028224558708
    H           -0.034204949073     1.313765568312    -0.713767655838
    H           -0.086925120493     1.111512253507     1.013506993055
    H            1.400199891891    -0.712337667330    -0.927877053798
    H            2.126544469992     0.448670617247     0.175096457880
    H            1.304215045799    -0.964833369473     0.810250024536

  Mulliken Charges: (a.u.)
   Center  Symbol    Alpha    Beta     Spin     Total
       1     H     0.33145  0.33145  0.00000  0.33709
       2     N     3.93031  3.93031  0.00000 -0.86061
       3     C     3.04963  3.04963  0.00000 -0.09925
       4     H     0.33136  0.33136  0.00000  0.33729
       5     C     3.25321  3.25321  0.00000 -0.50642
       6     H     0.42744  0.42744  0.00000  0.14513
       7     H     0.41921  0.41921  0.00000  0.16157
       8     H     0.42248  0.42248  0.00000  0.15504
       9     H     0.41764  0.41764  0.00000  0.16472
      10     H     0.41727  0.41727  0.00000  0.16545

   Total alpha = 13.00000, Total beta = 13.00000, Total charge =  0.00000
