                              Psi4 1.0.54 Driver

  ==> Input File <==

--------------------------------------------------------------------------
set {
	reference rhf
	basis cc-pvtz
}

set_num_threads( 4 )
memory 2 gb

molecule MOL {
0 1

H	 2.709126	 -0.762867	 0.596242
N	 2.326826	 -0.066186	 0.000000
C	 0.934676	 -0.005420	 0.000000
H	 2.777736	 0.808987	 0.133324
C	 0.226436	 -0.001077	 -1.195129
C	 0.226436	 -0.001077	 1.195129
H	 0.759091	 -0.011439	 -2.128123
C	 -1.153391	 0.009141	 -1.189028
H	 0.759091	 -0.011439	 2.128123
C	 -1.153391	 0.009141	 1.189028
H	 -1.680905	 0.012964	 -2.124348
C	 -1.857876	 0.014675	 0.000000
H	 -1.680905	 0.012964	 2.124348
H	 -2.930222	 0.022904	 0.000000

	symmetry c1
}
set optking {
	frozen_dihedral = ("
		1 2 3 5
	")
}

ee,wfn = optimize('scf', return_wfn=True)
oeprop( wfn, 'DIPOLE', 'QUADRUPOLE', 'MULLIKEN_CHARGES')
f=open( 'psi4out.xyz', 'w' )
f.write( "14  " )
f.write( str(ee) + "\n" )
f.write( MOL.save_string_xyz() )
f.close()
--------------------------------------------------------------------------

    Molecular point group: c1
  Charge       = 0
  Multiplicity = 1
  Basis Set: CC-PVTZ
  Basis Set:
  @DF-RHF Final Energy:  -285.82577114262540
    Total Energy =                       -285.8257711426253422
    Molecular point group: c1
  Basis Set: CC-PVTZ
  Basis Set:
  Basis Set: CC-PVTZ
  Basis Set:
  @DF-RHF Final Energy:  -285.82696609503853
    Total Energy =                       -285.8269660950386992
  Basis Set: CC-PVTZ
  Basis Set:
  Basis Set: CC-PVTZ
  Basis Set:
  @DF-RHF Final Energy:  -285.82724505611543
    Total Energy =                       -285.8272450561155438
  Basis Set: CC-PVTZ
  Basis Set:
  Basis Set: CC-PVTZ
  Basis Set:
  @DF-RHF Final Energy:  -285.82730394506001
    Total Energy =                       -285.8273039450597253
  Basis Set: CC-PVTZ
  Basis Set:
  Basis Set: CC-PVTZ
  Basis Set:
  @DF-RHF Final Energy:  -285.82731040643779
    Total Energy =                       -285.8273104064379027
  Basis Set: CC-PVTZ
  Basis Set:
  Charge       = 0
  Multiplicity = 1
  Basis Set: CC-PVTZ
  Basis Set:

    Orbital Energies (a.u.)
    -----------------------

    Doubly Occupied:

       1A    -15.541822     2A    -11.259530     3A    -11.228414
       4A    -11.226835     5A    -11.223931     6A    -11.223741
       7A    -11.219484     8A     -1.209398     9A     -1.131604
      10A     -1.015854    11A     -0.990192    12A     -0.830560
      13A     -0.810866    14A     -0.705930    15A     -0.665511
      16A     -0.648681    17A     -0.630543    18A     -0.594104
      19A     -0.585684    20A     -0.509011    21A     -0.500199
      22A     -0.496431    23A     -0.412048    24A     -0.336260
      25A     -0.328233

  @DF-RHF Final Energy:  -285.82731087930182

   => Energetics <=

    Nuclear Repulsion Energy =            272.9531590433894621
    One-Electron Energy =                -926.9112034484417109
    Two-Electron Energy =                 368.1307335257504292
    DFT Exchange-Correlation Energy =       0.0000000000000000
    Empirical Dispersion Energy =           0.0000000000000000
    PCM Polarization Energy =               0.0000000000000000
    EFP Energy =                            0.0000000000000000
    Total Energy =                       -285.8273108793018764
    Molecular point group: c1
  Basis Set: CC-PVTZ
  Basis Set:

  -Total Gradient:
     Atom            X                  Y                   Z
    ------   -----------------  -----------------  -----------------
       1       -0.000060393499    -0.000855166490    -0.000995935586
       2        0.000068357449     0.000679565887     0.001268971945
       3        0.000012099101     0.001276742884    -0.000267518507
       4       -0.000036895419    -0.000072793629    -0.000014451864
       5       -0.000038884000    -0.001069093534     0.000001018972
       6        0.000031657565     0.000030350909     0.000013201104
       7       -0.000000870943     0.000005179581     0.000000772715
       8        0.000041921484     0.000062704964    -0.000000655468
       9       -0.000004232811    -0.000009008792    -0.000006760663
      10       -0.000001927125    -0.000033212196    -0.000012308842
      11       -0.000002256240    -0.000007718899    -0.000003941430
      12       -0.000010191732    -0.000015685048     0.000014559066
      13       -0.000003657230     0.000009571909     0.000003566799
      14        0.000005273401    -0.000001437546    -0.000000518241

  **** Optimization is complete! (in 6 steps) ****
    Final optimized geometry and variables:
    Molecular point group: c1

    Geometry (in Angstrom), charge = 0, multiplicity = 1:

    H            2.722275860393    -0.758113655729     0.546998509694
    N            2.353874095022    -0.046887028438    -0.046934839408
    C            0.925745530334    -0.011829870868    -0.001239951579
    H            2.754337993144     0.825571391918     0.224970674898
    C            0.224631458137    -0.011616332787    -1.193752801479
    C            0.219882963818     0.001760795006     1.192280349722
    H            0.774675469434    -0.035379723499    -2.113954734559
    C           -1.157993113841     0.016143050482    -1.195488931079
    H            0.756094796920    -0.001650440296     2.123295083337
    C           -1.161531134373     0.019674863170     1.191741009994
    H           -1.688383919177     0.018885913218    -2.128785252496
    C           -1.855958971452     0.030175856789    -0.003556951149
    H           -1.694289057878     0.028233074220     2.123702217966
    H           -2.928949442446     0.046346163200    -0.004823416244

  Mulliken Charges: (a.u.)
   Center  Symbol    Alpha    Beta     Spin     Total
       1     H     0.42157  0.42157  0.00000  0.15686
       2     N     3.70287  3.70287  0.00000 -0.40573
       3     C     2.90594  2.90594  0.00000  0.18811
       4     H     0.42241  0.42241  0.00000  0.15519
       5     C     3.09592  3.09592  0.00000 -0.19184
       6     C     3.11376  3.11376  0.00000 -0.22753
       7     H     0.41706  0.41706  0.00000  0.16587
       8     C     3.06630  3.06630  0.00000 -0.13261
       9     H     0.42604  0.42604  0.00000  0.14793
      10     C     3.07319  3.07319  0.00000 -0.14638
      11     H     0.42310  0.42310  0.00000  0.15379
      12     C     3.08455  3.08455  0.00000 -0.16909
      13     H     0.42360  0.42360  0.00000  0.15280
      14     H     0.42368  0.42368  0.00000  0.15263

   Total alpha = 25.00000, Total beta = 25.00000, Total charge =  0.00000

*** Psi4 exiting successfully. Buy a developer a beer!
