  ==> Input File <==

--------------------------------------------------------------------------
set {
	reference rhf
	basis 6-31G*
}

set_num_threads( 1 )
memory 2 gb

molecule MOL {
0 1

H	 3.276176	 0.174363	 -0.109463
N	 2.434251	 -0.367735	 -0.081097
C	 1.267428	 0.496480	 0.024474
H	 2.501951	 -0.965776	 0.720575
C	 -0.016086	 -0.325158	 -0.029487
H	 1.288818	 1.183521	 -0.816092
H	 1.267576	 1.109062	 0.929528
C	 -1.282277	 0.529072	 0.046735
H	 -0.012495	 -0.908639	 -0.945788
H	 -0.015903	 -1.041248	 0.791956
C	 -2.494184	 -0.248786	 0.558516
H	 -1.504606	 0.932566	 -0.939039
H	 -1.105293	 1.385613	 0.694014
H	 -2.718949	 -1.092414	 -0.087621
H	 -3.377373	 0.381106	 0.600161
H	 -2.317171	 -0.636932	 1.557630

	symmetry c1
}
set optking {
	frozen_dihedral = ("
		6 3 5 9,
		1 2 3 6
	")
}

ee = energy('scf')
oeprop('DIPOLE', 'QUADRUPOLE', 'MULLIKEN_CHARGES')
f=open( 'psi4out.xyz', 'w' )
f.write( "16  " )
f.write( str(ee) + "\n" )
f.write( MOL.save_string_xyz() )
f.close()
--------------------------------------------------------------------------

    Molecular point group: c1

    Geometry (in Angstrom), charge = 0, multiplicity = 1:

       Center              X                  Y                   Z               Mass
    ------------   -----------------  -----------------  -----------------  -----------------
           H          3.261850519524     0.163483462248    -0.225511106609     1.007825032070
           N          2.419925519524    -0.378614537752    -0.197145106609    14.003074004780
           C          1.253102519524     0.485600462248    -0.091574106609    12.000000000000
           H          2.487625519524    -0.976655537752     0.604526893391     1.007825032070
           C         -0.030411480476    -0.336037537752    -0.145535106609    12.000000000000
           H          1.274492519524     1.172641462248    -0.932140106609     1.007825032070
           H          1.253250519524     1.098182462248     0.813479893391     1.007825032070
           C         -1.296602480476     0.518192462248    -0.069313106609    12.000000000000
           H         -0.026820480476    -0.919518537752    -1.061836106609     1.007825032070
           H         -0.030228480476    -1.052127537752     0.675907893391     1.007825032070
           C         -2.508509480476    -0.259665537752     0.442467893391    12.000000000000
           H         -1.518931480476     0.921686462248    -1.055087106609     1.007825032070
           H         -1.119618480476     1.374733462248     0.577965893391     1.007825032070
           H         -2.733274480476    -1.103293537752    -0.203669106609     1.007825032070
           H         -3.391698480476     0.370226462248     0.484112893391     1.007825032070
           H         -2.331496480476    -0.647811537752     1.441581893391     1.007825032070

  Charge       = 0
  Multiplicity = 1
  Basis Set: 6-31G*
  Basis Set:

    Orbital Energies (a.u.)
    -----------------------

    Doubly Occupied:

       1A    -15.532551     2A    -11.240100     3A    -11.214535
       4A    -11.209119     5A    -11.208235     6A     -1.176718
       7A     -1.059586     8A     -0.958529     9A     -0.844114
      10A     -0.792017    11A     -0.663732    12A     -0.638427
      13A     -0.599550    14A     -0.582873    15A     -0.563313
      16A     -0.521101    17A     -0.506274    18A     -0.469374
      19A     -0.463349    20A     -0.459756    21A     -0.381436

  @DF-RHF Final Energy:  -212.31520823638516

   => Energetics <=

    Nuclear Repulsion Energy =            186.4178187889056062
    One-Electron Energy =                -655.2967018009064759
    Two-Electron Energy =                 256.5636747756154818
    DFT Exchange-Correlation Energy =       0.0000000000000000
    Empirical Dispersion Energy =           0.0000000000000000
    PCM Polarization Energy =               0.0000000000000000
    EFP Energy =                            0.0000000000000000
    Total Energy =                       -212.3152082363853879

  Mulliken Charges: (a.u.)
   Center  Symbol    Alpha    Beta     Spin     Total
       1     H     0.33251  0.33251  0.00000  0.33498
       2     N     3.92187  3.92187  0.00000 -0.84373
       3     C     3.06145  3.06145  0.00000 -0.12289
       4     H     0.33529  0.33529  0.00000  0.32943
       5     C     3.15129  3.15129  0.00000 -0.30259
       6     H     0.42079  0.42079  0.00000  0.15842
       7     H     0.43449  0.43449  0.00000  0.13102
       8     C     3.15632  3.15632  0.00000 -0.31263
       9     H     0.41207  0.41207  0.00000  0.17587
      10     H     0.42763  0.42763  0.00000  0.14475
      11     C     3.23925  3.23925  0.00000 -0.47849
      12     H     0.42054  0.42054  0.00000  0.15893
      13     H     0.42372  0.42372  0.00000  0.15256
      14     H     0.42063  0.42063  0.00000  0.15875
      15     H     0.41999  0.41999  0.00000  0.16002
      16     H     0.42219  0.42219  0.00000  0.15563

   Total alpha = 21.00000, Total beta = 21.00000, Total charge =  0.00000
