  ==> Input File <==

--------------------------------------------------------------------------
set {
	reference rhf
	basis cc-pvtz
}

set_num_threads( 4 )
memory 2 gb

molecule MOL {
0 1

H	 -1.658091	 0.318734	 -2.263721
C	 -1.216927	 0.154703	 -1.303303
C	 -1.931909	 0.415243	 -0.090838
C	 0.032391	 -0.304738	 -1.197700
H	 -2.938654	 0.785466	 -0.141391
C	 -1.356834	 0.201555	 1.096682
H	 0.631025	 -0.523125	 -2.059723
N	 0.640204	 -0.530428	 -0.000115
H	 -1.860941	 0.385107	 2.023043
C	 0.005413	 -0.299565	 1.208012
C	 2.006991	 -1.033007	 -0.000020
O	 0.556002	 -0.504065	 2.255521
H	 2.182444	 -1.636914	 -0.880881
H	 2.678769	 -0.195442	 -0.002236
H	 2.183828	 -1.633244	 0.883082

	symmetry c1
}
set optking {
	frozen_dihedral = ("
		10 8 11 13
	")
}

ee = optimize('scf')
oeprop('DIPOLE', 'QUADRUPOLE', 'MULLIKEN_CHARGES')
f=open( 'psi4out.xyz', 'w' )
f.write( "15  " )
f.write( str(ee) + "\n" )
f.write( MOL.save_string_xyz() )
f.close()
--------------------------------------------------------------------------

    Molecular point group: c1
  Charge       = 0
  Multiplicity = 1
  Basis Set: CC-PVTZ
  Basis Set:
  @DF-RHF Final Energy:  -360.72243531814775
    Total Energy =                       -360.7224353181476886
    Molecular point group: c1
  Basis Set: CC-PVTZ
  Basis Set:
  Basis Set: CC-PVTZ
  Basis Set:
  @DF-RHF Final Energy:  -360.72292279921714
    Total Energy =                       -360.7229227992175993
  Basis Set: CC-PVTZ
  Basis Set:
  Basis Set: CC-PVTZ
  Basis Set:
  @DF-RHF Final Energy:  -360.72295505570838
    Total Energy =                       -360.7229550557083257
  Basis Set: CC-PVTZ
  Basis Set:
  Basis Set: CC-PVTZ
  Basis Set:
  @DF-RHF Final Energy:  -360.72299305609209
    Total Energy =                       -360.7229930560916387
  Basis Set: CC-PVTZ
  Basis Set:
  Basis Set: CC-PVTZ
  Basis Set:
  @DF-RHF Final Energy:  -360.72299552568751
    Total Energy =                       -360.7229955256876792
  Basis Set: CC-PVTZ
  Basis Set:
  Charge       = 0
  Multiplicity = 1
  Basis Set: CC-PVTZ
  Basis Set:

    Orbital Energies (a.u.)
    -----------------------

    Doubly Occupied:

       1A    -20.501881     2A    -15.617169     3A    -11.338592
       4A    -11.293853     5A    -11.264731     6A    -11.258150
       7A    -11.230039     8A    -11.228038     9A     -1.390906
      10A     -1.285820    11A     -1.118793    12A     -1.029048
      13A     -0.972484    14A     -0.876101    15A     -0.838796
      16A     -0.719354    17A     -0.702490    18A     -0.663706
      19A     -0.653222    20A     -0.625716    21A     -0.611897
      22A     -0.574526    23A     -0.555404    24A     -0.550527
      25A     -0.530271    26A     -0.483822    27A     -0.420587
      28A     -0.410523    29A     -0.310492

  @DF-RHF Final Energy:  -360.72299572124990

   => Energetics <=

    Nuclear Repulsion Energy =            358.6470021660904308
    One-Electron Energy =               -1200.6261193718119102
    Two-Electron Energy =                 481.2561214844716346
    DFT Exchange-Correlation Energy =       0.0000000000000000
    Empirical Dispersion Energy =           0.0000000000000000
    PCM Polarization Energy =               0.0000000000000000
    EFP Energy =                            0.0000000000000000
    Total Energy =                       -360.7229957212497879
    Molecular point group: c1
  Basis Set: CC-PVTZ
  Basis Set:

  -Total Gradient:
     Atom            X                  Y                   Z
    ------   -----------------  -----------------  -----------------
       1       -0.000003971950    -0.000007686134    -0.000000761902
       2        0.000015837761    -0.000027997137    -0.000007726989
       3        0.000000215764     0.000018462395     0.000021838468
       4       -0.000006759266     0.000052803973    -0.000022346007
       5        0.000000212122    -0.000003071329    -0.000004407789
       6       -0.000010198710     0.000013995115    -0.000010683172
       7       -0.000002452615    -0.000011207411    -0.000000870828
       8        0.000281915178     0.000797370355     0.000145257637
       9        0.000004283988    -0.000008620318     0.000002681844
      10       -0.000233636253    -0.000711879928    -0.000022118578
      11        0.000216305501     0.000587529078    -0.000553759366
      12        0.000001597536     0.000007796322     0.000007582063
      13       -0.000267042415    -0.000697114965     0.000446191300
      14        0.000012198893    -0.000008328324    -0.000002859133
      15       -0.000008505534    -0.000002051692     0.000001982457

  **** Optimization is complete! (in 6 steps) ****
    Final optimized geometry and variables:
    Molecular point group: c1

    Geometry (in Angstrom), charge = 0, multiplicity = 1:

    H           -1.573274650903     0.588462745824    -2.534168344006
    C           -1.128627184152     0.419738929829    -1.576181074441
    C           -1.840821447175     0.669638682796    -0.360481022947
    C            0.121146010428    -0.042834276042    -1.479007459489
    H           -2.849062601951     1.036448015833    -0.406326524187
    C           -1.262587204945     0.449572227685     0.824921571463
    H            0.714291305624    -0.257182974771    -2.345201193176
    N            0.729313576448    -0.279109140161    -0.284757574501
    H           -1.764249641314     0.626644016964     1.753964598859
    C            0.104038168555    -0.038445435777     0.925804323103
    C            2.098874913210    -0.771226126518    -0.261340979663
    O            0.676483970003    -0.226334380608     1.964671095338
    H            2.270705858171    -1.386353095503    -1.132400911754
    H            2.805952930241     0.048547592794    -0.251060322921
    H            2.243959221477    -1.359806410023     0.626899397172

  Mulliken Charges: (a.u.)
   Center  Symbol    Alpha    Beta     Spin     Total
       1     H     0.41389  0.41389  0.00000  0.17222
       2     C     3.10454  3.10454  0.00000 -0.20908
       3     C     3.06102  3.06102  0.00000 -0.12203
       4     C     3.03420  3.03420  0.00000 -0.06840
       5     H     0.41841  0.41841  0.00000  0.16318
       6     C     3.11793  3.11793  0.00000 -0.23586
       7     H     0.42126  0.42126  0.00000  0.15748
       8     N     3.51071  3.51071  0.00000 -0.02141
       9     H     0.40906  0.40906  0.00000  0.18188
      10     C     2.84516  2.84516  0.00000  0.30967
      11     C     3.09920  3.09920  0.00000 -0.19840
      12     O     4.23617  4.23617  0.00000 -0.47233
      13     H     0.45486  0.45486  0.00000  0.09028
      14     H     0.44614  0.44614  0.00000  0.10771
      15     H     0.42745  0.42745  0.00000  0.14511

   Total alpha = 29.00000, Total beta = 29.00000, Total charge =  0.00000
