  ==> Input File <==

--------------------------------------------------------------------------
set {
	reference rhf
	basis 6-31G*
}

set_num_threads( 4 )
memory 2 gb

molecule MOL {
0 1

H	 -2.586843	 0.503216	 -3.716446
C	 -1.812707	 0.467647	 -2.970636
C	 -1.642107	 1.533500	 -2.100003
C	 -0.988952	 -0.643519	 -2.883051
H	 -2.281651	 2.394655	 -2.169005
C	 -0.646506	 1.487034	 -1.141305
H	 -1.122691	 -1.468791	 -3.558806
C	 0.008320	 -0.692231	 -1.924172
H	 -0.499988	 2.302536	 -0.459278
C	 0.181868	 0.374379	 -1.050109
H	 0.648070	 -1.550106	 -1.852808
C	 1.239129	 0.373821	 0.000060
O	 1.970282	 -0.730723	 0.000018
O	 1.417193	 1.268790	 0.765687
C	 3.377318	 -0.566646	 -0.000065
H	 3.695437	 -0.028981	 -0.881264
H	 3.789299	 -1.563704	 0.000236
H	 3.695516	 -0.028316	 0.880770

	symmetry c1
}
set optking {
	frozen_dihedral = ("
		10 12 13 15
	")
}

ee = optimize('scf')
oeprop('DIPOLE', 'QUADRUPOLE', 'MULLIKEN_CHARGES')
f=open( 'psi4out.xyz', 'w' )
f.write( "18  " )
f.write( str(ee) + "\n" )
f.write( MOL.save_string_xyz() )
f.close()
--------------------------------------------------------------------------

    Molecular point group: c1
  Charge       = 0
  Multiplicity = 1
  Basis Set: 6-31G*
  Basis Set:
  @DF-RHF Final Energy:  -457.33934610606246
    Total Energy =                       -457.3393461060620666
    Molecular point group: c1
  Basis Set: 6-31G*
  Basis Set:
  Basis Set: 6-31G*
  Basis Set:
  @DF-RHF Final Energy:  -457.33661798751405
    Total Energy =                       -457.3366179875142734
  Basis Set: 6-31G*
  Basis Set:
  Basis Set: 6-31G*
  Basis Set:
  @DF-RHF Final Energy:  -457.33986494519041
    Total Energy =                       -457.3398649451903566
  Basis Set: 6-31G*
  Basis Set:
  Basis Set: 6-31G*
  Basis Set:
  @DF-RHF Final Energy:  -457.33993699620470
    Total Energy =                       -457.3399369962046421
  Basis Set: 6-31G*
  Basis Set:
  Basis Set: 6-31G*
  Basis Set:
  @DF-RHF Final Energy:  -457.33993937893467
    Total Energy =                       -457.3399393789345595
  Basis Set: 6-31G*
  Basis Set:
  Charge       = 0
  Multiplicity = 1
  Basis Set: 6-31G*
  Basis Set:

    Orbital Energies (a.u.)
    -----------------------

    Doubly Occupied:

       1A    -20.595340     2A    -20.549725     3A    -11.379025
       4A    -11.286252     5A    -11.247405     6A    -11.246950
       7A    -11.245777     8A    -11.243533     9A    -11.239062
      10A    -11.238348    11A     -1.465040    12A     -1.364780
      13A     -1.166624    14A     -1.046647    15A     -1.026485
      16A     -0.975525    17A     -0.864659    18A     -0.836182
      19A     -0.777046    20A     -0.738358    21A     -0.683682
      22A     -0.674159    23A     -0.666755    24A     -0.634187
      25A     -0.625541    26A     -0.601625    27A     -0.594448
      28A     -0.558419    29A     -0.527445    30A     -0.517816
      31A     -0.502460    32A     -0.498722    33A     -0.458035
      34A     -0.442624    35A     -0.346615    36A     -0.342651

  @DF-RHF Final Energy:  -457.33993963478343

   => Energetics <=

    Nuclear Repulsion Energy =            493.7076665434419169
    One-Electron Energy =               -1601.6793202659196140
    Two-Electron Energy =                 650.6317140876942631
    DFT Exchange-Correlation Energy =       0.0000000000000000
    Empirical Dispersion Energy =           0.0000000000000000
    PCM Polarization Energy =               0.0000000000000000
    EFP Energy =                            0.0000000000000000
    Total Energy =                       -457.3399396347833772
    Molecular point group: c1
  Basis Set: 6-31G*
  Basis Set:

  -Total Gradient:
     Atom            X                  Y                   Z
    ------   -----------------  -----------------  -----------------
       1       -0.000001664697     0.000003115590     0.000002218405
       2       -0.000004870287     0.000033068861     0.000013039426
       3       -0.000015182416    -0.000011917165    -0.000026772374
       4        0.000022838204    -0.000016455125     0.000013779854
       5       -0.000005700270     0.000000176256     0.000002769537
       6        0.000026327229    -0.000020374972     0.000007382000
       7        0.000000262448     0.000003639149     0.000000066916
       8       -0.000001457635    -0.000028530585    -0.000030595511
       9       -0.000000177900     0.000007580146    -0.000000555137
      10        0.004321056511     0.002900947989    -0.004367615226
      11       -0.000004974190     0.000008219760     0.000004428920
      12       -0.006223738773    -0.004252899815     0.002922464767
      13        0.001910322248     0.001382737493     0.008778893574
      14       -0.000029806793     0.000039580201    -0.000005549741
      15        0.000020119669    -0.000028431388    -0.007304814769
      16       -0.000007437990    -0.000007388443     0.000003823973
      17       -0.000004926526    -0.000006511852    -0.000003514700
      18       -0.000000988841    -0.000006556098    -0.000009449918

  **** Optimization is complete! (in 6 steps) ****
    Final optimized geometry and variables:
    Molecular point group: c1

    Geometry (in Angstrom), charge = 0, multiplicity = 1:

    H           -2.987123176821     0.245008354463    -2.670341805026
    C           -2.221901859653     0.202596901349    -1.915803352040
    C           -2.059622846611     1.263249517541    -1.035788769275
    C           -1.402735181946    -0.910981060033    -1.825711416123
    H           -2.697142210064     2.125755284390    -1.106919466765
    C           -1.076403545642     1.208598076984    -0.066187671653
    H           -1.531570249477    -1.732249903717    -2.507204753515
    C           -0.416263682508    -0.967431854725    -0.855236255168
    H           -0.936212086701     2.019830966969     0.622230342782
    C           -0.247805229783     0.094361416083     0.025291612997
    H            0.218881228984    -1.828019851147    -0.778470482133
    C            0.817202747956     0.091309228094     1.067165213384
    O            1.564373301937    -1.019364183072     1.073823635505
    O            1.037183233938     1.012611259203     1.784316118761
    C            2.969438429012    -0.838394762382     1.069694564742
    H            3.273798870873    -0.319072188816     0.169133869152
    H            3.399578113413    -1.827604157289     1.081849945432
    H            3.289327669417    -0.282812112551     1.938375778657

  Mulliken Charges: (a.u.)
   Center  Symbol    Alpha    Beta     Spin     Total
       1     H     0.39492  0.39492  0.00000  0.21015
       2     C     3.08961  3.08961  0.00000 -0.17921
       3     C     3.10704  3.10704  0.00000 -0.21407
       4     C     3.10680  3.10680  0.00000 -0.21360
       5     H     0.39494  0.39494  0.00000  0.21011
       6     C     3.08579  3.08579  0.00000 -0.17158
       7     H     0.39593  0.39593  0.00000  0.20815
       8     C     3.08844  3.08844  0.00000 -0.17687
       9     H     0.37596  0.37596  0.00000  0.24808
      10     C     3.07883  3.07883  0.00000 -0.15766
      11     H     0.38138  0.38138  0.00000  0.23724
      12     C     2.58298  2.58298  0.00000  0.83404
      13     O     4.32146  4.32146  0.00000 -0.64292
      14     O     4.27682  4.27682  0.00000 -0.55365
      15     C     3.09452  3.09452  0.00000 -0.18903
      16     H     0.41634  0.41634  0.00000  0.16731
      17     H     0.40656  0.40656  0.00000  0.18688
      18     H     0.40169  0.40169  0.00000  0.19662

   Total alpha = 36.00000, Total beta = 36.00000, Total charge = -0.00000
