                              Psi4 1.0.54 Driver

  ==> Input File <==

--------------------------------------------------------------------------
set {
	reference rhf
	basis cc-pvtz
}

set_num_threads( 4 )
memory 2 gb

molecule MOL {
0 1

O	 1.216069	 1.304886	 0.000821
C	 1.121787	 0.124983	 0.000110
C	 -0.170912	 -0.649867	 -0.000147
O	 2.167739	 -0.685178	 -0.000678
C	 -1.413045	 0.229353	 0.001137
H	 -0.152877	 -1.303435	 -0.866175
H	 -0.152278	 -1.305116	 0.864586
C	 -1.839567	 0.630750	 1.410133
H	 -2.223508	 -0.295044	 -0.492520
H	 -1.224264	 1.116891	 -0.592313
C	 -3.084986	 1.510325	 1.423215
H	 -2.024062	 -0.262679	 2.000884
H	 -1.023456	 1.155585	 1.899771
H	 -3.928473	 0.999765	 0.971060
H	 -3.364316	 1.779442	 2.435256
H	 -2.920597	 2.428357	 0.869344
C	 3.449556	 -0.089977	 -0.000570
H	 3.585694	 0.522473	 -0.879546
H	 4.155805	 -0.904274	 -0.001389
H	 3.586173	 0.521118	 0.879272

	symmetry c1
}
set optking {
	frozen_dihedral = ("
		9 5 3 6
	")
}

ee,wfn = optimize('scf', return_wfn=True)
oeprop( wfn, 'DIPOLE', 'QUADRUPOLE', 'MULLIKEN_CHARGES')
f=open( 'psi4out.xyz', 'w' )
f.write( "20  " )
f.write( str(ee) + "\n" )
f.write( MOL.save_string_xyz() )
f.close()
--------------------------------------------------------------------------

    Molecular point group: c1
  Charge       = 0
  Multiplicity = 1
  Basis Set: CC-PVTZ
  Basis Set:
  @DF-RHF Final Energy:  -384.08154318733693
    Total Energy =                       -384.0815431873367061
    Molecular point group: c1
  Basis Set: CC-PVTZ
  Basis Set:
  Basis Set: CC-PVTZ
  Basis Set:
  @DF-RHF Final Energy:  -384.08174325652504
    Total Energy =                       -384.0817432565247600
  Basis Set: CC-PVTZ
  Basis Set:
  Basis Set: CC-PVTZ
  Basis Set:
  @DF-RHF Final Energy:  -384.08165938117469
    Total Energy =                       -384.0816593811745179
  Basis Set: CC-PVTZ
  Basis Set:
  Basis Set: CC-PVTZ
  Basis Set:
  @DF-RHF Final Energy:  -384.08177708942236
    Total Energy =                       -384.0817770894223031
  Basis Set: CC-PVTZ
  Basis Set:
  Basis Set: CC-PVTZ
  Basis Set:
  @DF-RHF Final Energy:  -384.08177812641787
    Total Energy =                       -384.0817781264180439
  Basis Set: CC-PVTZ
  Basis Set:
  Charge       = 0
  Multiplicity = 1
  Basis Set: CC-PVTZ
  Basis Set:

    Orbital Energies (a.u.)
    -----------------------

    Doubly Occupied:

       1A    -20.597148     2A    -20.535166     3A    -11.365718
       4A    -11.279108     5A    -11.233923     6A    -11.216946
       7A    -11.213388     8A    -11.205406     9A     -1.473245
      10A     -1.366744    11A     -1.087631    12A     -1.023594
      13A     -0.969510    14A     -0.885051    15A     -0.805628
      16A     -0.768667    17A     -0.705558    18A     -0.684002
      19A     -0.676383    20A     -0.630772    21A     -0.607457
      22A     -0.589165    23A     -0.580181    24A     -0.546326
      25A     -0.531554    26A     -0.516258    27A     -0.513558
      28A     -0.476700    29A     -0.471331    30A     -0.463555
      31A     -0.459513    32A     -0.441596

  @DF-RHF Final Energy:  -384.08177912540475

   => Energetics <=

    Nuclear Repulsion Energy =            387.6974024508893990
    One-Electron Energy =               -1291.7167948664268806
    Two-Electron Energy =                 519.9376132901335268
    DFT Exchange-Correlation Energy =       0.0000000000000000
    Empirical Dispersion Energy =           0.0000000000000000
    PCM Polarization Energy =               0.0000000000000000
    EFP Energy =                            0.0000000000000000
    Total Energy =                       -384.0817791254039548
    Molecular point group: c1
  Basis Set: CC-PVTZ
  Basis Set:

  -Total Gradient:
     Atom            X                  Y                   Z
    ------   -----------------  -----------------  -----------------
       1       -0.000035599473    -0.000034691640     0.000025582330
       2       -0.000018023679    -0.000005427193     0.000001628370
       3        0.001850729837     0.002974526265    -0.002508882744
       4        0.000024502156     0.000002220051    -0.000016226279
       5       -0.001184776863    -0.002061259428     0.003469979634
       6       -0.001347397898    -0.002106292504     0.001518877757
       7        0.000004879617    -0.000002497170     0.000038098452
       8        0.000054990324     0.000000822970    -0.000027838260
       9        0.000675694091     0.001208581185    -0.002507026414
      10       -0.000001268281     0.000012436867    -0.000001284131
      11       -0.000012363275     0.000001865675     0.000000774711
      12        0.000000331961     0.000001669504    -0.000008359362
      13       -0.000001522343    -0.000006449689     0.000003108466
      14        0.000002629741     0.000004368487     0.000003116119
      15       -0.000011895954     0.000009414008     0.000006654497
      16       -0.000003013739    -0.000000165110    -0.000001294538
      17       -0.000003151378    -0.000001293039     0.000003064127
      18        0.000002297297     0.000002588492    -0.000001594580
      19        0.000002151354    -0.000001180414     0.000000503438
      20        0.000000806510     0.000000762685     0.000001118406

  **** Optimization is complete! (in 6 steps) ****
    Final optimized geometry and variables:
    Molecular point group: c1

    Geometry (in Angstrom), charge = 0, multiplicity = 1:

    O            0.987335822552     1.016729961470    -0.355983308924
    C            0.905091437760    -0.164152776039    -0.375195712108
    C           -0.378092933659    -0.956068020194    -0.381536893175
    O            1.959449006293    -0.962259722450    -0.396625165231
    C           -1.645481490128    -0.106893744848    -0.319403844680
    H           -0.367259786862    -1.590160401429    -1.260643584477
    H           -0.327568418509    -1.643716074699     0.456954962674
    C           -2.052661310890     0.287180440508     1.097112826934
    H           -2.451777484590    -0.650094600793    -0.801954109666
    H           -1.493675040801     0.789286417142    -0.909061574648
    C           -3.297206642715     1.166964672017     1.131064157533
    H           -2.229945192613    -0.611462334781     1.682610325162
    H           -1.229020866444     0.810418788230     1.571570645305
    H           -4.146293225414     0.663095528086     0.680632100741
    H           -3.567430257215     1.424095766574     2.148697547549
    H           -3.134891053102     2.091441749452     0.587849903974
    C            3.234985486361    -0.353524488641    -0.397664253469
    H            3.357392955025     0.273884035614    -1.268046457932
    H            3.949584522669    -1.160247667831    -0.416956244075
    H            3.372398708887     0.245117974702     0.490559983419

  Mulliken Charges: (a.u.)
   Center  Symbol    Alpha    Beta     Spin     Total
       1     O     4.19875  4.19875  0.00000 -0.39751
       2     C     2.80197  2.80197  0.00000  0.39605
       3     C     3.11122  3.11122  0.00000 -0.22243
       4     O     4.14626  4.14626  0.00000 -0.29252
       5     C     3.09241  3.09241  0.00000 -0.18482
       6     H     0.43088  0.43088  0.00000  0.13824
       7     H     0.44054  0.44054  0.00000  0.11892
       8     C     3.08203  3.08203  0.00000 -0.16405
       9     H     0.44666  0.44666  0.00000  0.10668
      10     H     0.44449  0.44449  0.00000  0.11101
      11     C     3.15128  3.15128  0.00000 -0.30256
      12     H     0.45731  0.45731  0.00000  0.08539
      13     H     0.44849  0.44849  0.00000  0.10302
      14     H     0.45666  0.45666  0.00000  0.08668
      15     H     0.44857  0.44857  0.00000  0.10286
      16     H     0.45166  0.45166  0.00000  0.09668
      17     C     3.03671  3.03671  0.00000 -0.07343
      18     H     0.45428  0.45428  0.00000  0.09144
      19     H     0.44540  0.44540  0.00000  0.10921
      20     H     0.45443  0.45443  0.00000  0.09114

   Total alpha = 32.00000, Total beta = 32.00000, Total charge =  0.00000

*** Psi4 exiting successfully. Buy a developer a beer!
