  ==> Input File <==

--------------------------------------------------------------------------
set {
	reference rhf
	basis 6-31G*
}

set_num_threads( 4 )
memory 2 gb

molecule MOL {
0 1

H	 -3.976562	 -0.926844	 0.835885
C	 -2.910618	 -0.786188	 0.863508
C	 -2.331873	 -0.093013	 1.915987
C	 -2.120069	 -1.298463	 -0.153123
H	 -2.946124	 0.303763	 2.703788
C	 -0.961213	 0.087438	 1.950811
H	 -2.570475	 -1.835522	 -0.968174
C	 -0.747805	 -1.119047	 -0.120356
H	 -0.496151	 0.621155	 2.757368
C	 -0.164713	 -0.424786	 0.933100
H	 -0.132217	 -1.513756	 -0.904943
C	 1.306462	 -0.203073	 1.017628
O	 1.970282	 -0.730723	 0.000018
O	 1.840860	 0.386284	 1.904159
C	 3.377318	 -0.566646	 -0.000065
H	 3.695437	 -0.028981	 -0.881264
H	 3.789299	 -1.563704	 0.000236
H	 3.695516	 -0.028316	 0.880770

	symmetry c1
}
set optking {
	frozen_dihedral = ("
		12 13 15 16
	")
}

ee = optimize('scf')
oeprop('DIPOLE', 'QUADRUPOLE', 'MULLIKEN_CHARGES')
f=open( 'psi4out.xyz', 'w' )
f.write( "18  " )
f.write( str(ee) + "\n" )
f.write( MOL.save_string_xyz() )
f.close()
--------------------------------------------------------------------------

    Molecular point group: c1
  Charge       = 0
  Multiplicity = 1
  Basis Set: 6-31G*
  Basis Set:
  @DF-RHF Final Energy:  -457.34743415829018
    Total Energy =                       -457.3474341582897296
    Molecular point group: c1
  Basis Set: 6-31G*
  Basis Set:
  Basis Set: 6-31G*
  Basis Set:
  @DF-RHF Final Energy:  -457.34779660005978
    Total Energy =                       -457.3477966000593824
  Basis Set: 6-31G*
  Basis Set:
  Basis Set: 6-31G*
  Basis Set:
  @DF-RHF Final Energy:  -457.34834236857210
    Total Energy =                       -457.3483423685718208
  Basis Set: 6-31G*
  Basis Set:
  Basis Set: 6-31G*
  Basis Set:
  @DF-RHF Final Energy:  -457.34816776112012
    Total Energy =                       -457.3481677611204077
  Basis Set: 6-31G*
  Basis Set:
  Basis Set: 6-31G*
  Basis Set:
  @DF-RHF Final Energy:  -457.34846471917893
    Total Energy =                       -457.3484647191786507
  Basis Set: 6-31G*
  Basis Set:
  Charge       = 0
  Multiplicity = 1
  Basis Set: 6-31G*
  Basis Set:

    Orbital Energies (a.u.)
    -----------------------

    Doubly Occupied:

       1A    -20.606629     2A    -20.543597     3A    -11.379510
       4A    -11.281378     5A    -11.245012     6A    -11.244870
       7A    -11.243568     8A    -11.241167     9A    -11.236976
      10A    -11.236214    11A     -1.470009    12A     -1.364463
      13A     -1.164723    14A     -1.047771    15A     -1.024304
      16A     -0.979304    17A     -0.859634    18A     -0.833778
      19A     -0.776866    20A     -0.739898    21A     -0.683852
      22A     -0.674913    23A     -0.671489    24A     -0.631272
      25A     -0.623493    26A     -0.597257    27A     -0.584570
      28A     -0.567964    29A     -0.523526    30A     -0.516226
      31A     -0.503841    32A     -0.498076    33A     -0.454972
      34A     -0.444966    35A     -0.344549    36A     -0.340476

  @DF-RHF Final Energy:  -457.34846727036114

   => Energetics <=

    Nuclear Repulsion Energy =            492.5633279142735432
    One-Electron Energy =               -1599.4613662531135105
    Two-Electron Energy =                 649.5495710684785990
    DFT Exchange-Correlation Energy =       0.0000000000000000
    Empirical Dispersion Energy =           0.0000000000000000
    PCM Polarization Energy =               0.0000000000000000
    EFP Energy =                            0.0000000000000000
    Total Energy =                       -457.3484672703614251
    Molecular point group: c1
  Basis Set: 6-31G*
  Basis Set:

  -Total Gradient:
     Atom            X                  Y                   Z
    ------   -----------------  -----------------  -----------------
       1        0.000004961079    -0.000000364648    -0.000002385961
       2        0.000004486187    -0.000000225633     0.000000461694
       3       -0.000000093777     0.000000991644    -0.000004090015
       4        0.000008686693     0.000000912128     0.000006216228
       5        0.000004757812    -0.000000339113    -0.000000444982
       6        0.000015140799     0.000002909713    -0.000000607292
       7        0.000002010884    -0.000000216977    -0.000000752995
       8       -0.000003828724     0.000002675636    -0.000003996103
       9        0.000000430290     0.000000106273     0.000003199027
      10        0.000002839834    -0.000013003081     0.000002849899
      11       -0.000003065475     0.000000685203     0.000001221679
      12        0.000004680600    -0.000035040702     0.000027718871
      13       -0.000006213328     0.000104165930    -0.000134610805
      14        0.000020435575    -0.000009879286    -0.000017621904
      15       -0.000049023280    -0.000027185929     0.000142528358
      16       -0.000060722466    -0.000059730355    -0.000022512752
      17        0.000047942378     0.000008725184    -0.000010711293
      18        0.000006574913     0.000024814009     0.000013538347

  **** Optimization is complete! (in 6 steps) ****
    Final optimized geometry and variables:
    Molecular point group: c1

    Geometry (in Angstrom), charge = 0, multiplicity = 1:

    H           -4.026966882574    -0.473515287955    -0.018250224116
    C           -2.961983815188    -0.328361281098     0.019898954275
    C           -2.396431467201     0.367177859761     1.077966881889
    C           -2.159299270318    -0.837199264295    -0.988834487864
    H           -3.019919813698     0.761416887876     1.859817780374
    C           -1.027007923444     0.553349700490     1.126228534357
    H           -2.599378486508    -1.376102938723    -1.808295745679
    C           -0.788181182920    -0.651990688384    -0.942574307675
    H           -0.572496455301     1.088956142291     1.937404171134
    C           -0.218054480807     0.044611131896     0.116496620191
    H           -0.163679457222    -1.044119699631    -1.721158960351
    C            1.251940281972     0.273631901806     0.217322963917
    O            1.919812563205    -0.254660182138    -0.798392413053
    O            1.766221319989     0.866371702979     1.113156646078
    C            3.331140535414    -0.123709932811    -0.846885379781
    H            3.583392521395     0.407058107281    -1.754027173741
    H            3.753792652195    -1.117895648245    -0.880175586875
    H            3.696887507064     0.410331593530     0.013178475416

  Mulliken Charges: (a.u.)
   Center  Symbol    Alpha    Beta     Spin     Total
       1     H     0.39549  0.39549  0.00000  0.20902
       2     C     3.09000  3.09000  0.00000 -0.18001
       3     C     3.10702  3.10702  0.00000 -0.21403
       4     C     3.10708  3.10708  0.00000 -0.21416
       5     H     0.39550  0.39550  0.00000  0.20901
       6     C     3.08657  3.08657  0.00000 -0.17313
       7     H     0.39641  0.39641  0.00000  0.20718
       8     C     3.08688  3.08688  0.00000 -0.17377
       9     H     0.37593  0.37593  0.00000  0.24815
      10     C     3.07803  3.07803  0.00000 -0.15606
      11     H     0.38064  0.38064  0.00000  0.23873
      12     C     2.57937  2.57937  0.00000  0.84126
      13     O     4.31676  4.31676  0.00000 -0.63351
      14     O     4.29128  4.29128  0.00000 -0.58255
      15     C     3.09879  3.09879  0.00000 -0.19758
      16     H     0.41145  0.41145  0.00000  0.17710
      17     H     0.41135  0.41135  0.00000  0.17729
      18     H     0.39146  0.39146  0.00000  0.21707

   Total alpha = 36.00000, Total beta = 36.00000, Total charge = -0.00000
