                              Psi4 1.0.54 Driver

  ==> Input File <==

--------------------------------------------------------------------------
set {
	reference rhf
	basis cc-pvtz
}

set_num_threads( 4 )
memory 2 gb

molecule MOL {
0 1

H	 1.166964	 -1.062386	 0.758429
O	 1.324748	 -0.612467	 -0.052206
C	 0.706474	 0.636793	 -0.025501
C	 0.668400	 1.344650	 -1.350310
H	 1.261500	 1.238566	 0.684511
H	 -0.308165	 0.559166	 0.360740
C	 1.245885	 0.935171	 -2.458075
H	 0.110201	 2.266421	 -1.350892
H	 1.824319	 0.031756	 -2.493132
H	 1.167798	 1.502091	 -3.366130

	symmetry c1
}
set optking {
	frozen_dihedral = ("
		5 3 2 1
	")
}

ee,wfn = optimize('scf', return_wfn=True)
oeprop( wfn, 'DIPOLE', 'QUADRUPOLE', 'MULLIKEN_CHARGES')
f=open( 'psi4out.xyz', 'w' )
f.write( "10  " )
f.write( str(ee) + "\n" )
f.write( MOL.save_string_xyz() )
f.close()
--------------------------------------------------------------------------

    Molecular point group: c1
  Charge       = 0
  Multiplicity = 1
  Basis Set: CC-PVTZ
  Basis Set:
  @DF-RHF Final Energy:  -191.99596677136077
    Total Energy =                       -191.9959667713608269
    Molecular point group: c1
  Basis Set: CC-PVTZ
  Basis Set:
  Basis Set: CC-PVTZ
  Basis Set:
  @DF-RHF Final Energy:  -191.48751908478630
    Total Energy =                       -191.4875190847863280
  Basis Set: CC-PVTZ
  Basis Set:
  Basis Set: CC-PVTZ
  Basis Set:
  @DF-RHF Final Energy:  -191.65892181430712
    Total Energy =                       -191.6589218143072344
  Basis Set: CC-PVTZ
  Basis Set:
  Basis Set: CC-PVTZ
  Basis Set:
  @DF-RHF Final Energy:  -191.90386765697781
    Total Energy =                       -191.9038676569778659
  Basis Set: CC-PVTZ
  Basis Set:
  @DF-RHF Final Energy:  -191.98078557587263
    Total Energy =                       -191.9807855758727726
  @DF-RHF Final Energy:  -191.99724116615934
    Total Energy =                       -191.9972411661592560
  Basis Set: CC-PVTZ
  Basis Set:
  @DF-RHF Final Energy:  -191.99758458753536
    Total Energy =                       -191.9975845875353002
  Basis Set: CC-PVTZ
  Basis Set:
  Basis Set: CC-PVTZ
  Basis Set:
  @DF-RHF Final Energy:  -191.99772909823648
    Total Energy =                       -191.9977290982365901
  Basis Set: CC-PVTZ
  Basis Set:
  Basis Set: CC-PVTZ
  Basis Set:
  @DF-RHF Final Energy:  -191.99773091897595
    Total Energy =                       -191.9977309189758614
  Basis Set: CC-PVTZ
  Basis Set:
  Charge       = 0
  Multiplicity = 1
  Basis Set: CC-PVTZ
  Basis Set:

    Orbital Energies (a.u.)
    -----------------------

    Doubly Occupied:

       1A    -20.553914     2A    -11.278079     3A    -11.223704
       4A    -11.207678     5A     -1.374194     6A     -1.058523
       7A     -0.925915     8A     -0.756378     9A     -0.714137
      10A     -0.640229    11A     -0.618959    12A     -0.594055
      13A     -0.517887    14A     -0.487981    15A     -0.458752
      16A     -0.360309

  @DF-RHF Final Energy:  -191.99773145934398

   => Energetics <=

    Nuclear Repulsion Energy =            119.6665441686075582
    One-Electron Energy =                -497.7871573481277210
    Two-Electron Energy =                 186.1228817201761956
    DFT Exchange-Correlation Energy =       0.0000000000000000
    Empirical Dispersion Energy =           0.0000000000000000
    PCM Polarization Energy =               0.0000000000000000
    EFP Energy =                            0.0000000000000000
    Total Energy =                       -191.9977314593439530
    Molecular point group: c1
  Basis Set: CC-PVTZ
  Basis Set:

  -Total Gradient:
     Atom            X                  Y                   Z
    ------   -----------------  -----------------  -----------------
       1       -0.000512802207     0.000093073640    -0.000171524624
       2        0.000724932850    -0.000076524404     0.000115661741
       3       -0.000536899623    -0.000204001283     0.000352998359
       4       -0.000018649749    -0.000007482249    -0.000041513684
       5        0.000334100806     0.000174734173    -0.000279260441
       6        0.000001494945     0.000002607529     0.000002086644
       7       -0.000040639641     0.000006288281     0.000018426850
       8        0.000013090649     0.000011039228     0.000004023924
       9        0.000016372685    -0.000007872068     0.000003724650
      10        0.000018999285     0.000008137151    -0.000004623420

  **** Optimization is complete! (in 10 steps) ****
    Final optimized geometry and variables:
    Molecular point group: c1

    Geometry (in Angstrom), charge = 0, multiplicity = 1:

    H           -0.427846246311    -2.091305082511     0.740085435664
    O           -0.127838442677    -1.384414453546     0.200006474550
    C           -0.146283081810    -0.190733812525     0.924590000529
    C            0.080946225505     0.984353176295     0.024149396318
    H            0.627130084488    -0.194190811618     1.691223486095
    H           -1.099432801620    -0.060356087287     1.434091947621
    C            0.248704865482     0.932599915534    -1.277550059394
    H            0.103871695766     1.934335092264     0.531319330726
    H            0.232987533473     0.001250712668    -1.808216670239
    H            0.408847118226     1.828130969909    -1.847659193774

  Mulliken Charges: (a.u.)
   Center  Symbol    Alpha    Beta     Spin     Total
       1     H     0.39521  0.39521  0.00000  0.20958
       2     O     4.19056  4.19056  0.00000 -0.38113
       3     C     2.93788  2.93788  0.00000  0.12425
       4     C     3.08223  3.08223  0.00000 -0.16446
       5     H     0.47424  0.47424  0.00000  0.05151
       6     H     0.47501  0.47501  0.00000  0.04999
       7     C     3.17002  3.17002  0.00000 -0.34003
       8     H     0.42406  0.42406  0.00000  0.15189
       9     H     0.42044  0.42044  0.00000  0.15911
      10     H     0.43035  0.43035  0.00000  0.13929

   Total alpha = 16.00000, Total beta = 16.00000, Total charge =  0.00000

*** Psi4 exiting successfully. Buy a developer a beer!
