                              Psi4 1.0.54 Driver

  ==> Input File <==

--------------------------------------------------------------------------
set {
	reference rhf
	basis cc-pvtz
}

set_num_threads( 4 )
memory 2 gb

molecule MOL {
0 1

H	 -2.032960	 -1.268105	 0.000000
C	 -1.127921	 -0.688714	 0.000000
N	 0.000055	 -1.369170	 -0.000000
C	 -1.186962	 0.691879	 0.000000
C	 1.127964	 -0.688639	 0.000000
H	 -2.134709	 1.193056	 0.000000
C	 -0.000049	 1.395988	 -0.000000
H	 2.033051	 -1.267950	 0.000000
C	 1.186911	 0.691970	 0.000000
H	 -0.000094	 2.469463	 0.000000
H	 2.134624	 1.193210	 0.000000

	symmetry c1
}
ee,wfn = energy('scf', return_wfn=True)
oeprop( wfn, 'DIPOLE', 'QUADRUPOLE', 'MULLIKEN_CHARGES')
oeprop( wfn, 'GRID_ESP')
f=open( 'psi4out.xyz', 'w' )
f.write( "11  " )
f.write( str(ee) + "\n" )
f.write( MOL.save_string_xyz() )
f.close()
--------------------------------------------------------------------------

    Molecular point group: c1

    Geometry (in Angstrom), charge = 0, multiplicity = 1:

       Center              X                  Y                   Z               Mass
    ------------   -----------------  -----------------  -----------------  -----------------
           H         -2.032959968124    -1.268042308024     0.000000000000     1.007825032070
           C         -1.127920968124    -0.688651308024     0.000000000000    12.000000000000
           N          0.000055031876    -1.369107308024     0.000000000000    14.003074004780
           C         -1.186961968124     0.691941691976     0.000000000000    12.000000000000
           C          1.127964031876    -0.688576308024     0.000000000000    12.000000000000
           H         -2.134708968124     1.193118691976     0.000000000000     1.007825032070
           C         -0.000048968124     1.396050691976     0.000000000000    12.000000000000
           H          2.033051031876    -1.267887308024     0.000000000000     1.007825032070
           C          1.186911031876     0.692032691976     0.000000000000    12.000000000000
           H         -0.000093968124     2.469525691976     0.000000000000     1.007825032070
           H          2.134624031876     1.193272691976     0.000000000000     1.007825032070

  Charge       = 0
  Multiplicity = 1
  Basis Set: CC-PVTZ
  Basis Set:

    Orbital Energies (a.u.)
    -----------------------

    Doubly Occupied:

       1A    -15.557366     2A    -11.266785     3A    -11.266766
       4A    -11.253060     5A    -11.235213     6A    -11.235155
       7A     -1.268064     8A     -1.093142     9A     -1.037265
      10A     -0.860592    11A     -0.859620    12A     -0.726432
      13A     -0.665443    14A     -0.653833    15A     -0.600013
      16A     -0.577015    17A     -0.547444    18A     -0.521333
      19A     -0.414183    20A     -0.385898    21A     -0.348258

  @DF-RHF Final Energy:  -246.77810434814603

   => Energetics <=

    Nuclear Repulsion Energy =            208.4316886747113813
    One-Electron Energy =                -745.6736825738663583
    Two-Electron Energy =                 290.4638895510088332
    DFT Exchange-Correlation Energy =       0.0000000000000000
    Empirical Dispersion Energy =           0.0000000000000000
    PCM Polarization Energy =               0.0000000000000000
    EFP Energy =                            0.0000000000000000
    Total Energy =                       -246.7781043481461438

  Mulliken Charges: (a.u.)
   Center  Symbol    Alpha    Beta     Spin     Total
       1     H     0.41911  0.41911  0.00000  0.16178
       2     C     3.04706  3.04706  0.00000 -0.09412
       3     N     3.60203  3.60203  0.00000 -0.20406
       4     C     3.07036  3.07036  0.00000 -0.14073
       5     C     3.04706  3.04706  0.00000 -0.09412
       6     H     0.41255  0.41255  0.00000  0.17489
       7     C     3.08037  3.08037  0.00000 -0.16074
       8     H     0.41911  0.41911  0.00000  0.16179
       9     C     3.07037  3.07037  0.00000 -0.14073
      10     H     0.41942  0.41942  0.00000  0.16115
      11     H     0.41255  0.41255  0.00000  0.17489

   Total alpha = 21.00000, Total beta = 21.00000, Total charge = -0.00000

*** Psi4 exiting successfully. Buy a developer a beer!
