  ==> Input File <==

--------------------------------------------------------------------------
set {
	reference rhf
	basis 6-31G*
}

set_num_threads( 4 )
memory 2 gb

molecule MOL {
0 1

H	 3.517848	 4.543983	 2.425841
C	 3.066922	 3.697531	 1.939047
C	 1.807537	 3.816860	 1.370841
C	 3.746701	 2.491066	 1.881818
H	 1.281422	 4.753095	 1.415926
C	 1.228388	 2.728049	 0.745094
H	 4.722864	 2.400451	 2.322841
C	 3.168924	 1.399809	 1.255954
H	 0.254702	 2.802074	 0.299977
C	 1.906856	 1.516169	 0.685509
H	 3.691364	 0.464287	 1.209328
C	 1.239129	 0.373821	 0.000060
O	 1.970282	 -0.730723	 0.000018
O	 0.159653	 0.436410	 -0.499613
C	 3.377318	 -0.566646	 -0.000065
H	 3.695437	 -0.028981	 -0.881264
H	 3.789299	 -1.563704	 0.000236
H	 3.695516	 -0.028316	 0.880770

	symmetry c1
}
set optking {
	frozen_dihedral = ("
		10 12 13 15
	")
}

ee = optimize('scf')
oeprop('DIPOLE', 'QUADRUPOLE', 'MULLIKEN_CHARGES')
f=open( 'psi4out.xyz', 'w' )
f.write( "18  " )
f.write( str(ee) + "\n" )
f.write( MOL.save_string_xyz() )
f.close()
--------------------------------------------------------------------------

    Molecular point group: c1
  Charge       = 0
  Multiplicity = 1
  Basis Set: 6-31G*
  Basis Set:
  @DF-RHF Final Energy:  -457.07015719544290
    Total Energy =                       -457.0701571954426754
    Molecular point group: c1
  Basis Set: 6-31G*
  Basis Set:
  Basis Set: 6-31G*
  Basis Set:
  @DF-RHF Final Energy:  -457.20398196394694
    Total Energy =                       -457.2039819639467169
  Basis Set: 6-31G*
  Basis Set:
  Basis Set: 6-31G*
  Basis Set:
  @DF-RHF Final Energy:  -457.25238374716696
    Total Energy =                       -457.2523837471667321
  Basis Set: 6-31G*
  Basis Set:
  Basis Set: 6-31G*
  Basis Set:
  @DF-RHF Final Energy:  -457.28701796947206
    Total Energy =                       -457.2870179694721173
  Basis Set: 6-31G*
  Basis Set:
  @DF-RHF Final Energy:  -457.30597666309723
    Total Energy =                       -457.3059766630969989
  @DF-RHF Final Energy:  -457.31580298414616
    Total Energy =                       -457.3158029841459893
  @DF-RHF Final Energy:  -457.32154058008956
    Total Energy =                       -457.3215405800896178
  @DF-RHF Final Energy:  -457.32475820975259
    Total Energy =                       -457.3247582097524173
  @DF-RHF Final Energy:  -457.32672252311380
    Total Energy =                       -457.3267225231135171
  @DF-RHF Final Energy:  -457.32707888369657
    Total Energy =                       -457.3270788836964584
  @DF-RHF Final Energy:  -457.32814232714912
    Total Energy =                       -457.3281423271495214
  @DF-RHF Final Energy:  -457.32836619853680
    Total Energy =                       -457.3283661985368553
  @DF-RHF Final Energy:  -457.32844177542779
    Total Energy =                       -457.3284417754280184
  @DF-RHF Final Energy:  -457.32849415222898
    Total Energy =                       -457.3284941522288136
  @DF-RHF Final Energy:  -457.32851483566930
    Total Energy =                       -457.3285148356692389
  @DF-RHF Final Energy:  -457.32854250277541
    Total Energy =                       -457.3285425027750080
  @DF-RHF Final Energy:  -457.32856884699237
    Total Energy =                       -457.3285688469923116
  @DF-RHF Final Energy:  -457.32858765111445
    Total Energy =                       -457.3285876511142760
  @DF-RHF Final Energy:  -457.32860905320547
    Total Energy =                       -457.3286090532058097
  Basis Set: 6-31G*
  Basis Set:
  @DF-RHF Final Energy:  -457.32862903603950
    Total Energy =                       -457.3286290360390467
  Basis Set: 6-31G*
  Basis Set:
  Basis Set: 6-31G*
  Basis Set:
  @DF-RHF Final Energy:  -457.32863596990416
    Total Energy =                       -457.3286359699042123
  Basis Set: 6-31G*
  Basis Set:
  Basis Set: 6-31G*
  Basis Set:
  @DF-RHF Final Energy:  -457.32863732766049
    Total Energy =                       -457.3286373276606582
  Basis Set: 6-31G*
  Basis Set:
  Charge       = 0
  Multiplicity = 1
  Basis Set: 6-31G*
  Basis Set:

    Orbital Energies (a.u.)
    -----------------------

    Doubly Occupied:

       1A    -20.601068     2A    -20.543158     3A    -11.379528
       4A    -11.293735     5A    -11.255980     6A    -11.254348
       7A    -11.250615     8A    -11.249358     9A    -11.247052
      10A    -11.245007    11A     -1.463179    12A     -1.366006
      13A     -1.173069    14A     -1.047460    15A     -1.033303
      16A     -0.985264    17A     -0.875996    18A     -0.845410
      19A     -0.784498    20A     -0.737352    21A     -0.689636
      22A     -0.676350    23A     -0.672868    24A     -0.639981
      25A     -0.628991    26A     -0.605191    27A     -0.598463
      28A     -0.565420    29A     -0.538715    30A     -0.516288
      31A     -0.512689    32A     -0.500264    33A     -0.451575
      34A     -0.440029    35A     -0.351467    36A     -0.348735

  @DF-RHF Final Energy:  -457.32863749303220

   => Energetics <=

    Nuclear Repulsion Energy =            498.0214864728329189
    One-Electron Energy =               -1609.9641506887951437
    Two-Electron Energy =                 654.6140267229301344
    DFT Exchange-Correlation Energy =       0.0000000000000000
    Empirical Dispersion Energy =           0.0000000000000000
    PCM Polarization Energy =               0.0000000000000000
    EFP Energy =                            0.0000000000000000
    Total Energy =                       -457.3286374930320335
    Molecular point group: c1
  Basis Set: 6-31G*
  Basis Set:

  -Total Gradient:
     Atom            X                  Y                   Z
    ------   -----------------  -----------------  -----------------
       1        0.000000815324    -0.000000865157     0.000003651615
       2       -0.000028938339     0.000021380510    -0.000031189977
       3        0.000036599544     0.000020883288     0.000028613254
       4        0.000001241432    -0.000032911665     0.000002798717
       5       -0.000002367006    -0.000001903741    -0.000002185588
       6       -0.000003929410    -0.000043339908     0.000004492341
       7       -0.000001234290     0.000003150114    -0.000001154528
       8        0.000026896838     0.000027167853     0.000030164359
       9        0.000000163442     0.000004028684    -0.000000053183
      10       -0.000009665292     0.000262767655    -0.000722712658
      11        0.000001112871    -0.000008610882    -0.000002270018
      12        0.000151937967    -0.000398172592     0.001508240825
      13       -0.000507912158     0.000183514517    -0.001558455447
      14        0.000002564933    -0.000004835082    -0.000003652726
      15        0.000348333081    -0.000043052385     0.000726170984
      16       -0.000006262313     0.000003630116     0.000001349002
      17       -0.000006846177     0.000005005925     0.000001878903
      18       -0.000002510443     0.000002162754     0.000014314129

  **** Optimization is complete! (in 23 steps) ****
    Final optimized geometry and variables:
    Molecular point group: c1

    Geometry (in Angstrom), charge = 0, multiplicity = 1:

    H            1.295073026250     3.382157714886     1.390991275518
    C            0.874443823920     2.462124183672     1.026652559764
    C           -0.231102417121     2.488774974358     0.190529851749
    C            1.431494065255     1.250386685324     1.402457843861
    H           -0.669905669463     3.427835520445    -0.094027272617
    C           -0.780191831771     1.304473752716    -0.267831785521
    H            2.276400715844     1.226998549591     2.066596619721
    C            0.897146411259     0.065682515953     0.924920739573
    H           -1.653292699907     1.312194929844    -0.892710979475
    C           -0.207042517087     0.087922760300     0.081948452857
    H            1.323458376264    -0.871210959883     1.232476947742
    C           -0.873560602347    -1.168483939457    -0.394220978339
    O           -0.112959234184    -2.202010963781    -0.761989400572
    O           -2.053362009595    -1.269828684969    -0.431908993956
    C            1.180179742399    -2.060137735204    -1.314566519908
    H            1.316992164899    -1.092487374764    -1.775962941102
    H            1.270875575647    -2.830904463474    -2.065224744106
    H            1.938578264973    -2.210069435050    -0.559064523892

  Mulliken Charges: (a.u.)
   Center  Symbol    Alpha    Beta     Spin     Total
       1     H     0.39415  0.39415  0.00000  0.21169
       2     C     3.09331  3.09331  0.00000 -0.18662
       3     C     3.10364  3.10364  0.00000 -0.20729
       4     C     3.10326  3.10326  0.00000 -0.20651
       5     H     0.39354  0.39354  0.00000  0.21291
       6     C     3.08964  3.08964  0.00000 -0.17928
       7     H     0.39472  0.39472  0.00000  0.21055
       8     C     3.09761  3.09761  0.00000 -0.19522
       9     H     0.37943  0.37943  0.00000  0.24114
      10     C     3.06934  3.06934  0.00000 -0.13868
      11     H     0.38900  0.38900  0.00000  0.22200
      12     C     2.60290  2.60290  0.00000  0.79421
      13     O     4.30686  4.30686  0.00000 -0.61371
      14     O     4.26215  4.26215  0.00000 -0.52430
      15     C     3.09204  3.09204  0.00000 -0.18408
      16     H     0.41095  0.41095  0.00000  0.17810
      17     H     0.40132  0.40132  0.00000  0.19735
      18     H     0.41613  0.41613  0.00000  0.16774

   Total alpha = 36.00000, Total beta = 36.00000, Total charge = -0.00000
