  ==> Input File <==

--------------------------------------------------------------------------
set {
	reference rhf
	basis 6-31G*
}

set_num_threads( 4 )
memory 2 gb

molecule MOL {
0 1

O	 1.214711	 1.306902	 -0.000018
C	 1.122059	 0.121804	 -0.000188
C	 -0.170150	 -0.657997	 -0.000612
O	 2.172624	 -0.688929	 0.000216
C	 -1.412532	 0.227344	 -0.000452
H	 -0.153702	 -1.313099	 -0.867402
H	 -0.153924	 -1.313811	 0.865644
C	 -1.650165	 0.895932	 -1.355401
H	 -1.312974	 0.984452	 0.771157
H	 -2.277577	 -0.369120	 0.272366
C	 -2.893741	 1.783874	 -1.364486
H	 -0.780161	 1.491625	 -1.624322
H	 -1.746603	 0.132967	 -2.125242
H	 -2.812907	 2.578284	 -0.628257
H	 -3.039114	 2.245830	 -2.335949
H	 -3.786310	 1.209812	 -1.133373
C	 3.452279	 -0.082609	 0.000533
H	 3.583069	 0.529321	 -0.880332
H	 4.163299	 -0.894027	 0.001117
H	 3.582335	 0.529955	 0.881077

	symmetry c1
}
set optking {
	frozen_dihedral = ("
		9 5 3 6
	")
}

ee = optimize('scf')
oeprop('DIPOLE', 'QUADRUPOLE', 'MULLIKEN_CHARGES')
f=open( 'psi4out.xyz', 'w' )
f.write( "20  " )
f.write( str(ee) + "\n" )
f.write( MOL.save_string_xyz() )
f.close()
--------------------------------------------------------------------------

    Molecular point group: c1
  Charge       = 0
  Multiplicity = 1
  Basis Set: 6-31G*
  Basis Set:
  @DF-RHF Final Energy:  -383.94077075063547
    Total Energy =                       -383.9407707506351244
    Molecular point group: c1
  Basis Set: 6-31G*
  Basis Set:
  Basis Set: 6-31G*
  Basis Set:
  @DF-RHF Final Energy:  -383.94105502051838
    Total Energy =                       -383.9410550205187747
  Basis Set: 6-31G*
  Basis Set:
  Basis Set: 6-31G*
  Basis Set:
  @DF-RHF Final Energy:  -383.93980466517075
    Total Energy =                       -383.9398046651705272
  Basis Set: 6-31G*
  Basis Set:
  Basis Set: 6-31G*
  Basis Set:
  @DF-RHF Final Energy:  -383.94116797027954
    Total Energy =                       -383.9411679702799347
  Basis Set: 6-31G*
  Basis Set:
  Basis Set: 6-31G*
  Basis Set:
  @DF-RHF Final Energy:  -383.94119545106577
    Total Energy =                       -383.9411954510660507
  Basis Set: 6-31G*
  Basis Set:
  Basis Set: 6-31G*
  Basis Set:
  @DF-RHF Final Energy:  -383.94120375853907
    Total Energy =                       -383.9412037585391317
  Basis Set: 6-31G*
  Basis Set:
  Charge       = 0
  Multiplicity = 1
  Basis Set: 6-31G*
  Basis Set:

    Orbital Energies (a.u.)
    -----------------------

    Doubly Occupied:

       1A    -20.604723     2A    -20.546337     3A    -11.373233
       4A    -11.281511     5A    -11.235914     6A    -11.219622
       7A    -11.213973     8A    -11.206992     9A     -1.470411
      10A     -1.363585    11A     -1.086681    12A     -1.021988
      13A     -0.968842    14A     -0.884017    15A     -0.805082
      16A     -0.766091    17A     -0.702004    18A     -0.680916
      19A     -0.672348    20A     -0.630852    21A     -0.607421
      22A     -0.587216    23A     -0.579497    24A     -0.541724
      25A     -0.532489    26A     -0.516849    27A     -0.512263
      28A     -0.476149    29A     -0.471211    30A     -0.462288
      31A     -0.455764    32A     -0.436708

  @DF-RHF Final Energy:  -383.94120359648480

   => Energetics <=

    Nuclear Repulsion Energy =            388.5248301944385503
    One-Electron Energy =               -1293.1026693702283410
    Two-Electron Energy =                 520.6366355793051071
    DFT Exchange-Correlation Energy =       0.0000000000000000
    Empirical Dispersion Energy =           0.0000000000000000
    PCM Polarization Energy =               0.0000000000000000
    EFP Energy =                            0.0000000000000000
    Total Energy =                       -383.9412035964846837
    Molecular point group: c1
  Basis Set: 6-31G*
  Basis Set:

  -Total Gradient:
     Atom            X                  Y                   Z
    ------   -----------------  -----------------  -----------------
       1        0.000031200852    -0.000047659851     0.000034678613
       2       -0.000081176139     0.000072198207    -0.000074991782
       3       -0.000542938486    -0.000614626598     0.000386498875
       4        0.000045627784     0.000004298597     0.000028889137
       5       -0.000317576568    -0.000428186137     0.000558257170
       6        0.000422252320     0.000553745295    -0.000427932942
       7       -0.000002371072    -0.000031562933     0.000001489634
       8        0.000008703928     0.000023730641     0.000006844432
       9        0.000396084669     0.000499281666    -0.000521507923
      10        0.000003355154     0.000021447125     0.000013283981
      11        0.000011678318    -0.000025472027    -0.000009299063
      12       -0.000033743618     0.000040124675     0.000010734356
      13        0.000032427951    -0.000013111403    -0.000007968494
      14        0.000025476741    -0.000006795232    -0.000009453882
      15        0.000005597251    -0.000029943086     0.000007331891
      16       -0.000015617076    -0.000016517915     0.000006290050
      17        0.000011842534     0.000000098945    -0.000008311817
      18        0.000000481152    -0.000001134641    -0.000000404370
      19       -0.000000983549     0.000000419096     0.000002221238
      20       -0.000000322147    -0.000000334424     0.000003350895

  **** Optimization is complete! (in 7 steps) ****
    Final optimized geometry and variables:
    Molecular point group: c1

    Geometry (in Angstrom), charge = 0, multiplicity = 1:

    O            0.971439062090     0.927106952666     0.550175189822
    C            0.861697575328    -0.246203653941     0.390377004583
    C           -0.439152150807    -1.014792854739     0.362389661435
    O            1.900614970769    -1.056349023674     0.235757523145
    C           -1.680292929561    -0.125082017146     0.315007599449
    H           -0.403545521443    -1.693753786241    -0.483719093404
    H           -0.443574029044    -1.641092942230     1.250852377401
    C           -1.917099841962     0.521552975445    -1.051813854717
    H           -1.590386067640     0.649893251640     1.068542150341
    H           -2.544683211465    -0.729202772842     0.579044258335
    C           -3.171020594116     1.394114733655    -1.077831267006
    H           -1.054722992819     1.123520234272    -1.319930789592
    H           -2.004424108364    -0.257413540080    -1.807283522878
    H           -3.096713087435     2.204682250774    -0.358928950868
    H           -3.321550209798     1.834606364404    -2.058434943804
    H           -4.058503963015     0.815901618706    -0.835152601529
    C            3.187759627354    -0.467035277945     0.275827638059
    H            3.295960377423     0.262569165875    -0.513699220649
    H            3.887149724370    -1.276402299010     0.135661738787
    H            3.356466046045     0.013039276035     1.229008042817

  Mulliken Charges: (a.u.)
   Center  Symbol    Alpha    Beta     Spin     Total
       1     O     4.28705  4.28705  0.00000 -0.57410
       2     C     2.60673  2.60673  0.00000  0.78654
       3     C     3.20881  3.20881  0.00000 -0.41763
       4     O     4.30623  4.30623  0.00000 -0.61245
       5     C     3.15429  3.15429  0.00000 -0.30857
       6     H     0.40070  0.40070  0.00000  0.19861
       7     H     0.39772  0.39772  0.00000  0.20457
       8     C     3.15684  3.15684  0.00000 -0.31367
       9     H     0.40680  0.40680  0.00000  0.18639
      10     H     0.41966  0.41966  0.00000  0.16068
      11     C     3.24026  3.24026  0.00000 -0.48051
      12     H     0.40983  0.40983  0.00000  0.18035
      13     H     0.42601  0.42601  0.00000  0.14798
      14     H     0.41838  0.41838  0.00000  0.16324
      15     H     0.41884  0.41884  0.00000  0.16233
      16     H     0.42327  0.42327  0.00000  0.15347
      17     C     3.09240  3.09240  0.00000 -0.18481
      18     H     0.40886  0.40886  0.00000  0.18228
      19     H     0.40830  0.40830  0.00000  0.18340
      20     H     0.40904  0.40904  0.00000  0.18191

   Total alpha = 32.00000, Total beta = 32.00000, Total charge = -0.00000
