  ==> Input File <==

--------------------------------------------------------------------------
set {
	reference rhf
	basis 6-31G*
}

set_num_threads( 1 )
memory 2 gb

molecule MOL {
0 1

O	 0.302788	 0.125641	 0.861102
C	 1.122059	 0.121804	 -0.000188
C	 1.119304	 1.012298	 -1.218756
O	 2.172624	 -0.688929	 0.000216
C	 -0.070138	 1.966213	 -1.269877
H	 2.060292	 1.555662	 -1.225890
H	 1.144250	 0.366916	 -2.092607
C	 -0.048747	 2.856020	 -2.513723
H	 -0.073780	 2.582705	 -0.376328
H	 -0.991204	 1.392226	 -1.243797
C	 -1.237697	 3.814047	 -2.573592
H	 0.876512	 3.428300	 -2.535344
H	 -0.042558	 2.233272	 -3.406033
H	 -1.252345	 4.474145	 -1.711206
H	 -1.198406	 4.433224	 -3.464295
H	 -2.177936	 3.270575	 -2.588742
C	 3.452279	 -0.082609	 0.000533
H	 3.583069	 0.529321	 -0.880332
H	 4.163299	 -0.894027	 0.001117
H	 3.582335	 0.529955	 0.881077

	symmetry c1
}
set optking {
	frozen_dihedral = ("
		9 5 8 12,
		1 2 3 6,
		9 5 3 6
	")
}

ee = energy('scf')
oeprop('DIPOLE', 'QUADRUPOLE', 'MULLIKEN_CHARGES')
f=open( 'psi4out.xyz', 'w' )
f.write( "20  " )
f.write( str(ee) + "\n" )
f.write( MOL.save_string_xyz() )
f.close()
--------------------------------------------------------------------------

    Molecular point group: c1

    Geometry (in Angstrom), charge = 0, multiplicity = 1:

       Center              X                  Y                   Z               Mass
    ------------   -----------------  -----------------  -----------------  -----------------
           O         -0.570615599139    -1.005722051651     1.687391658868    15.994914619560
           C          0.248655400861    -1.009559051651     0.826101658868    12.000000000000
           C          0.245900400861    -0.119065051651    -0.392466341132    12.000000000000
           O          1.299220400861    -1.820292051651     0.826505658868    15.994914619560
           C         -0.943541599139     0.834849948349    -0.443587341132    12.000000000000
           H          1.186888400861     0.424298948349    -0.399600341132     1.007825032070
           H          0.270846400861    -0.764447051651    -1.266317341132     1.007825032070
           C         -0.922150599139     1.724656948349    -1.687433341132    12.000000000000
           H         -0.947183599139     1.451341948349     0.449961658868     1.007825032070
           H         -1.864607599139     0.260862948349    -0.417507341132     1.007825032070
           C         -2.111100599139     2.682683948349    -1.747302341132    12.000000000000
           H          0.003108400861     2.296936948349    -1.709054341132     1.007825032070
           H         -0.915961599139     1.101908948349    -2.579743341132     1.007825032070
           H         -2.125748599139     3.342781948349    -0.884916341132     1.007825032070
           H         -2.071809599139     3.301860948349    -2.638005341132     1.007825032070
           H         -3.051339599139     2.139211948349    -1.762452341132     1.007825032070
           C          2.578875400861    -1.213972051651     0.826822658868    12.000000000000
           H          2.709665400861    -0.602042051651    -0.054042341132     1.007825032070
           H          3.289895400861    -2.025390051651     0.827406658868     1.007825032070
           H          2.708931400861    -0.601408051651     1.707366658868     1.007825032070

  Charge       = 0
  Multiplicity = 1
  Basis Set: 6-31G*
  Basis Set:

    Orbital Energies (a.u.)
    -----------------------

    Doubly Occupied:

       1A    -20.592957     2A    -20.553173     3A    -11.374276
       4A    -11.297290     5A    -11.238686     6A    -11.222911
       7A    -11.221775     8A    -11.212622     9A     -1.465025
      10A     -1.369391    11A     -1.090277    12A     -1.017886
      13A     -0.983085    14A     -0.901429    15A     -0.809668
      16A     -0.768058    17A     -0.697070    18A     -0.682150
      19A     -0.681274    20A     -0.648190    21A     -0.618933
      22A     -0.590764    23A     -0.585650    24A     -0.557492
      25A     -0.539791    26A     -0.519649    27A     -0.494644
      28A     -0.483051    29A     -0.479718    30A     -0.473072
      31A     -0.454558    32A     -0.431468

  @DF-RHF Final Energy:  -383.91611327925000

   => Energetics <=

    Nuclear Repulsion Energy =            384.5443040127036056
    One-Electron Energy =               -1284.8088664625011006
    Two-Electron Energy =                 516.3484491705472692
    DFT Exchange-Correlation Energy =       0.0000000000000000
    Empirical Dispersion Energy =           0.0000000000000000
    PCM Polarization Energy =               0.0000000000000000
    EFP Energy =                            0.0000000000000000
    Total Energy =                       -383.9161132792502258

  Mulliken Charges: (a.u.)
   Center  Symbol    Alpha    Beta     Spin     Total
       1     O     4.26009  4.26009  0.00000 -0.52018
       2     C     2.60721  2.60721  0.00000  0.78557
       3     C     3.22567  3.22567  0.00000 -0.45134
       4     O     4.30526  4.30526  0.00000 -0.61052
       5     C     3.14958  3.14958  0.00000 -0.29917
       6     H     0.40722  0.40722  0.00000  0.18556
       7     H     0.39875  0.39875  0.00000  0.20250
       8     C     3.15396  3.15396  0.00000 -0.30791
       9     H     0.41253  0.41253  0.00000  0.17494
      10     H     0.41008  0.41008  0.00000  0.17984
      11     C     3.23943  3.23943  0.00000 -0.47887
      12     H     0.42467  0.42467  0.00000  0.15066
      13     H     0.42295  0.42295  0.00000  0.15411
      14     H     0.41993  0.41993  0.00000  0.16013
      15     H     0.41868  0.41868  0.00000  0.16263
      16     H     0.41922  0.41922  0.00000  0.16157
      17     C     3.09788  3.09788  0.00000 -0.19576
      18     H     0.41738  0.41738  0.00000  0.16525
      19     H     0.39873  0.39873  0.00000  0.20254
      20     H     0.41077  0.41077  0.00000  0.17846

   Total alpha = 32.00000, Total beta = 32.00000, Total charge =  0.00000
