  ==> Input File <==

--------------------------------------------------------------------------
set {
	reference rhf
	basis 6-31G*
}

set_num_threads( 1 )
memory 2 gb

molecule MOL {
0 1

H	 -2.172150	 0.880146	 0.502514
C	 -2.018062	 -0.000025	 -0.114509
O	 -0.774054	 0.001095	 -0.743181
H	 -2.760490	 0.003458	 -0.901350
H	 -2.173624	 -0.884374	 0.496163
C	 0.143254	 1.048151	 -0.480973
C	 1.355842	 0.688624	 -1.336767
C	 -0.423309	 2.402082	 -0.920366
C	 0.538733	 1.079040	 0.998810
H	 1.073455	 0.639692	 -2.382374
H	 1.742786	 -0.281755	 -1.046916
H	 2.145475	 1.424549	 -1.224711
H	 -0.766728	 2.349634	 -1.948151
H	 0.341714	 3.168926	 -0.854861
H	 -1.253822	 2.719288	 -0.298930
H	 0.871519	 0.097363	 1.319146
H	 1.349770	 1.782514	 1.156526
H	 -0.284024	 1.385162	 1.635985

	symmetry c1
}
set optking {
	frozen_dihedral = ("
		2 3 6 7
	")
}

ee = energy('scf')
oeprop('DIPOLE', 'QUADRUPOLE', 'MULLIKEN_CHARGES')
f=open( 'psi4out.xyz', 'w' )
f.write( "18  " )
f.write( str(ee) + "\n" )
f.write( MOL.save_string_xyz() )
f.close()
--------------------------------------------------------------------------

    Molecular point group: c1

    Geometry (in Angstrom), charge = 0, multiplicity = 1:

       Center              X                  Y                   Z               Mass
    ------------   -----------------  -----------------  -----------------  -----------------
           H         -1.955047413461     0.017147288163     0.930576185964     1.007825032070
           C         -1.800959413461    -0.863023711837     0.313553185964    12.000000000000
           O         -0.556951413461    -0.861903711837    -0.315118814036    15.994914619560
           H         -2.543387413461    -0.859540711837    -0.473287814036     1.007825032070
           H         -1.956521413461    -1.747372711837     0.924225185964     1.007825032070
           C          0.360356586539     0.185152288163    -0.052910814036    12.000000000000
           C          1.572944586539    -0.174374711837    -0.908704814036    12.000000000000
           C         -0.206206413461     1.539083288163    -0.492303814036    12.000000000000
           C          0.755835586539     0.216041288163     1.426872185964    12.000000000000
           H          1.290557586539    -0.223306711837    -1.954311814036     1.007825032070
           H          1.959888586539    -1.144753711837    -0.618853814036     1.007825032070
           H          2.362577586539     0.561550288163    -0.796648814036     1.007825032070
           H         -0.549625413461     1.486635288163    -1.520088814036     1.007825032070
           H          0.558816586539     2.305927288163    -0.426798814036     1.007825032070
           H         -1.036719413461     1.856289288163     0.129132185964     1.007825032070
           H          1.088621586539    -0.765635711837     1.747208185964     1.007825032070
           H          1.566872586539     0.919515288163     1.584588185964     1.007825032070
           H         -0.066921413461     0.522163288163     2.064047185964     1.007825032070

  Charge       = 0
  Multiplicity = 1
  Basis Set: 6-31G*
  Basis Set:

    Orbital Energies (a.u.)
    -----------------------

    Doubly Occupied:

       1A    -20.544360     2A    -11.282087     3A    -11.260317
       4A    -11.208854     5A    -11.208794     6A    -11.203269
       7A     -1.369123     8A     -1.073021     9A     -0.946166
      10A     -0.939801    11A     -0.912035    12A     -0.752807
      13A     -0.655468    14A     -0.643836    15A     -0.639378
      16A     -0.589391    17A     -0.572307    18A     -0.551482
      19A     -0.539145    20A     -0.523635    21A     -0.515271
      22A     -0.489959    23A     -0.486264    24A     -0.438375
      25A     -0.400625

  @DF-RHF Final Energy:  -271.17237402463519

   => Energetics <=

    Nuclear Repulsion Energy =            272.3329577121866691
    One-Electron Energy =                -907.5186991315853220
    Two-Electron Energy =                 364.0133673947636908
    DFT Exchange-Correlation Energy =       0.0000000000000000
    Empirical Dispersion Energy =           0.0000000000000000
    PCM Polarization Energy =               0.0000000000000000
    EFP Energy =                            0.0000000000000000
    Total Energy =                       -271.1723740246350189

  Mulliken Charges: (a.u.)
   Center  Symbol    Alpha    Beta     Spin     Total
       1     H     0.43045  0.43045  0.00000  0.13911
       2     C     3.07626  3.07626  0.00000 -0.15252
       3     O     4.32108  4.32108  0.00000 -0.64217
       4     H     0.42026  0.42026  0.00000  0.15948
       5     H     0.42142  0.42142  0.00000  0.15716
       6     C     2.84469  2.84469  0.00000  0.31061
       7     C     3.23299  3.23299  0.00000 -0.46598
       8     C     3.24577  3.24577  0.00000 -0.49154
       9     C     3.24556  3.24556  0.00000 -0.49112
      10     H     0.41407  0.41407  0.00000  0.17185
      11     H     0.41397  0.41397  0.00000  0.17206
      12     H     0.42522  0.42522  0.00000  0.14955
      13     H     0.41324  0.41324  0.00000  0.17353
      14     H     0.41987  0.41987  0.00000  0.16026
      15     H     0.42090  0.42090  0.00000  0.15820
      16     H     0.41318  0.41318  0.00000  0.17365
      17     H     0.42000  0.42000  0.00000  0.16000
      18     H     0.42106  0.42106  0.00000  0.15787

   Total alpha = 25.00000, Total beta = 25.00000, Total charge = -0.00000
