  ==> Input File <==

--------------------------------------------------------------------------
set {
	reference rhf
	basis 6-31G*
}

set_num_threads( 1 )
memory 2 gb

molecule MOL {
0 1

H	 -2.234725	 -0.520944	 -0.701537
O	 -2.035884	 -0.060112	 0.102722
C	 -0.955155	 0.788182	 -0.092531
C	 0.353668	 0.040312	 -0.004810
H	 -0.985057	 1.290372	 -1.054184
H	 -0.974469	 1.533190	 0.688632
F	 0.394464	 -0.937475	 -0.903053
F	 1.368604	 0.853376	 -0.249821
F	 0.546173	 -0.502608	 1.179981

	symmetry c1
}
set optking {
	frozen_dihedral = ("
		7 4 3 5
	")
}

ee = energy('scf')
oeprop('DIPOLE', 'QUADRUPOLE', 'MULLIKEN_CHARGES')
f=open( 'psi4out.xyz', 'w' )
f.write( "9  " )
f.write( str(ee) + "\n" )
f.write( MOL.save_string_xyz() )
f.close()
--------------------------------------------------------------------------

    Molecular point group: c1

    Geometry (in Angstrom), charge = 0, multiplicity = 1:

       Center              X                  Y                   Z               Mass
    ------------   -----------------  -----------------  -----------------  -----------------
           H         -2.233357043588    -0.522489605724    -0.700681999576     1.007825032070
           O         -2.034516043588    -0.061657605724     0.103577000424    15.994914619560
           C         -0.953787043588     0.786636394276    -0.091675999576    12.000000000000
           C          0.355035956412     0.038766394276    -0.003954999576    12.000000000000
           H         -0.983689043588     1.288826394276    -1.053328999576     1.007825032070
           H         -0.973101043588     1.531644394276     0.689487000424     1.007825032070
           F          0.395831956412    -0.939020605724    -0.902197999576    18.998403224000
           F          1.369971956412     0.851830394276    -0.248965999576    18.998403224000
           F          0.547540956412    -0.504153605724     1.180836000424    18.998403224000

  Charge       = 0
  Multiplicity = 1
  Basis Set: 6-31G*
  Basis Set:

    Orbital Energies (a.u.)
    -----------------------

    Doubly Occupied:

       1A    -26.341814     2A    -26.339523     3A    -26.336941
       4A    -20.590854     5A    -11.497797     6A    -11.309782
       7A     -1.737521     8A     -1.636571     9A     -1.633838
      10A     -1.402689    11A     -1.047445    12A     -0.921638
      13A     -0.827960    14A     -0.826566    15A     -0.800645
      16A     -0.730286    17A     -0.709349    18A     -0.697678
      19A     -0.662651    20A     -0.656086    21A     -0.639918
      22A     -0.628886    23A     -0.608720    24A     -0.532732
      25A     -0.480396

  @DF-RHF Final Energy:  -450.66244188645123

   => Energetics <=

    Nuclear Repulsion Energy =            276.8629940378548326
    One-Electron Energy =               -1175.8543027371401877
    Two-Electron Energy =                 448.3288668128341783
    DFT Exchange-Correlation Energy =       0.0000000000000000
    Empirical Dispersion Energy =           0.0000000000000000
    PCM Polarization Energy =               0.0000000000000000
    EFP Energy =                            0.0000000000000000
    Total Energy =                       -450.6624418864511767

  Mulliken Charges: (a.u.)
   Center  Symbol    Alpha    Beta     Spin     Total
       1     H     0.27204  0.27204  0.00000  0.45592
       2     O     4.36059  4.36059  0.00000 -0.72118
       3     C     3.05779  3.05779  0.00000 -0.11558
       4     C     2.45999  2.45999  0.00000  1.08003
       5     H     0.40963  0.40963  0.00000  0.18074
       6     H     0.39623  0.39623  0.00000  0.20755
       7     F     4.68621  4.68621  0.00000 -0.37242
       8     F     4.68216  4.68216  0.00000 -0.36432
       9     F     4.67537  4.67537  0.00000 -0.35074

   Total alpha = 25.00000, Total beta = 25.00000, Total charge = -0.00000
