  ==> Input File <==

--------------------------------------------------------------------------
set {
	reference rhf
	basis cc-pvtz
}

set_num_threads( 4 )
memory 2 gb

molecule MOL {
0 1

H	 -2.644180	 -0.653737	 1.272255
C	 -2.092774	 -0.380414	 0.391915
O	 -0.808934	 -0.154049	 0.752536
F	 -2.163230	 -1.351640	 -0.507133
F	 -2.627232	 0.691260	 -0.169301
C	 0.085006	 0.250800	 -0.215074
C	 1.370439	 -0.548013	 -0.012993
Cl	 0.421658	 1.987697	 -0.091007
H	 -0.272219	 0.063284	 -1.212508
F	 1.780835	 -1.050859	 -1.149542
F	 1.129839	 -1.544127	 0.806265
F	 2.329021	 0.176996	 0.494681

	symmetry c1
}
set optking {
	frozen_dihedral = ("
		10 7 6 9
	")
}

ee = optimize('scf')
oeprop('DIPOLE', 'QUADRUPOLE', 'MULLIKEN_CHARGES')
f=open( 'psi4out.xyz', 'w' )
f.write( "12  " )
f.write( str(ee) + "\n" )
f.write( MOL.save_string_xyz() )
f.close()
--------------------------------------------------------------------------

    Molecular point group: c1
  Charge       = 0
  Multiplicity = 1
  Basis Set: CC-PVTZ
  Basis Set:
  @DF-RHF Final Energy: -1146.60970685295797
    Total Energy =                      -1146.6097068529577427
    Molecular point group: c1
  Basis Set: CC-PVTZ
  Basis Set:
  Basis Set: CC-PVTZ
  Basis Set:
  @DF-RHF Final Energy: -1146.61004354235365
    Total Energy =                      -1146.6100435423554700
  Basis Set: CC-PVTZ
  Basis Set:
  Basis Set: CC-PVTZ
  Basis Set:
  @DF-RHF Final Energy: -1146.61192471689697
    Total Energy =                      -1146.6119247168969650
  Basis Set: CC-PVTZ
  Basis Set:
  Basis Set: CC-PVTZ
  Basis Set:
  @DF-RHF Final Energy: -1146.61202098321769
    Total Energy =                      -1146.6120209832163255
  Basis Set: CC-PVTZ
  Basis Set:
  @DF-RHF Final Energy: -1146.61203722670871
    Total Energy =                      -1146.6120372267087077
  @DF-RHF Final Energy: -1146.61204820230387
    Total Energy =                      -1146.6120482023038676
  Basis Set: CC-PVTZ
  Basis Set:
  @DF-RHF Final Energy: -1146.61206147523535
    Total Energy =                      -1146.6120614752362599
  Basis Set: CC-PVTZ
  Basis Set:
  Basis Set: CC-PVTZ
  Basis Set:
  @DF-RHF Final Energy: -1146.61206642467982
    Total Energy =                      -1146.6120664246800516
  Basis Set: CC-PVTZ
  Basis Set:
  Basis Set: CC-PVTZ
  Basis Set:
  @DF-RHF Final Energy: -1146.61206758852995
    Total Energy =                      -1146.6120675885306355
  Basis Set: CC-PVTZ
  Basis Set:
  Charge       = 0
  Multiplicity = 1
  Basis Set: CC-PVTZ
  Basis Set:

    Orbital Energies (a.u.)
    -----------------------

    Doubly Occupied:

       1A   -104.854947     2A    -26.354604     3A    -26.353634
       4A    -26.351763     5A    -26.343831     6A    -26.343605
       7A    -20.640227     8A    -11.522432     9A    -11.484370
      10A    -11.402406    11A    -10.580545    12A     -8.047316
      13A     -8.045357    14A     -8.045262    15A     -1.768462
      16A     -1.725151    17A     -1.663197    18A     -1.659754
      19A     -1.645226    20A     -1.487773    21A     -1.175003
      22A     -1.048086    23A     -0.992004    24A     -0.924483
      25A     -0.862670    26A     -0.858859    27A     -0.851844
      28A     -0.831853    29A     -0.820317    30A     -0.795768
      31A     -0.734149    32A     -0.732862    33A     -0.710857
      34A     -0.708512    35A     -0.685243    36A     -0.679992
      37A     -0.665401    38A     -0.662759    39A     -0.650865
      40A     -0.634665    41A     -0.598882    42A     -0.579313
      43A     -0.523327    44A     -0.477053    45A     -0.468161

  @DF-RHF Final Energy: -1146.61206773823187

   => Energetics <=

    Nuclear Repulsion Energy =            735.9567530844124121
    One-Electron Energy =               -3055.1520564922943777
    Two-Electron Energy =                1172.5832356696500938
    DFT Exchange-Correlation Energy =       0.0000000000000000
    Empirical Dispersion Energy =           0.0000000000000000
    PCM Polarization Energy =               0.0000000000000000
    EFP Energy =                            0.0000000000000000
    Total Energy =                      -1146.6120677382318718
    Molecular point group: c1
  Basis Set: CC-PVTZ
  Basis Set:

  -Total Gradient:
     Atom            X                  Y                   Z
    ------   -----------------  -----------------  -----------------
       1        0.000007145567    -0.000000371166     0.000001905743
       2       -0.000030212946    -0.000007728193    -0.000023184153
       3        0.000026535178     0.000027754528     0.000004243742
       4       -0.000002091195     0.000019774171     0.000007971454
       5        0.000005733211    -0.000014937018     0.000002488594
       6       -0.004002925695    -0.005643329859     0.002070991647
       7        0.003535297157     0.005126327738    -0.001108857136
       8        0.000014698760    -0.000011784578    -0.000003956387
       9        0.002777665253     0.003894121280    -0.001574129930
      10       -0.002319918721    -0.003367262135     0.000605381046
      11       -0.000005495604    -0.000004565852     0.000004512991
      12       -0.000006430955    -0.000017998892     0.000012632387

  **** Optimization is complete! (in 10 steps) ****
    Final optimized geometry and variables:
    Molecular point group: c1

    Geometry (in Angstrom), charge = 0, multiplicity = 1:

    H           -2.681890014223    -0.588172750696     1.264043870297
    C           -2.096454100540    -0.371958662814     0.389893973841
    O           -0.848552299253    -0.039457500481     0.789079667899
    F           -2.066516823683    -1.428854290242    -0.410024046034
    F           -2.652948221334     0.608284044528    -0.303065704833
    C            0.071120780670     0.305301256094    -0.173342973858
    C            1.359091240078    -0.548928258162    -0.010235134111
    CL           0.438399208947     2.041123472759    -0.073651426442
    H           -0.284141351204     0.155274319274    -1.175752234890
    F            1.711927201545    -0.997966465039    -1.195389103152
    F            1.125156589560    -1.590623212399     0.745692604633
    F            2.368019427178     0.097233542952     0.499018416004

  Mulliken Charges: (a.u.)
   Center  Symbol    Alpha    Beta     Spin     Total
       1     H     0.45140  0.45140  0.00000  0.09721
       2     C     2.73806  2.73806  0.00000  0.52389
       3     O     4.14990  4.14990  0.00000 -0.29979
       4     F     4.61830  4.61830  0.00000 -0.23661
       5     F     4.61576  4.61576  0.00000 -0.23151
       6     C     2.95988  2.95988  0.00000  0.08023
       7     C     2.66228  2.66228  0.00000  0.67544
       8    CL     8.57130  8.57130  0.00000 -0.14260
       9     H     0.43171  0.43171  0.00000  0.13658
      10     F     4.60705  4.60705  0.00000 -0.21410
      11     F     4.60000  4.60000  0.00000 -0.20000
      12     F     4.59437  4.59437  0.00000 -0.18875

   Total alpha = 45.00000, Total beta = 45.00000, Total charge = -0.00000
