  ==> Input File <==

--------------------------------------------------------------------------
set {
	reference rhf
	basis 6-31G*
}

set_num_threads( 4 )
memory 2 gb

molecule MOL {
0 1

H	 -3.407059	 -1.043082	 0.000000
O	 -3.119761	 -0.140267	 0.000000
C	 -1.777559	 -0.059267	 0.000000
C	 -1.091798	 0.886016	 -0.757083
C	 -1.083347	 -0.964302	 0.793125
H	 -1.637480	 1.583824	 -1.369133
C	 0.286230	 0.922434	 -0.717932
H	 -1.634810	 -1.683856	 1.367932
C	 0.294773	 -0.915316	 0.821755
H	 0.828196	 1.646411	 -1.296923
C	 0.995967	 0.023100	 0.071204
H	 0.833224	 -1.616438	 1.436215
C	 2.471000	 0.063438	 0.111976
O	 3.146521	 0.832839	 -0.498311
H	 2.935651	 -0.685054	 0.762380

	symmetry c1
}
set optking {
	frozen_dihedral = ("
		5 3 2 1
	")
}

ee = optimize('scf')
oeprop('DIPOLE', 'QUADRUPOLE', 'MULLIKEN_CHARGES')
f=open( 'psi4out.xyz', 'w' )
f.write( "15  " )
f.write( str(ee) + "\n" )
f.write( MOL.save_string_xyz() )
f.close()
--------------------------------------------------------------------------

    Molecular point group: c1
  Charge       = 0
  Multiplicity = 1
  Basis Set: 6-31G*
  Basis Set:
  @DF-RHF Final Energy:  -418.28551658493512
    Total Energy =                       -418.2855165849349532
    Molecular point group: c1
  Basis Set: 6-31G*
  Basis Set:
  Basis Set: 6-31G*
  Basis Set:
  @DF-RHF Final Energy:  -418.28726164629177
    Total Energy =                       -418.2872616462917676
  Basis Set: 6-31G*
  Basis Set:
  Basis Set: 6-31G*
  Basis Set:
  @DF-RHF Final Energy:  -418.28735787565546
    Total Energy =                       -418.2873578756550614
  Basis Set: 6-31G*
  Basis Set:
  Basis Set: 6-31G*
  Basis Set:
  @DF-RHF Final Energy:  -418.28617907580809
    Total Energy =                       -418.2861790758086045
  Basis Set: 6-31G*
  Basis Set:
  Basis Set: 6-31G*
  Basis Set:
  @DF-RHF Final Energy:  -418.28740960276940
    Total Energy =                       -418.2874096027692303
  Basis Set: 6-31G*
  Basis Set:
  Charge       = 0
  Multiplicity = 1
  Basis Set: 6-31G*
  Basis Set:

    Orbital Energies (a.u.)
    -----------------------

    Doubly Occupied:

       1A    -20.603967     2A    -20.557726     3A    -11.329272
       4A    -11.319592     5A    -11.262331     6A    -11.253476
       7A    -11.244922     8A    -11.241223     9A    -11.238712
      10A     -1.423492    11A     -1.398889    12A     -1.170643
      13A     -1.042306    14A     -1.036884    15A     -0.891467
      16A     -0.857111    17A     -0.801081    18A     -0.754661
      19A     -0.697726    20A     -0.682149    21A     -0.641383
      22A     -0.626010    23A     -0.617717    24A     -0.607306
      25A     -0.565861    26A     -0.553687    27A     -0.547461
      28A     -0.503812    29A     -0.483677    30A     -0.419794
      31A     -0.356237    32A     -0.332035

  @DF-RHF Final Energy:  -418.28741286625473

   => Energetics <=

    Nuclear Repulsion Energy =            401.1170933015007449
    One-Electron Energy =               -1364.6837917337768431
    Two-Electron Energy =                 545.2792855660211444
    DFT Exchange-Correlation Energy =       0.0000000000000000
    Empirical Dispersion Energy =           0.0000000000000000
    PCM Polarization Energy =               0.0000000000000000
    EFP Energy =                            0.0000000000000000
    Total Energy =                       -418.2874128662549538
    Molecular point group: c1
  Basis Set: 6-31G*
  Basis Set:

  -Total Gradient:
     Atom            X                  Y                   Z
    ------   -----------------  -----------------  -----------------
       1        0.000052455243    -0.000132513835    -0.003414462713
       2       -0.000110867518     0.001076079415     0.005330109013
       3        0.000205072105    -0.002502718583    -0.003977405065
       4       -0.000314363118    -0.000119190650     0.000069502655
       5        0.000173695562     0.001672514811     0.002003251140
       6        0.000008106054    -0.000011499874     0.000008472859
       7        0.000373926895    -0.000125811477     0.000166650875
       8       -0.000007100724    -0.000012344610     0.000006537749
       9       -0.000314220025    -0.000183765472     0.000060670678
      10       -0.000016377793     0.000010956118    -0.000015233079
      11       -0.000022666648     0.000320314857    -0.000293457973
      12        0.000000284251     0.000022974245     0.000005721082
      13        0.000028393442     0.000023463211     0.000102978465
      14       -0.000038256068    -0.000011410886    -0.000037050899
      15       -0.000018081660    -0.000027047269    -0.000016284784

  **** Optimization is complete! (in 6 steps) ****
    Final optimized geometry and variables:
    Molecular point group: c1

    Geometry (in Angstrom), charge = 0, multiplicity = 1:

    H           -3.469174985476    -1.035784023451     0.009580359927
    O           -3.120756438295    -0.154804762758    -0.008702013880
    C           -1.767972196793    -0.168054644948     0.022998145297
    C           -1.094495440495     0.791041369221    -0.726645202825
    C           -1.066995754019    -1.056216370688     0.824992087461
    H           -1.665222008824     1.472445795312    -1.328866967286
    C            0.280839553635     0.845092599039    -0.682946396829
    H           -1.598840565162    -1.775773537314     1.422162070973
    C            0.314984692517    -0.999544018372     0.851122198403
    H            0.816880438734     1.576544798331    -1.258020866127
    C            1.000954274367    -0.053567732975     0.103163212476
    H            0.860138820563    -1.692152541365     1.469172126344
    C            2.477031568205    -0.000331482689     0.145316881713
    O            3.145299822694     0.774737649491    -0.464845304050
    H            2.947985581846    -0.744878780556     0.795628002611

  Mulliken Charges: (a.u.)
   Center  Symbol    Alpha    Beta     Spin     Total
       1     H     0.26944  0.26944  0.00000  0.46113
       2     O     4.37706  4.37706  0.00000 -0.75412
       3     C     2.79501  2.79501  0.00000  0.40998
       4     C     3.12387  3.12387  0.00000 -0.24775
       5     C     3.13930  3.13930  0.00000 -0.27861
       6     H     0.38578  0.38578  0.00000  0.22845
       7     C     3.08123  3.08123  0.00000 -0.16245
       8     H     0.39586  0.39586  0.00000  0.20829
       9     C     3.09446  3.09446  0.00000 -0.18891
      10     H     0.37476  0.37476  0.00000  0.25048
      11     C     3.06490  3.06490  0.00000 -0.12980
      12     H     0.39001  0.39001  0.00000  0.21999
      13     C     2.83076  2.83076  0.00000  0.33849
      14     O     4.25278  4.25278  0.00000 -0.50557
      15     H     0.42480  0.42480  0.00000  0.15041

   Total alpha = 32.00000, Total beta = 32.00000, Total charge = -0.00000
