  ==> Input File <==

--------------------------------------------------------------------------
set {
	reference rhf
	basis 6-31G*
}

set_num_threads( 4 )
memory 2 gb

molecule MOL {
0 1

H	 -2.854801	 -0.172186	 -1.542455
O	 -3.452007	 0.283848	 -0.965577
C	 -3.181085	 -0.079926	 0.364119
C	 -1.765924	 0.277073	 0.805136
H	 -3.327791	 -1.152017	 0.410903
H	 -3.905698	 0.375695	 1.036898
C	 -0.677594	 -0.417312	 -0.014550
H	 -1.637766	 1.358238	 0.744969
H	 -1.659588	 0.017670	 1.857098
C	 0.738335	 -0.034840	 0.421385
H	 -0.814977	 -0.178223	 -1.064632
H	 -0.802730	 -1.495410	 0.071702
C	 1.822265	 -0.738362	 -0.399735
H	 0.853533	 1.043532	 0.342250
H	 0.871597	 -0.279636	 1.474438
C	 3.258060	 -0.455774	 0.057203
H	 1.718003	 -0.459167	 -1.447053
H	 1.651028	 -1.811884	 -0.354513
C	 3.709143	 0.994797	 -0.123830
H	 3.930637	 -1.101717	 -0.501982
H	 3.365259	 -0.739518	 1.102287
H	 3.601178	 1.310569	 -1.158127
H	 4.753787	 1.110486	 0.148516
H	 3.135362	 1.678896	 0.492569

	symmetry c1
}
set optking {
	frozen_dihedral = ("
		1 2 3 5
	")
}

ee = optimize('scf')
oeprop('DIPOLE', 'QUADRUPOLE', 'MULLIKEN_CHARGES')
f=open( 'psi4out.xyz', 'w' )
f.write( "24  " )
f.write( str(ee) + "\n" )
f.write( MOL.save_string_xyz() )
f.close()
--------------------------------------------------------------------------

    Molecular point group: c1
  Charge       = 0
  Multiplicity = 1
  Basis Set: 6-31G*
  Basis Set:
  @DF-RHF Final Energy:  -349.24489595934261
    Total Energy =                       -349.2448959593427276
    Molecular point group: c1
  Basis Set: 6-31G*
  Basis Set:
  Basis Set: 6-31G*
  Basis Set:
  @DF-RHF Final Energy:  -349.24652039122390
    Total Energy =                       -349.2465203912240668
  Basis Set: 6-31G*
  Basis Set:
  Basis Set: 6-31G*
  Basis Set:
  @DF-RHF Final Energy:  -349.24707199653812
    Total Energy =                       -349.2470719965380113
  Basis Set: 6-31G*
  Basis Set:
  Basis Set: 6-31G*
  Basis Set:
  @DF-RHF Final Energy:  -349.24708219016975
    Total Energy =                       -349.2470821901702038
  Basis Set: 6-31G*
  Basis Set:
  Basis Set: 6-31G*
  Basis Set:
  @DF-RHF Final Energy:  -349.24708546133508
    Total Energy =                       -349.2470854613354163
  Basis Set: 6-31G*
  Basis Set:
  Charge       = 0
  Multiplicity = 1
  Basis Set: 6-31G*
  Basis Set:

    Orbital Energies (a.u.)
    -----------------------

    Doubly Occupied:

       1A    -20.551843     2A    -11.266822     3A    -11.222223
       4A    -11.217858     5A    -11.217467     6A    -11.216727
       7A    -11.216453     8A    -11.209714     9A     -1.358892
      10A     -1.093647    11A     -1.051236    12A     -0.988397
      13A     -0.919835    14A     -0.854093    15A     -0.798515
      16A     -0.781267    17A     -0.691420    18A     -0.652966
      19A     -0.628344    20A     -0.609869    21A     -0.604585
      22A     -0.588420    23A     -0.562202    24A     -0.537534
      25A     -0.525451    26A     -0.512765    27A     -0.494056
      28A     -0.482878    29A     -0.477424    30A     -0.463289
      31A     -0.458210    32A     -0.444215    33A     -0.423940

  @DF-RHF Final Energy:  -349.24708591416123

   => Energetics <=

    Nuclear Repulsion Energy =            384.3639974992784687
    One-Electron Energy =               -1234.9770536050409646
    Two-Electron Energy =                 501.3659701916009794
    DFT Exchange-Correlation Energy =       0.0000000000000000
    Empirical Dispersion Energy =           0.0000000000000000
    PCM Polarization Energy =               0.0000000000000000
    EFP Energy =                            0.0000000000000000
    Total Energy =                       -349.2470859141615733
    Molecular point group: c1
  Basis Set: 6-31G*
  Basis Set:

  -Total Gradient:
     Atom            X                  Y                   Z
    ------   -----------------  -----------------  -----------------
       1        0.000555531934     0.000603886009     0.000035234563
       2       -0.000788932646    -0.000775842393     0.000039536246
       3        0.000888285413     0.000076400810    -0.000266371316
       4       -0.000026228653     0.000068943439    -0.000013142175
       5       -0.000638085677     0.000099265232     0.000143650731
       6        0.000004815321    -0.000025162672     0.000047730198
       7       -0.000056561245    -0.000005455225    -0.000041848608
       8        0.000058058760    -0.000000048675    -0.000004451021
       9        0.000005781653     0.000004030090    -0.000004052421
      10        0.000001199256    -0.000035836326     0.000027332846
      11       -0.000039063831     0.000021472552     0.000051565751
      12        0.000038635632    -0.000070352300     0.000012624188
      13        0.000000553042     0.000045587195    -0.000031728853
      14       -0.000040022861    -0.000023799750    -0.000010848964
      15        0.000003028699     0.000003473575     0.000000593281
      16       -0.000017042794     0.000009274588     0.000038745749
      17       -0.000001318303     0.000025217771     0.000006934051
      18        0.000016921772    -0.000005546319    -0.000020111990
      19        0.000019965253    -0.000002561354    -0.000018021840
      20       -0.000004442012    -0.000020955897     0.000014050448
      21       -0.000013953175     0.000022041039     0.000012085438
      22       -0.000010028664     0.000010126049    -0.000005349066
      23        0.000003935273    -0.000009169062    -0.000012883019
      24        0.000038967851    -0.000014988376    -0.000001274216

  **** Optimization is complete! (in 6 steps) ****
    Final optimized geometry and variables:
    Molecular point group: c1

    Geometry (in Angstrom), charge = 0, multiplicity = 1:

    H           -2.986454032599    -0.197808981257    -1.540180756432
    O           -3.529913872226     0.271439981646    -0.923841866759
    C           -3.180784296655    -0.091581729755     0.386906180648
    C           -1.761586944311     0.312076508816     0.771733665787
    H           -3.322203360266    -1.161682465274     0.535887986487
    H           -3.890393662180     0.415648189691     1.027815247546
    C           -0.670145880392    -0.391769887251    -0.038504586333
    H           -1.664733086934     1.388644328080     0.657768947996
    H           -1.622401886255     0.091215479670     1.828553851893
    C            0.744580147889    -0.020988069063     0.412086255935
    H           -0.776059873081    -0.140237998071    -1.092363096689
    H           -0.800503496633    -1.470771768872     0.038086922081
    C            1.833248746507    -0.713037622476    -0.412288953793
    H            0.860322320362     1.057916906650     0.352477013658
    H            0.866285096760    -0.285159101039     1.461381225247
    C            3.265235691545    -0.444979978554     0.064935370484
    H            1.741530921528    -0.412226865043    -1.454887277954
    H            1.657774164508    -1.786786448719    -0.389982287178
    C            3.726104112404     1.005371316921    -0.090974394018
    H            3.940132987439    -1.087228027932    -0.495496183512
    H            3.358487148415    -0.743929677324     1.107037443760
    H            3.630229200348     1.336619241771    -1.121561918873
    H            4.768627529215     1.110610408078     0.193109179475
    H            3.150482288722     1.684005159545     0.529591579858

  Mulliken Charges: (a.u.)
   Center  Symbol    Alpha    Beta     Spin     Total
       1     H     0.27961  0.27961  0.00000  0.44079
       2     O     4.37177  4.37177  0.00000 -0.74354
       3     C     2.99500  2.99500  0.00000  0.00999
       4     C     3.16377  3.16377  0.00000 -0.32754
       5     H     0.43205  0.43205  0.00000  0.13591
       6     H     0.41455  0.41455  0.00000  0.17091
       7     C     3.16175  3.16175  0.00000 -0.32351
       8     H     0.41487  0.41487  0.00000  0.17026
       9     H     0.42330  0.42330  0.00000  0.15341
      10     C     3.15242  3.15242  0.00000 -0.30484
      11     H     0.42699  0.42699  0.00000  0.14602
      12     H     0.42354  0.42354  0.00000  0.15293
      13     C     3.15286  3.15286  0.00000 -0.30572
      14     H     0.41924  0.41924  0.00000  0.16152
      15     H     0.42319  0.42319  0.00000  0.15362
      16     C     3.15259  3.15259  0.00000 -0.30518
      17     H     0.42413  0.42413  0.00000  0.15174
      18     H     0.42258  0.42258  0.00000  0.15485
      19     C     3.24136  3.24136  0.00000 -0.48272
      20     H     0.42067  0.42067  0.00000  0.15867
      21     H     0.42313  0.42313  0.00000  0.15375
      22     H     0.42199  0.42199  0.00000  0.15603
      23     H     0.41887  0.41887  0.00000  0.16227
      24     H     0.41980  0.41980  0.00000  0.16040

   Total alpha = 33.00000, Total beta = 33.00000, Total charge =  0.00000
