  ==> Input File <==

--------------------------------------------------------------------------
set {
	reference rhf
	basis 6-31G*
}

set_num_threads( 1 )
memory 2 gb

molecule MOL {
0 1

H	 2.220378	 0.963747	 -1.128567
O	 1.349924	 0.581932	 -1.186138
C	 1.050492	 0.053836	 0.000068
C	 -0.318135	 -0.576402	 0.000164
O	 1.801562	 0.097233	 0.919310
C	 -1.454360	 0.441875	 -0.000474
H	 -0.374042	 -1.230163	 -0.866135
H	 -0.374274	 -1.229227	 0.867154
C	 -2.826123	 -0.230780	 0.000056
H	 -1.357605	 1.085198	 -0.868380
H	 -1.357504	 1.086451	 0.866496
H	 -2.959731	 -0.858053	 -0.876869
H	 -3.619374	 0.509403	 -0.000080
H	 -2.959371	 -0.857318	 0.877556

	symmetry c1
}
set optking {
	frozen_dihedral = ("
		7 4 6 10,
		1 2 3 5
	")
}

ee = energy('scf')
oeprop('DIPOLE', 'QUADRUPOLE', 'MULLIKEN_CHARGES')
f=open( 'psi4out.xyz', 'w' )
f.write( "14  " )
f.write( str(ee) + "\n" )
f.write( MOL.save_string_xyz() )
f.close()
--------------------------------------------------------------------------

    Molecular point group: c1

    Geometry (in Angstrom), charge = 0, multiplicity = 1:

       Center              X                  Y                   Z               Mass
    ------------   -----------------  -----------------  -----------------  -----------------
           H          2.254853496995     0.888889040308    -1.067151531955     1.007825032070
           O          1.384399496995     0.507074040308    -1.124722531955    15.994914619560
           C          1.084967496995    -0.021021959692     0.061483468045    12.000000000000
           C         -0.283659503005    -0.651259959692     0.061579468045    12.000000000000
           O          1.836037496995     0.022375040308     0.980725468045    15.994914619560
           C         -1.419884503005     0.367017040308     0.060941468045    12.000000000000
           H         -0.339566503005    -1.305020959692    -0.804719531955     1.007825032070
           H         -0.339798503005    -1.304084959692     0.928569468045     1.007825032070
           C         -2.791647503005    -0.305637959692     0.061471468045    12.000000000000
           H         -1.323129503005     1.010340040308    -0.806964531955     1.007825032070
           H         -1.323028503005     1.011593040308     0.927911468045     1.007825032070
           H         -2.925255503005    -0.932910959692    -0.815453531955     1.007825032070
           H         -3.584898503005     0.434545040308     0.061335468045     1.007825032070
           H         -2.924895503005    -0.932175959692     0.938971468045     1.007825032070

  Charge       = 0
  Multiplicity = 1
  Basis Set: 6-31G*
  Basis Set:

    Orbital Energies (a.u.)
    -----------------------

    Doubly Occupied:

       1A    -20.613245     2A    -20.550576     3A    -11.380344
       4A    -11.239373     5A    -11.235389     6A    -11.221644
       7A     -1.474495     8A     -1.364938     9A     -1.087564
      10A     -0.979835    11A     -0.851913    12A     -0.811335
      13A     -0.701645    14A     -0.684931    15A     -0.642587
      16A     -0.633702    17A     -0.594161    18A     -0.567187
      19A     -0.549843    20A     -0.519827    21A     -0.501610
      22A     -0.487667    23A     -0.473463    24A     -0.438042

  @DF-RHF Final Energy:  -305.87899810004762

   => Energetics <=

    Nuclear Repulsion Energy =            240.2780619861501634
    One-Electron Energy =                -893.1034642637791876
    Two-Electron Energy =                 346.9464041775813712
    DFT Exchange-Correlation Energy =       0.0000000000000000
    Empirical Dispersion Energy =           0.0000000000000000
    PCM Polarization Energy =               0.0000000000000000
    EFP Energy =                            0.0000000000000000
    Total Energy =                       -305.8789981000476246

  Mulliken Charges: (a.u.)
   Center  Symbol    Alpha    Beta     Spin     Total
       1     H     0.26779  0.26779  0.00000  0.46442
       2     O     4.34681  4.34681  0.00000 -0.69362
       3     C     2.63416  2.63416  0.00000  0.73167
       4     C     3.19732  3.19732  0.00000 -0.39465
       5     O     4.27777  4.27777  0.00000 -0.55553
       6     C     3.16415  3.16415  0.00000 -0.32830
       7     H     0.40320  0.40320  0.00000  0.19361
       8     H     0.39874  0.39874  0.00000  0.20252
       9     C     3.24184  3.24184  0.00000 -0.48367
      10     H     0.40735  0.40735  0.00000  0.18529
      11     H     0.41051  0.41051  0.00000  0.17898
      12     H     0.41832  0.41832  0.00000  0.16335
      13     H     0.41433  0.41433  0.00000  0.17135
      14     H     0.41771  0.41771  0.00000  0.16459

   Total alpha = 24.00000, Total beta = 24.00000, Total charge = -0.00000
