  ==> Input File <==

--------------------------------------------------------------------------
set {
	reference rhf
	basis 6-31G*
}

set_num_threads( 4 )
memory 2 gb

molecule MOL {
0 1

H	 2.990431	 0.212978	 1.691152
C	 2.286917	 -0.235550	 0.995359
C	 0.996243	 0.576241	 0.947639
H	 2.078076	 -1.248623	 1.320674
H	 2.774141	 -0.290359	 0.027814
N	 -0.000257	 -0.000071	 0.054619
H	 0.581949	 0.606573	 1.947547
H	 1.214745	 1.613674	 0.678051
C	 -1.363055	 0.315058	 0.462241
C	 0.252038	 0.321269	 -1.343860
C	 -2.412078	 -0.285320	 -0.468531
H	 -1.482241	 1.391144	 0.451970
H	 -1.549931	 -0.001174	 1.492681
C	 -0.276468	 -0.743731	 -2.299735
H	 1.322136	 0.399922	 -1.488284
H	 -0.162212	 1.299510	 -1.605064
H	 -2.262839	 0.075384	 -1.480151
H	 -2.369300	 -1.368867	 -0.491760
H	 -3.410332	 -0.003975	 -0.144961
H	 0.179582	 -1.702262	 -2.078669
H	 -1.352271	 -0.862693	 -2.228692
H	 -0.043627	 -0.478909	 -3.327345

	symmetry c1
}
set optking {
	frozen_dihedral = ("
		3 6 9 11
	")
}

ee = optimize('scf')
oeprop('DIPOLE', 'QUADRUPOLE', 'MULLIKEN_CHARGES')
f=open( 'psi4out.xyz', 'w' )
f.write( "22  " )
f.write( str(ee) + "\n" )
f.write( MOL.save_string_xyz() )
f.close()
--------------------------------------------------------------------------

    Molecular point group: c1
  Charge       = 0
  Multiplicity = 1
  Basis Set: 6-31G*
  Basis Set:
  @DF-RHF Final Energy:  -290.35007474750455
    Total Energy =                       -290.3500747475044363
    Molecular point group: c1
  Basis Set: 6-31G*
  Basis Set:
  Basis Set: 6-31G*
  Basis Set:
  @DF-RHF Final Energy:  -290.36416657072891
    Total Energy =                       -290.3641665707290258
  Basis Set: 6-31G*
  Basis Set:
  Basis Set: 6-31G*
  Basis Set:
  @DF-RHF Final Energy:  -290.36760240775607
    Total Energy =                       -290.3676024077560669
  Basis Set: 6-31G*
  Basis Set:
  Basis Set: 6-31G*
  Basis Set:
  @DF-RHF Final Energy:  -290.36833796314323
    Total Energy =                       -290.3683379631429489
  Basis Set: 6-31G*
  Basis Set:
  @DF-RHF Final Energy:  -290.36883955355637
    Total Energy =                       -290.3688395535561426
  @DF-RHF Final Energy:  -290.36902121788808
    Total Energy =                       -290.3690212178885304
  @DF-RHF Final Energy:  -290.36908016447393
    Total Energy =                       -290.3690801644743260
  Basis Set: 6-31G*
  Basis Set:
  @DF-RHF Final Energy:  -290.36908826785537
    Total Energy =                       -290.3690882678556022
  Basis Set: 6-31G*
  Basis Set:
  Basis Set: 6-31G*
  Basis Set:
  @DF-RHF Final Energy:  -290.36910972697240
    Total Energy =                       -290.3691097269725105
  Basis Set: 6-31G*
  Basis Set:
  Basis Set: 6-31G*
  Basis Set:
  @DF-RHF Final Energy:  -290.36911119594754
    Total Energy =                       -290.3691111959474256
  Basis Set: 6-31G*
  Basis Set:
  Charge       = 0
  Multiplicity = 1
  Basis Set: 6-31G*
  Basis Set:

    Orbital Energies (a.u.)
    -----------------------

    Doubly Occupied:

       1A    -15.537584     2A    -11.241445     3A    -11.240269
       4A    -11.239092     5A    -11.208617     6A    -11.205580
       7A    -11.201916     8A     -1.222233     9A     -1.027187
      10A     -1.017913    11A     -0.959021    12A     -0.855510
      13A     -0.831380    14A     -0.773966    15A     -0.660697
      16A     -0.640485    17A     -0.612503    18A     -0.597123
      19A     -0.568436    20A     -0.556832    21A     -0.539563
      22A     -0.531353    23A     -0.512680    24A     -0.498610
      25A     -0.486736    26A     -0.478441    27A     -0.465965
      28A     -0.462073    29A     -0.341232

  @DF-RHF Final Energy:  -290.36911139511398

   => Energetics <=

    Nuclear Repulsion Energy =            338.9734072104529901
    One-Electron Energy =               -1063.6561504960120601
    Two-Electron Energy =                 434.3136318904449809
    DFT Exchange-Correlation Energy =       0.0000000000000000
    Empirical Dispersion Energy =           0.0000000000000000
    PCM Polarization Energy =               0.0000000000000000
    EFP Energy =                            0.0000000000000000
    Total Energy =                       -290.3691113951141460
    Molecular point group: c1
  Basis Set: 6-31G*
  Basis Set:

  -Total Gradient:
     Atom            X                  Y                   Z
    ------   -----------------  -----------------  -----------------
       1       -0.000007837923     0.000002332499    -0.000003697690
       2        0.000003533836     0.000002408320    -0.000014104694
       3        0.000219830319     0.002875233432    -0.001934351392
       4       -0.000004408897     0.000003019837     0.000003300533
       5        0.000006712079    -0.000002932842    -0.000005463115
       6       -0.000178957583    -0.002629323300     0.001785555350
       7       -0.000014295647    -0.000001379010     0.000001810599
       8        0.000001472271     0.000000579973    -0.000006367481
       9       -0.000251432829    -0.003108785648     0.002103901939
      10       -0.000030736390     0.000014348267    -0.000015950895
      11        0.000222568207     0.002856835736    -0.001924761380
      12        0.000012841456    -0.000000286201     0.000000440630
      13       -0.000003866198     0.000004423725     0.000005065031
      14        0.000000463023    -0.000007096754     0.000010693874
      15       -0.000001005741    -0.000008322389     0.000009281033
      16        0.000006923880     0.000001295075    -0.000012210699
      17       -0.000003106250    -0.000007172592     0.000007797070
      18       -0.000003486294    -0.000009620992    -0.000009070530
      19        0.000015149857     0.000001379946    -0.000003658965
      20       -0.000010127167     0.000000045512     0.000000011625
      21        0.000017884250     0.000008988292     0.000005091941
      22        0.000001881739     0.000004029115    -0.000003312786

  **** Optimization is complete! (in 11 steps) ****
    Final optimized geometry and variables:
    Molecular point group: c1

    Geometry (in Angstrom), charge = 0, multiplicity = 1:

    H            3.054922653484     0.112354843221     1.812562575599
    C            2.333208899012    -0.278184489425     1.100865649639
    C            1.030868869594     0.511856796054     1.182177658288
    H            2.150842993780    -1.321656714375     1.332661533613
    H            2.786469457773    -0.228739871435     0.116588069428
    N           -0.001061174992    -0.002977864266     0.291330868964
    H            0.658964319412     0.438389323735     2.198372755089
    H            1.222933936412     1.573490375827     1.000922137360
    C           -1.321420882021     0.410210107359     0.751272641193
    C            0.271585745090     0.327260851112    -1.109921251698
    C           -2.483894216561    -0.073815198661    -0.109058786843
    H           -1.383256420003     1.501762513140     0.829767675849
    H           -1.452607185477     0.019922543330     1.754646801105
    C            0.169988247252    -0.878148125474    -2.040118085513
    H            1.274840603982     0.728892623674    -1.188149315812
    H           -0.385067954863     1.124452648548    -1.455468928079
    H           -2.468924730326     0.347507647370    -1.106891391748
    H           -2.480206890675    -1.155105644867    -0.194404079424
    H           -3.419403618712     0.224049524858     0.354596765832
    H            0.864259096762    -1.650712220852    -1.727756425040
    H           -0.824039312441    -1.308186297184    -2.037587893197
    H            0.411008806811    -0.593418077058    -3.061270569861

  Mulliken Charges: (a.u.)
   Center  Symbol    Alpha    Beta     Spin     Total
       1     H     0.42260  0.42260  0.00000  0.15479
       2     C     3.23763  3.23763  0.00000 -0.47525
       3     C     3.05776  3.05776  0.00000 -0.11552
       4     H     0.41457  0.41457  0.00000  0.17085
       5     H     0.42104  0.42104  0.00000  0.15791
       6     N     3.78355  3.78355  0.00000 -0.56709
       7     H     0.42013  0.42013  0.00000  0.15973
       8     H     0.43323  0.43323  0.00000  0.13354
       9     C     3.05027  3.05027  0.00000 -0.10053
      10     C     3.06695  3.06695  0.00000 -0.13391
      11     C     3.24765  3.24765  0.00000 -0.49530
      12     H     0.43653  0.43653  0.00000  0.12693
      13     H     0.41848  0.41848  0.00000  0.16304
      14     C     3.23039  3.23039  0.00000 -0.46079
      15     H     0.41912  0.41912  0.00000  0.16176
      16     H     0.42560  0.42560  0.00000  0.14881
      17     H     0.41853  0.41853  0.00000  0.16294
      18     H     0.41427  0.41427  0.00000  0.17145
      19     H     0.41893  0.41893  0.00000  0.16214
      20     H     0.41748  0.41748  0.00000  0.16504
      21     H     0.41826  0.41826  0.00000  0.16349
      22     H     0.42702  0.42702  0.00000  0.14596

   Total alpha = 29.00000, Total beta = 29.00000, Total charge = -0.00000
