  ==> Input File <==

--------------------------------------------------------------------------
set {
	reference rhf
	basis 6-31G*
}

set_num_threads( 1 )
memory 2 gb

molecule MOL {
0 1

H	 -2.153054	 -2.250733	 0.000000
O	 -2.462445	 -1.355403	 0.000000
C	 -1.434260	 -0.483044	 0.000000
C	 -1.747402	 0.872187	 0.000000
C	 -0.112826	 -0.887672	 0.000000
H	 -2.781042	 1.162947	 0.000000
C	 -0.737782	 1.812486	 0.000000
H	 0.142965	 -1.932242	 0.000000
C	 0.894804	 0.073633	 0.000000
H	 -0.988012	 2.857452	 0.000000
C	 0.595063	 1.425424	 0.000000
C	 2.274807	 -0.357748	 0.000000
H	 1.382498	 2.154482	 0.000000
N	 3.359830	 -0.694835	 -0.001669

	symmetry c1
}
set optking {
	frozen_dihedral = ("
		5 3 2 1
	")
}

ee = energy('scf')
oeprop('DIPOLE', 'QUADRUPOLE', 'MULLIKEN_CHARGES')
f=open( 'psi4out.xyz', 'w' )
f.write( "14  " )
f.write( str(ee) + "\n" )
f.write( MOL.save_string_xyz() )
f.close()
--------------------------------------------------------------------------

    Molecular point group: c1

    Geometry (in Angstrom), charge = 0, multiplicity = 1:

       Center              X                  Y                   Z               Mass
    ------------   -----------------  -----------------  -----------------  -----------------
           H         -2.153214871802    -2.251247995199     0.000196334822     1.007825032070
           O         -2.462605871802    -1.355917995199     0.000196334822    15.994914619560
           C         -1.434420871802    -0.483558995199     0.000196334822    12.000000000000
           C         -1.747562871802     0.871672004801     0.000196334822    12.000000000000
           C         -0.112986871802    -0.888186995199     0.000196334822    12.000000000000
           H         -2.781202871802     1.162432004801     0.000196334822     1.007825032070
           C         -0.737942871802     1.811971004801     0.000196334822    12.000000000000
           H          0.142804128198    -1.932756995199     0.000196334822     1.007825032070
           C          0.894643128198     0.073118004801     0.000196334822    12.000000000000
           H         -0.988172871802     2.856937004801     0.000196334822     1.007825032070
           C          0.594902128198     1.424909004801     0.000196334822    12.000000000000
           C          2.274646128198    -0.358262995199     0.000196334822    12.000000000000
           H          1.382337128198     2.153967004801     0.000196334822     1.007825032070
           N          3.359669128198    -0.695349995199    -0.001472665178    14.003074004780

  Charge       = 0
  Multiplicity = 1
  Basis Set: 6-31G*
  Basis Set:

    Orbital Energies (a.u.)
    -----------------------

    Doubly Occupied:

       1A    -20.613357     2A    -15.576094     3A    -11.326474
       4A    -11.295200     5A    -11.277353     6A    -11.263921
       7A    -11.262494     8A    -11.259240     9A    -11.253928
      10A     -1.433723    11A     -1.233857    12A     -1.182278
      13A     -1.063262    14A     -1.039158    15A     -0.896233
      16A     -0.867783    17A     -0.778132    18A     -0.726544
      19A     -0.700216    20A     -0.664104    21A     -0.627033
      22A     -0.613998    23A     -0.592983    24A     -0.562275
      25A     -0.550728    26A     -0.538997    27A     -0.527032
      28A     -0.473334    29A     -0.473314    30A     -0.363601
      31A     -0.336669

  @DF-RHF Final Energy:  -397.29196235207627

   => Energetics <=

    Nuclear Repulsion Energy =            379.4035883207429265
    One-Electron Energy =               -1290.6444669770462497
    Two-Electron Energy =                 513.9489163042266000
    DFT Exchange-Correlation Energy =       0.0000000000000000
    Empirical Dispersion Energy =           0.0000000000000000
    PCM Polarization Energy =               0.0000000000000000
    EFP Energy =                            0.0000000000000000
    Total Energy =                       -397.2919623520766663

  Mulliken Charges: (a.u.)
   Center  Symbol    Alpha    Beta     Spin     Total
       1     H     0.26830  0.26830  0.00000  0.46339
       2     O     4.37596  4.37596  0.00000 -0.75191
       3     C     2.79152  2.79152  0.00000  0.41696
       4     C     3.11408  3.11408  0.00000 -0.22817
       5     C     3.13450  3.13450  0.00000 -0.26900
       6     H     0.38292  0.38292  0.00000  0.23416
       7     C     3.09575  3.09575  0.00000 -0.19151
       8     H     0.38536  0.38536  0.00000  0.22929
       9     C     2.99112  2.99112  0.00000  0.01776
      10     H     0.38856  0.38856  0.00000  0.22287
      11     C     3.09888  3.09888  0.00000 -0.19775
      12     C     2.86663  2.86663  0.00000  0.26674
      13     H     0.38124  0.38124  0.00000  0.23751
      14     N     3.72517  3.72517  0.00000 -0.45034

   Total alpha = 31.00000, Total beta = 31.00000, Total charge = -0.00000
