  ==> Input File <==

--------------------------------------------------------------------------
set {
	reference rhf
	basis 6-31G*
}

set_num_threads( 1 )
memory 2 gb

molecule MOL {
0 1

H	 2.138600	 -1.026027	 -0.261502
C	 1.854263	 -0.016824	 -0.583161
C	 0.692068	 0.589600	 0.160137
O	 2.450110	 0.520089	 -1.459985
C	 -0.558097	 -0.297372	 0.091132
H	 0.501697	 1.573845	 -0.251567
H	 0.990712	 0.711550	 1.200700
C	 -1.850991	 0.512573	 -0.019058
H	 -0.476753	 -0.965681	 -0.762987
H	 -0.604799	 -0.930658	 0.975228
C	 -3.096943	 -0.368295	 -0.099594
H	 -1.800724	 1.150330	 -0.898172
H	 -1.931651	 1.177355	 0.838044
H	 -3.060452	 -1.020287	 -0.967456
H	 -3.996858	 0.233488	 -0.175704
H	 -3.191959	 -0.995686	 0.782074

	symmetry c1
}
set optking {
	frozen_dihedral = ("
		9 5 8 12,
		4 2 3 6
	")
}

ee = energy('scf')
oeprop('DIPOLE', 'QUADRUPOLE', 'MULLIKEN_CHARGES')
f=open( 'psi4out.xyz', 'w' )
f.write( "16  " )
f.write( str(ee) + "\n" )
f.write( MOL.save_string_xyz() )
f.close()
--------------------------------------------------------------------------

    Molecular point group: c1

    Geometry (in Angstrom), charge = 0, multiplicity = 1:

       Center              X                  Y                   Z               Mass
    ------------   -----------------  -----------------  -----------------  -----------------
           H          2.229786887072    -1.180110726882     0.067014558282     1.007825032070
           C          1.945449887072    -0.170907726882    -0.254644441718    12.000000000000
           C          0.783254887072     0.435516273118     0.488653558282    12.000000000000
           O          2.541296887072     0.366005273118    -1.131468441718    15.994914619560
           C         -0.466910112928    -0.451455726882     0.419648558282    12.000000000000
           H          0.592883887072     1.419761273118     0.076949558282     1.007825032070
           H          1.081898887072     0.557466273118     1.529216558282     1.007825032070
           C         -1.759804112928     0.358489273118     0.309458558282    12.000000000000
           H         -0.385566112928    -1.119764726882    -0.434470441718     1.007825032070
           H         -0.513612112928    -1.084741726882     1.303744558282     1.007825032070
           C         -3.005756112928    -0.522378726882     0.228922558282    12.000000000000
           H         -1.709537112928     0.996246273118    -0.569655441718     1.007825032070
           H         -1.840464112928     1.023271273118     1.166560558282     1.007825032070
           H         -2.969265112928    -1.174370726882    -0.638939441718     1.007825032070
           H         -3.905671112928     0.079404273118     0.152812558282     1.007825032070
           H         -3.100772112928    -1.149769726882     1.110590558282     1.007825032070

  Charge       = 0
  Multiplicity = 1
  Basis Set: 6-31G*
  Basis Set:

    Orbital Energies (a.u.)
    -----------------------

    Doubly Occupied:

       1A    -20.562095     2A    -11.326601     3A    -11.235907
       4A    -11.234051     5A    -11.228782     6A    -11.217599
       7A     -1.402062     8A     -1.096177     9A     -1.018266
      10A     -0.905397    11A     -0.812084    12A     -0.793708
      13A     -0.677291    14A     -0.647532    15A     -0.627399
      16A     -0.602108    17A     -0.588639    18A     -0.541166
      19A     -0.525251    20A     -0.518701    21A     -0.485431
      22A     -0.482543    23A     -0.472207    24A     -0.409194

  @DF-RHF Final Energy:  -270.01608443961527

   => Energetics <=

    Nuclear Repulsion Energy =            229.6529700295199916
    One-Electron Energy =                -820.5177057253972634
    Two-Electron Energy =                 320.8486512562617463
    DFT Exchange-Correlation Energy =       0.0000000000000000
    Empirical Dispersion Energy =           0.0000000000000000
    PCM Polarization Energy =               0.0000000000000000
    EFP Energy =                            0.0000000000000000
    Total Energy =                       -270.0160844396154971

  Mulliken Charges: (a.u.)
   Center  Symbol    Alpha    Beta     Spin     Total
       1     H     0.43181  0.43181  0.00000  0.13637
       2     C     2.83230  2.83230  0.00000  0.33540
       3     C     3.20864  3.20864  0.00000 -0.41727
       4     O     4.23757  4.23757  0.00000 -0.47514
       5     C     3.16478  3.16478  0.00000 -0.32956
       6     H     0.39838  0.39838  0.00000  0.20324
       7     H     0.40764  0.40764  0.00000  0.18472
       8     C     3.15318  3.15318  0.00000 -0.30637
       9     H     0.41533  0.41533  0.00000  0.16933
      10     H     0.41635  0.41635  0.00000  0.16729
      11     C     3.24097  3.24097  0.00000 -0.48194
      12     H     0.41675  0.41675  0.00000  0.16650
      13     H     0.41976  0.41976  0.00000  0.16048
      14     H     0.41944  0.41944  0.00000  0.16113
      15     H     0.41631  0.41631  0.00000  0.16739
      16     H     0.42078  0.42078  0.00000  0.15843

   Total alpha = 24.00000, Total beta = 24.00000, Total charge = -0.00000
