                              Psi4 1.0.54 Driver

  ==> Input File <==

--------------------------------------------------------------------------
set {
	reference rhf
	basis cc-pvtz
}

set_num_threads( 4 )
memory 2 gb

molecule MOL {
0 1

O	 3.219313	 0.959291	 -0.614106
C	 2.698710	 0.058177	 -0.050237
C	 1.246364	 -0.005813	 0.348416
O	 3.344101	 -1.038700	 0.312317
C	 0.453207	 1.232821	 -0.049003
H	 0.839270	 -0.907818	 -0.092281
H	 1.216683	 -0.160521	 1.422434
C	 -0.998367	 1.217982	 0.432195
H	 0.481498	 1.345443	 -1.127236
H	 0.951413	 2.105557	 0.354893
C	 -1.882951	 0.151251	 -0.211235
H	 -1.429490	 2.193659	 0.228843
H	 -1.019755	 1.099323	 1.513279
C	 -3.342450	 0.243269	 0.226009
H	 -1.826223	 0.246578	 -1.293162
H	 -1.508033	 -0.839650	 0.027695
C	 -4.234517	 -0.821434	 -0.405970
H	 -3.730149	 1.228245	 -0.022691
H	 -3.398860	 0.159952	 1.308941
C	 -5.610559	 -0.914485	 0.244897
H	 -4.351247	 -0.608869	 -1.465173
H	 -3.740769	 -1.787376	 -0.342525
H	 -6.217593	 -1.678814	 -0.226585
H	 -6.144747	 0.026612	 0.166874
H	 -5.529332	 -1.160203	 1.298573
C	 4.720529	 -1.114346	 0.001449
H	 4.874321	 -1.055557	 -1.065852
H	 5.057824	 -2.067950	 0.373977
H	 5.264321	 -0.313596	 0.480350

	symmetry c1
}
set optking {
	frozen_dihedral = ("
		21 17 14 11
	")
}

ee,wfn = optimize('scf', return_wfn=True)
oeprop( wfn, 'DIPOLE', 'QUADRUPOLE', 'MULLIKEN_CHARGES')
f=open( 'psi4out.xyz', 'w' )
f.write( "29  " )
f.write( str(ee) + "\n" )
f.write( MOL.save_string_xyz() )
f.close()
--------------------------------------------------------------------------

    Molecular point group: c1
  Charge       = 0
  Multiplicity = 1
  Basis Set: CC-PVTZ
  Basis Set:
  @DF-RHF Final Energy:  -501.22439048982596
    Total Energy =                       -501.2243904898258506
    Molecular point group: c1
  Basis Set: CC-PVTZ
  Basis Set:
  Basis Set: CC-PVTZ
  Basis Set:
  @DF-RHF Final Energy:  -501.22443227691952
    Total Energy =                       -501.2244322769197424
  Basis Set: CC-PVTZ
  Basis Set:
  Basis Set: CC-PVTZ
  Basis Set:
  @DF-RHF Final Energy:  -501.22445808521570
    Total Energy =                       -501.2244580852157014
  Basis Set: CC-PVTZ
  Basis Set:
  Basis Set: CC-PVTZ
  Basis Set:
  @DF-RHF Final Energy:  -501.22436343307811
    Total Energy =                       -501.2243634330779969
  Basis Set: CC-PVTZ
  Basis Set:
  Basis Set: CC-PVTZ
  Basis Set:
  @DF-RHF Final Energy:  -501.22446684876184
    Total Energy =                       -501.2244668487612671
  Basis Set: CC-PVTZ
  Basis Set:
  Charge       = 0
  Multiplicity = 1
  Basis Set: CC-PVTZ
  Basis Set:

    Orbital Energies (a.u.)
    -----------------------

    Doubly Occupied:

       1A    -20.596001     2A    -20.533851     3A    -11.364263
       4A    -11.278254     5A    -11.232957     6A    -11.217051
       7A    -11.215512     8A    -11.213966     9A    -11.213719
      10A    -11.212308    11A    -11.207065    12A     -1.471889
      13A     -1.365480    14A     -1.099316    15A     -1.067911
      16A     -1.020601    17A     -0.978137    18A     -0.929119
      19A     -0.862098    20A     -0.799772    21A     -0.790933
      22A     -0.765620    23A     -0.703020    24A     -0.685474
      25A     -0.676049    26A     -0.652229    27A     -0.628605
      28A     -0.606555    29A     -0.596189    30A     -0.582325
      31A     -0.567605    32A     -0.549711    33A     -0.533661
      34A     -0.531732    35A     -0.517325    36A     -0.510894
      37A     -0.498294    38A     -0.477933    39A     -0.470838
      40A     -0.462051    41A     -0.460979    42A     -0.458277
      43A     -0.443677    44A     -0.437298

  @DF-RHF Final Energy:  -501.22446641642716

   => Energetics <=

    Nuclear Repulsion Energy =            611.3475386908966129
    One-Electron Energy =               -1894.1709179001416032
    Two-Electron Energy =                 781.5989127928187372
    DFT Exchange-Correlation Energy =       0.0000000000000000
    Empirical Dispersion Energy =           0.0000000000000000
    PCM Polarization Energy =               0.0000000000000000
    EFP Energy =                            0.0000000000000000
    Total Energy =                       -501.2244664164263668
    Molecular point group: c1
  Basis Set: CC-PVTZ
  Basis Set:

  -Total Gradient:
     Atom            X                  Y                   Z
    ------   -----------------  -----------------  -----------------
       1       -0.000012789029    -0.000009442079    -0.000063676651
       2        0.000036487539     0.000072220601     0.000143199844
       3       -0.000029595967    -0.000035523893    -0.000057265543
       4       -0.000016234741    -0.000053785427    -0.000027164868
       5        0.000022022180     0.000030122650     0.000042483819
       6       -0.000043512576    -0.000035947955     0.000000224522
       7        0.000015474827     0.000010589727    -0.000011118542
       8       -0.000017402012     0.000029435194    -0.000033445918
       9       -0.000000675688     0.000015853398    -0.000004843169
      10        0.000010675855    -0.000010451651     0.000009286620
      11        0.000346903411    -0.001071692645     0.001275453676
      12       -0.000012395017    -0.000000428977    -0.000012084846
      13       -0.000002074528     0.000015269837    -0.000000965540
      14       -0.000873242129     0.001756024000    -0.001660401303
      15       -0.000004543804     0.000008136067     0.000024151109
      16        0.000032877611    -0.000034367601    -0.000007562251
      17        0.002395873070    -0.001999966835    -0.000085266829
      18        0.000007937816     0.000028730900    -0.000013555096
      19       -0.000004784455     0.000004690176     0.000019602872
      20        0.000019535371     0.000000234124    -0.000013710463
      21       -0.001859857355     0.001272243620     0.000492949503
      22        0.000008627863    -0.000006376284    -0.000010866639
      23       -0.000007469808    -0.000010754185    -0.000008589690
      24       -0.000007039090     0.000014230885     0.000002541503
      25        0.000006192310    -0.000004142058     0.000008128176
      26        0.000002479079     0.000020073472    -0.000018136320
      27       -0.000002413543    -0.000001486709    -0.000001623344
      28       -0.000009024575    -0.000008832989     0.000005994146
      29       -0.000002032614     0.000005344638     0.000006261223

  **** Optimization is complete! (in 6 steps) ****
    Final optimized geometry and variables:
    Molecular point group: c1

    Geometry (in Angstrom), charge = 0, multiplicity = 1:

    O            3.212035212887     0.972763117124    -0.638516212459
    C            2.691594708902     0.076289282877    -0.067134990910
    C            1.239264216876     0.015253250480     0.332089307637
    O            3.336960008011    -1.018067045005     0.303093962558
    C            0.446160326273     1.251131925476    -0.074008791895
    H            0.832107515311    -0.889842978810    -0.102257377317
    H            1.209602203457    -0.131915338696     1.407159951998
    C           -1.006019911478     1.238569549942     0.405435904268
    H            0.475677286371     1.356970098254    -1.152902277910
    H            0.943525740081     2.126602669628     0.325014709905
    C           -1.887889664386     0.164264285627    -0.228884953312
    H           -1.438479191631     2.211581303306     0.192518288739
    H           -1.028568040301     1.129900154733     1.487613124451
    C           -3.345505016453     0.248693179939     0.216548591085
    H           -1.835033633590     0.254232628888    -1.311780926941
    H           -1.508328589175    -0.823673890302     0.013717854186
    C           -4.243558132321    -0.801403388739    -0.434314918924
    H           -3.737710240614     1.239587866935     0.002793910173
    H           -3.388204626282     0.132935852212     1.297339396940
    C           -5.625546153661    -0.882858814790     0.207585148049
    H           -4.364203462017    -0.564994574427    -1.487871433156
    H           -3.764628502176    -1.774799793358    -0.383024028318
    H           -6.249394141497    -1.614190863166    -0.293533667827
    H           -6.135566911524     0.073799762487     0.160286878792
    H           -5.556050818798    -1.167069734878     1.252289066855
    C            4.713157484804    -1.096242462543    -0.008221291571
    H            4.866161923512    -1.045261185715    -1.076038071329
    H            5.050548189177    -2.047188615587     0.371007914078
    H            5.257436177030    -0.292118436078     0.464458697305

  Mulliken Charges: (a.u.)
   Center  Symbol    Alpha    Beta     Spin     Total
       1     O     4.19698  4.19698  0.00000 -0.39396
       2     C     2.80485  2.80485  0.00000  0.39030
       3     C     3.10175  3.10175  0.00000 -0.20351
       4     O     4.14723  4.14723  0.00000 -0.29446
       5     C     3.09255  3.09255  0.00000 -0.18510
       6     H     0.43912  0.43912  0.00000  0.12176
       7     H     0.43990  0.43990  0.00000  0.12021
       8     C     3.10392  3.10392  0.00000 -0.20783
       9     H     0.44619  0.44619  0.00000  0.10762
      10     H     0.43960  0.43960  0.00000  0.12079
      11     C     3.09278  3.09278  0.00000 -0.18555
      12     H     0.44534  0.44534  0.00000  0.10932
      13     H     0.45368  0.45368  0.00000  0.09263
      14     C     3.08669  3.08669  0.00000 -0.17338
      15     H     0.45304  0.45304  0.00000  0.09391
      16     H     0.45380  0.45380  0.00000  0.09240
      17     C     3.08336  3.08336  0.00000 -0.16672
      18     H     0.45271  0.45271  0.00000  0.09459
      19     H     0.45605  0.45605  0.00000  0.08789
      20     C     3.15023  3.15023  0.00000 -0.30046
      21     H     0.45380  0.45380  0.00000  0.09241
      22     H     0.45544  0.45544  0.00000  0.08912
      23     H     0.44855  0.44855  0.00000  0.10290
      24     H     0.45499  0.45499  0.00000  0.09003
      25     H     0.45546  0.45546  0.00000  0.08908
      26     C     3.03814  3.03814  0.00000 -0.07628
      27     H     0.45434  0.45434  0.00000  0.09132
      28     H     0.44528  0.44528  0.00000  0.10944
      29     H     0.45423  0.45423  0.00000  0.09154

   Total alpha = 44.00000, Total beta = 44.00000, Total charge =  0.00000

*** Psi4 exiting successfully. Buy a developer a beer!
