  ==> Input File <==

--------------------------------------------------------------------------
set {
	reference rhf
	basis cc-pvtz
}

set_num_threads( 4 )
memory 2 gb

molecule MOL {
0 1

H	 3.288184	 -0.461113	 -0.037559
C	 2.231600	 -0.272657	 -0.028647
C	 1.634912	 0.251941	 1.108056
C	 1.474787	 -0.553775	 -1.148345
H	 2.229733	 0.467795	 1.974306
C	 0.279778	 0.495190	 1.123661
H	 1.939046	 -0.959460	 -2.026046
C	 0.113931	 -0.308938	 -1.131155
H	 -0.199570	 0.900232	 1.992466
C	 -0.486398	 0.214248	 0.000000
H	 -0.481096	 -0.525371	 -1.999069
C	 -1.946525	 0.470130	 0.000000
O	 -2.779618	 -0.371226	 0.000000
H	 -2.227127	 1.528393	 0.000000

	symmetry c1
}
set optking {
	frozen_dihedral = ("
		8 10 12 14
	")
}

ee = optimize('scf')
oeprop('DIPOLE', 'QUADRUPOLE', 'MULLIKEN_CHARGES')
f=open( 'psi4out.xyz', 'w' )
f.write( "14  " )
f.write( str(ee) + "\n" )
f.write( MOL.save_string_xyz() )
f.close()
--------------------------------------------------------------------------

    Molecular point group: c1
  Charge       = 0
  Multiplicity = 1
  Basis Set: CC-PVTZ
  Basis Set:
  @DF-RHF Final Energy:  -343.53828706046050
    Total Energy =                       -343.5382870604606751
    Molecular point group: c1
  Basis Set: CC-PVTZ
  Basis Set:
  Basis Set: CC-PVTZ
  Basis Set:
  @DF-RHF Final Energy:  -343.53734408237966
    Total Energy =                       -343.5373440823793203
  Basis Set: CC-PVTZ
  Basis Set:
  Basis Set: CC-PVTZ
  Basis Set:
  @DF-RHF Final Energy:  -343.53881317773431
    Total Energy =                       -343.5388131777343688
  Basis Set: CC-PVTZ
  Basis Set:
  Basis Set: CC-PVTZ
  Basis Set:
  @DF-RHF Final Energy:  -343.53906987732825
    Total Energy =                       -343.5390698773284157
  Basis Set: CC-PVTZ
  Basis Set:
  Basis Set: CC-PVTZ
  Basis Set:
  @DF-RHF Final Energy:  -343.53907208594421
    Total Energy =                       -343.5390720859443263
  Basis Set: CC-PVTZ
  Basis Set:
  Charge       = 0
  Multiplicity = 1
  Basis Set: CC-PVTZ
  Basis Set:

    Orbital Energies (a.u.)
    -----------------------

    Doubly Occupied:

       1A    -20.562113     2A    -11.331888     3A    -11.250667
       4A    -11.246951     5A    -11.245435     6A    -11.243564
       7A    -11.242548     8A    -11.241541     9A     -1.416547
      10A     -1.175298    11A     -1.049758    12A     -1.033872
      13A     -0.890702    14A     -0.845589    15A     -0.797645
      16A     -0.725690    17A     -0.681482    18A     -0.657399
      19A     -0.642936    20A     -0.621047    21A     -0.604586
      22A     -0.542893    23A     -0.532023    24A     -0.516554
      25A     -0.506546    26A     -0.426312    27A     -0.352552
      28A     -0.351863

  @DF-RHF Final Energy:  -343.53907260133462

   => Energetics <=

    Nuclear Repulsion Energy =            323.1580117845318227
    One-Electron Energy =               -1105.9221695232345155
    Two-Electron Energy =                 439.2250851373681826
    DFT Exchange-Correlation Energy =       0.0000000000000000
    Empirical Dispersion Energy =           0.0000000000000000
    PCM Polarization Energy =               0.0000000000000000
    EFP Energy =                            0.0000000000000000
    Total Energy =                       -343.5390726013345102
    Molecular point group: c1
  Basis Set: CC-PVTZ
  Basis Set:

  -Total Gradient:
     Atom            X                  Y                   Z
    ------   -----------------  -----------------  -----------------
       1        0.000002234622     0.000002668344     0.000007277551
       2       -0.000009851012    -0.000034500741    -0.000107403088
       3       -0.000083058516     0.000031459222     0.000039088895
       4        0.000127360206     0.000004370619     0.000086677404
       5        0.000006086822    -0.000005764947    -0.000007563474
       6        0.000074516316    -0.000017862132     0.000040777590
       7       -0.000006043855     0.000001812750    -0.000001189020
       8        0.000759802743     0.004294560906    -0.001346954373
       9        0.000000955807     0.000002031088    -0.000001401881
      10       -0.001286589213    -0.006143835488     0.000174834819
      11        0.000002003332    -0.000002397955     0.000002513766
      12        0.000277168756     0.001673624608     0.006671318891
      13        0.000040938922     0.000029042741    -0.000000185678
      14        0.000094475060     0.000164790983    -0.005557791402

  **** Optimization is complete! (in 6 steps) ****
    Final optimized geometry and variables:
    Molecular point group: c1

    Geometry (in Angstrom), charge = 0, multiplicity = 1:

    H            3.304037853465    -0.425902282899    -0.026560700963
    C            2.245509559650    -0.250737114890    -0.009978841845
    C            1.648316464928     0.267327694559     1.124499905795
    C            1.479761454930    -0.536818551103    -1.123902729659
    H            2.241388374547     0.493344242921     1.989590853953
    C            0.288099952912     0.504546735051     1.141247586253
    H            1.942557218854    -0.930323307957    -2.008333501018
    C            0.115126838013    -0.318891906876    -1.101909073056
    H           -0.170749842548     0.924271717662     2.017353037352
    C           -0.485551020809     0.187176956992     0.037297882116
    H           -0.483378662003    -0.551699914675    -1.961509595957
    C           -1.950651923844     0.491331653706     0.030541400686
    O           -2.797603788471    -0.325112338727    -0.077889715007
    H           -2.209939403106     1.554897599733     0.061184437685

  Mulliken Charges: (a.u.)
   Center  Symbol    Alpha    Beta     Spin     Total
       1     H     0.42065  0.42065  0.00000  0.15870
       2     C     3.08243  3.08243  0.00000 -0.16486
       3     C     3.06428  3.06428  0.00000 -0.12857
       4     C     3.06368  3.06368  0.00000 -0.12735
       5     H     0.42075  0.42075  0.00000  0.15849
       6     C     3.09860  3.09860  0.00000 -0.19719
       7     H     0.42081  0.42081  0.00000  0.15838
       8     C     3.09828  3.09828  0.00000 -0.19656
       9     H     0.42407  0.42407  0.00000  0.15186
      10     C     2.94253  2.94253  0.00000  0.11493
      11     H     0.41767  0.41767  0.00000  0.16466
      12     C     2.92862  2.92862  0.00000  0.14276
      13     O     4.15893  4.15893  0.00000 -0.31787
      14     H     0.45870  0.45870  0.00000  0.08260

   Total alpha = 28.00000, Total beta = 28.00000, Total charge =  0.00000
