  ==> Input File <==

--------------------------------------------------------------------------
set {
	reference rhf
	basis cc-pvtz
}

set_num_threads( 4 )
memory 2 gb

molecule MOL {
0 1

O	 1.212151	 0.397159	 -0.967244
C	 0.576499	 0.134701	 -0.003900
C	 -0.765656	 -0.550508	 -0.002152
O	 0.969321	 0.424944	 1.225499
C	 -1.945526	 0.411052	 0.000603
H	 -0.794329	 -1.203792	 -0.868145
H	 -0.791555	 -1.205429	 0.862701
C	 -3.282915	 -0.321280	 0.002596
H	 -1.880300	 1.059126	 -0.864925
H	 -1.877207	 1.057892	 0.866807
H	 -3.388495	 -0.952755	 -0.873419
H	 -4.107811	 0.380864	 0.004116
H	 -3.385717	 -0.953283	 0.878571
C	 2.214919	 1.076920	 1.371866
H	 3.012781	 0.468151	 0.973282
H	 2.351199	 1.222624	 2.431058
H	 2.209124	 2.028791	 0.862014

	symmetry c1
}
set optking {
	frozen_dihedral = ("
		1 2 3 6
	")
}

ee = optimize('scf')
oeprop('DIPOLE', 'QUADRUPOLE', 'MULLIKEN_CHARGES')
f=open( 'psi4out.xyz', 'w' )
f.write( "17  " )
f.write( str(ee) + "\n" )
f.write( MOL.save_string_xyz() )
f.close()
--------------------------------------------------------------------------

    Molecular point group: c1
  Charge       = 0
  Multiplicity = 1
  Basis Set: CC-PVTZ
  Basis Set:
  @DF-RHF Final Energy:  -345.03354367025997
    Total Energy =                       -345.0335436702602010
    Molecular point group: c1
  Basis Set: CC-PVTZ
  Basis Set:
  Basis Set: CC-PVTZ
  Basis Set:
  @DF-RHF Final Energy:  -345.03373828216189
    Total Energy =                       -345.0337382821619485
  Basis Set: CC-PVTZ
  Basis Set:
  Basis Set: CC-PVTZ
  Basis Set:
  @DF-RHF Final Energy:  -345.03415376519757
    Total Energy =                       -345.0341537651974022
  Basis Set: CC-PVTZ
  Basis Set:
  Basis Set: CC-PVTZ
  Basis Set:
  @DF-RHF Final Energy:  -345.03420301440411
    Total Energy =                       -345.0342030144045111
  Basis Set: CC-PVTZ
  Basis Set:
  Basis Set: CC-PVTZ
  Basis Set:
  @DF-RHF Final Energy:  -345.03420501951172
    Total Energy =                       -345.0342050195120009
  Basis Set: CC-PVTZ
  Basis Set:
  Charge       = 0
  Multiplicity = 1
  Basis Set: CC-PVTZ
  Basis Set:

    Orbital Energies (a.u.)
    -----------------------

    Doubly Occupied:

       1A    -20.597854     2A    -20.532216     3A    -11.363600
       4A    -11.278651     5A    -11.232551     6A    -11.230582
       7A    -11.216844     8A     -1.472132     9A     -1.364679
      10A     -1.085405    11A     -1.000821    12A     -0.942426
      13A     -0.830728    14A     -0.775947    15A     -0.699877
      16A     -0.683126    17A     -0.676330    18A     -0.637843
      19A     -0.596791    20A     -0.583356    21A     -0.554468
      22A     -0.543611    23A     -0.527752    24A     -0.508178
      25A     -0.488673    26A     -0.485240    27A     -0.458092
      28A     -0.435677

  @DF-RHF Final Energy:  -345.03420517518384

   => Energetics <=

    Nuclear Repulsion Energy =            314.4274196878686780
    One-Electron Energy =               -1093.3163431591260633
    Two-Electron Energy =                 433.8547182960728605
    DFT Exchange-Correlation Energy =       0.0000000000000000
    Empirical Dispersion Energy =           0.0000000000000000
    PCM Polarization Energy =               0.0000000000000000
    EFP Energy =                            0.0000000000000000
    Total Energy =                       -345.0342051751845247
    Molecular point group: c1
  Basis Set: CC-PVTZ
  Basis Set:

  -Total Gradient:
     Atom            X                  Y                   Z
    ------   -----------------  -----------------  -----------------
       1       -0.000137501014     0.000238317389     0.000022140872
       2        0.000217644728    -0.000389455071    -0.000007341568
       3       -0.000207356542     0.000352490134    -0.000156969992
       4        0.000027888988    -0.000000748722     0.000021366180
       5        0.000002166948     0.000003644701    -0.000012042798
       6        0.000112764702    -0.000208069114     0.000137952111
       7        0.000004571561     0.000000811898    -0.000009170202
       8        0.000001573633    -0.000001841699     0.000008806506
       9       -0.000004745755    -0.000001544314     0.000001593115
      10       -0.000007724978     0.000002979303    -0.000001268379
      11        0.000004608473     0.000003281505    -0.000001138455
      12        0.000006537038     0.000004417603     0.000002770635
      13       -0.000000720386    -0.000003978352    -0.000000991030
      14       -0.000028036097     0.000009894820    -0.000007204162
      15        0.000003182264    -0.000006484598    -0.000002442047
      16        0.000000245630    -0.000003403501     0.000001015370
      17        0.000004900810    -0.000000311980     0.000002923843

  **** Optimization is complete! (in 6 steps) ****
    Final optimized geometry and variables:
    Molecular point group: c1

    Geometry (in Angstrom), charge = 0, multiplicity = 1:

    O            1.288541321989     0.184478307656    -1.209729980175
    C            0.691536017925    -0.121961337482    -0.233823709978
    C           -0.636936797968    -0.831109101389    -0.233149472113
    O            1.110130763435     0.157666882840     0.989277477912
    C           -1.797674034482     0.170460894640    -0.236162744434
    H           -0.675542411861    -1.447624618635    -1.120692456482
    H           -0.701282283595    -1.468903499832     0.638848505657
    C           -3.154959331723    -0.522492997540    -0.259310183524
    H           -1.702111659994     0.817843380946    -1.100740635427
    H           -1.726236635436     0.803123079993     0.641998431805
    H           -3.262364200741    -1.142398271545    -1.142658995446
    H           -3.959244176118     0.203376410251    -0.263821541065
    H           -3.285804481122    -1.157559966817     0.610173949312
    C            2.324910123833     0.870005138834     1.111165680862
    H            3.138654935463     0.312091914288     0.672375863450
    H            2.489387779362     0.999480377803     2.168562918005
    H            2.253623381711     1.831108969215     0.623916697955

  Mulliken Charges: (a.u.)
   Center  Symbol    Alpha    Beta     Spin     Total
       1     O     4.20351  4.20351  0.00000 -0.40703
       2     C     2.80584  2.80584  0.00000  0.38832
       3     C     3.07796  3.07796  0.00000 -0.15592
       4     O     4.14968  4.14968  0.00000 -0.29937
       5     C     3.09281  3.09281  0.00000 -0.18562
       6     H     0.43988  0.43988  0.00000  0.12023
       7     H     0.44473  0.44473  0.00000  0.11054
       8     C     3.15125  3.15125  0.00000 -0.30250
       9     H     0.44382  0.44382  0.00000  0.11237
      10     H     0.44764  0.44764  0.00000  0.10472
      11     H     0.45287  0.45287  0.00000  0.09427
      12     H     0.44613  0.44613  0.00000  0.10774
      13     H     0.45420  0.45420  0.00000  0.09160
      14     C     3.03666  3.03666  0.00000 -0.07333
      15     H     0.45302  0.45302  0.00000  0.09395
      16     H     0.44548  0.44548  0.00000  0.10904
      17     H     0.45451  0.45451  0.00000  0.09098

   Total alpha = 28.00000, Total beta = 28.00000, Total charge = -0.00000
