                              Psi4 1.0.54 Driver

  ==> Input File <==

--------------------------------------------------------------------------
set {
	reference rhf
	basis cc-pvtz
}

set_num_threads( 4 )
memory 2 gb

molecule MOL {
0 1

H	 -3.144994	 -1.202467	 -0.018751
O	 -2.321472	 -0.864941	 -0.318626
C	 -2.021813	 0.336996	 0.342658
C	 -0.669613	 0.837286	 -0.127252
H	 -2.780861	 1.084746	 0.127159
H	 -2.006390	 0.184138	 1.420053
C	 0.490865	 -0.082543	 0.241244
H	 -0.708709	 0.967192	 -1.204587
H	 -0.507562	 1.822272	 0.303070
C	 0.165850	 -1.560887	 0.047671
H	 0.772570	 0.095010	 1.272832
H	 1.357526	 0.175552	 -0.364073
C	 1.327734	 -2.480517	 0.408355
H	 -0.698337	 -1.819490	 0.653482
H	 -0.123805	 -1.735732	 -0.985392
H	 1.617619	 -2.354367	 1.446126
H	 1.065264	 -3.522191	 0.262311
H	 2.198323	 -2.270047	 -0.204198

	symmetry c1
}
set optking {
	frozen_dihedral = ("
		10 7 4 8
	")
}

ee,wfn = optimize('scf', return_wfn=True)
oeprop( wfn, 'DIPOLE', 'QUADRUPOLE', 'MULLIKEN_CHARGES')
f=open( 'psi4out.xyz', 'w' )
f.write( "18  " )
f.write( str(ee) + "\n" )
f.write( MOL.save_string_xyz() )
f.close()
--------------------------------------------------------------------------

    Molecular point group: c1
  Charge       = 0
  Multiplicity = 1
  Basis Set: CC-PVTZ
  Basis Set:
  @DF-RHF Final Energy:  -271.27308102436950
    Total Energy =                       -271.2730810243694464
    Molecular point group: c1
  Basis Set: CC-PVTZ
  Basis Set:
  Basis Set: CC-PVTZ
  Basis Set:
  @DF-RHF Final Energy:  -271.27994116052520
    Total Energy =                       -271.2799411605253113
  Basis Set: CC-PVTZ
  Basis Set:
  Basis Set: CC-PVTZ
  Basis Set:
  @DF-RHF Final Energy:  -271.28145981622259
    Total Energy =                       -271.2814598162227639
  Basis Set: CC-PVTZ
  Basis Set:
  Basis Set: CC-PVTZ
  Basis Set:
  @DF-RHF Final Energy:  -271.28180568484231
    Total Energy =                       -271.2818056848423112
  Basis Set: CC-PVTZ
  Basis Set:
  Basis Set: CC-PVTZ
  Basis Set:
  @DF-RHF Final Energy:  -271.28185727513164
    Total Energy =                       -271.2818572751315287
  Basis Set: CC-PVTZ
  Basis Set:
  Basis Set: CC-PVTZ
  Basis Set:
  @DF-RHF Final Energy:  -271.28188333282992
    Total Energy =                       -271.2818833328300343
  Basis Set: CC-PVTZ
  Basis Set:
  Basis Set: CC-PVTZ
  Basis Set:
  @DF-RHF Final Energy:  -271.28188788750924
    Total Energy =                       -271.2818878875095834
  Basis Set: CC-PVTZ
  Basis Set:
  Charge       = 0
  Multiplicity = 1
  Basis Set: CC-PVTZ
  Basis Set:

    Orbital Energies (a.u.)
    -----------------------

    Doubly Occupied:

       1A    -20.546337     2A    -11.267275     3A    -11.211769
       4A    -11.208626     5A    -11.202022     6A    -11.199615
       7A     -1.364541     8A     -1.073290     9A     -1.007569
      10A     -0.914127    11A     -0.830091    12A     -0.770868
      13A     -0.705634    14A     -0.651139    15A     -0.619420
      16A     -0.579083    17A     -0.571308    18A     -0.553825
      19A     -0.532950    20A     -0.505178    21A     -0.486322
      22A     -0.466354    23A     -0.450910    24A     -0.449128
      25A     -0.428660

  @DF-RHF Final Energy:  -271.28188813964670

   => Energetics <=

    Nuclear Repulsion Energy =            254.9525258413448796
    One-Electron Energy =                -873.2767475616809634
    Two-Electron Energy =                 347.0423335806895011
    DFT Exchange-Correlation Energy =       0.0000000000000000
    Empirical Dispersion Energy =           0.0000000000000000
    PCM Polarization Energy =               0.0000000000000000
    EFP Energy =                            0.0000000000000000
    Total Energy =                       -271.2818881396465258
    Molecular point group: c1
  Basis Set: CC-PVTZ
  Basis Set:

  -Total Gradient:
     Atom            X                  Y                   Z
    ------   -----------------  -----------------  -----------------
       1        0.000000047777     0.000000958683    -0.000006452747
       2       -0.000013104443     0.000007557144     0.000022821026
       3       -0.000008933883    -0.000000201240    -0.000025998920
       4       -0.003625837125    -0.004497058144     0.000684560007
       5       -0.000003174010    -0.000006239092    -0.000000638604
       6        0.000005892621     0.000001713710    -0.000007215270
       7        0.002399611683     0.001281522681    -0.004189822186
       8        0.002467800023     0.003496435753     0.000549586693
       9       -0.000005996173     0.000007779855    -0.000001962435
      10       -0.001227118944    -0.000285523696     0.002989438955
      11       -0.000003127466    -0.000005955010    -0.000012657435
      12        0.000004331323     0.000003074193     0.000002003692
      13       -0.000008481139    -0.000006770168    -0.000011536276
      14        0.000010190977    -0.000000217859    -0.000011870877
      15        0.000006433730     0.000006634834     0.000020485835
      16       -0.000001352329    -0.000001287407    -0.000012477458
      17        0.000005183259     0.000000739245     0.000000333687
      18       -0.000002365880    -0.000003163484     0.000011402312

  **** Optimization is complete! (in 8 steps) ****
    Final optimized geometry and variables:
    Molecular point group: c1

    Geometry (in Angstrom), charge = 0, multiplicity = 1:

    H           -2.855089182835    -0.339516329692    -0.320028899594
    O           -1.999894428211    -0.062349700954    -0.592318075167
    C           -1.541690949589     0.971032074987     0.240604418234
    C           -0.155671296879     1.411738397253    -0.193868666139
    H           -2.216304701024     1.820815437537     0.178627773219
    H           -1.521949373515     0.645992642250     1.279390196847
    C            1.024278126049     0.516444507771     0.207842153606
    H           -0.157305947015     1.578314119421    -1.266280060663
    H            0.018316754092     2.390652467283     0.245609849581
    C            0.857217382709    -0.987295882761    -0.004584132891
    H            1.237262142834     0.683691110554     1.261915586523
    H            1.903676194963     0.859098845396    -0.329708850415
    C            2.115868714247    -1.762874692180     0.371738363923
    H            0.022082024096    -1.350715881560     0.581327864652
    H            0.602453851182    -1.186447128610    -1.040058886327
    H            2.379346094354    -1.604546872696     1.412851256030
    H            1.977913265581    -2.828195654759     0.225378961366
    H            2.963645233847    -1.454253952348    -0.231365142902

  Mulliken Charges: (a.u.)
   Center  Symbol    Alpha    Beta     Spin     Total
       1     H     0.39617  0.39617  0.00000  0.20766
       2     O     4.19820  4.19820  0.00000 -0.39639
       3     C     2.98414  2.98414  0.00000  0.03172
       4     C     3.09495  3.09495  0.00000 -0.18989
       5     H     0.45866  0.45866  0.00000  0.08268
       6     H     0.46931  0.46931  0.00000  0.06138
       7     C     3.09727  3.09727  0.00000 -0.19453
       8     H     0.45001  0.45001  0.00000  0.09997
       9     H     0.45041  0.45041  0.00000  0.09918
      10     C     3.07590  3.07590  0.00000 -0.15180
      11     H     0.45661  0.45661  0.00000  0.08677
      12     H     0.45091  0.45091  0.00000  0.09818
      13     C     3.15137  3.15137  0.00000 -0.30274
      14     H     0.45405  0.45405  0.00000  0.09191
      15     H     0.44899  0.44899  0.00000  0.10202
      16     H     0.45786  0.45786  0.00000  0.08429
      17     H     0.44898  0.44898  0.00000  0.10204
      18     H     0.45622  0.45622  0.00000  0.08757

   Total alpha = 25.00000, Total beta = 25.00000, Total charge =  0.00000

*** Psi4 exiting successfully. Buy a developer a beer!
