                              Psi4 1.0.54 Driver

  ==> Input File <==

--------------------------------------------------------------------------
set {
	reference rhf
	basis cc-pvtz
}

set_num_threads( 4 )
memory 2 gb

molecule MOL {
0 1

H	 0.407961	 -0.894824	 -4.583713
O	 0.346550	 -1.723652	 -5.020866
C	 0.834720	 -2.746491	 -4.193361
C	 -0.091721	 -3.083132	 -3.034453
H	 0.947107	 -3.613438	 -4.830348
H	 1.824217	 -2.491683	 -3.818637
C	 -0.257745	 -1.956936	 -2.016628
H	 -1.062006	 -3.358628	 -3.436706
H	 0.304628	 -3.963883	 -2.534872
C	 -1.167838	 -2.342710	 -0.851404
H	 -0.659446	 -1.080423	 -2.513985
H	 0.719576	 -1.675880	 -1.627867
C	 -1.311023	 -1.277304	 0.237018
H	 -2.152405	 -2.596799	 -1.236493
H	 -0.779074	 -3.249032	 -0.395431
C	 -2.041121	 -0.006551	 -0.194127
H	 -1.846283	 -1.715690	 1.074779
H	 -0.324950	 -1.015129	 0.613952
C	 -3.489218	 0.042606	 0.286507
H	 -2.022185	 0.066287	 -1.279394
H	 -1.518764	 0.869305	 0.178730
C	 -4.219984	 1.311773	 -0.139038
H	 -4.022855	 -0.824300	 -0.093339
H	 -3.510372	 -0.038577	 1.370031
H	 -4.244251	 1.405725	 -1.219696
H	 -5.244345	 1.313233	 0.215630
H	 -3.732090	 2.196311	 0.257073

	symmetry c1
}
set optking {
	frozen_dihedral = ("
		10 13 16 20
	")
}

ee,wfn = optimize('scf', return_wfn=True)
oeprop( wfn, 'DIPOLE', 'QUADRUPOLE', 'MULLIKEN_CHARGES')
f=open( 'psi4out.xyz', 'w' )
f.write( "27  " )
f.write( str(ee) + "\n" )
f.write( MOL.save_string_xyz() )
f.close()
--------------------------------------------------------------------------

    Molecular point group: c1
  Charge       = 0
  Multiplicity = 1
  Basis Set: CC-PVTZ
  Basis Set:
  @DF-RHF Final Energy:  -388.42295504664349
    Total Energy =                       -388.4229550466434375
    Molecular point group: c1
  Basis Set: CC-PVTZ
  Basis Set:
  Basis Set: CC-PVTZ
  Basis Set:
  @DF-RHF Final Energy:  -388.42325453836747
    Total Energy =                       -388.4232545383671322
  Basis Set: CC-PVTZ
  Basis Set:
  Basis Set: CC-PVTZ
  Basis Set:
  @DF-RHF Final Energy:  -388.42355028142214
    Total Energy =                       -388.4235502814221945
  Basis Set: CC-PVTZ
  Basis Set:
  Basis Set: CC-PVTZ
  Basis Set:
  @DF-RHF Final Energy:  -388.42355784139664
    Total Energy =                       -388.4235578413964731
  Basis Set: CC-PVTZ
  Basis Set:
  Basis Set: CC-PVTZ
  Basis Set:
  @DF-RHF Final Energy:  -388.42356516190694
    Total Energy =                       -388.4235651619069358
  Basis Set: CC-PVTZ
  Basis Set:
  Basis Set: CC-PVTZ
  Basis Set:
  @DF-RHF Final Energy:  -388.42356766260360
    Total Energy =                       -388.4235676626034319
  Basis Set: CC-PVTZ
  Basis Set:
  Charge       = 0
  Multiplicity = 1
  Basis Set: CC-PVTZ
  Basis Set:

    Orbital Energies (a.u.)
    -----------------------

    Doubly Occupied:

       1A    -20.545504     2A    -11.265133     3A    -11.216868
       4A    -11.214984     5A    -11.213560     6A    -11.213389
       7A    -11.212884     8A    -11.211667     9A    -11.206538
      10A     -1.363393    11A     -1.095590    12A     -1.061627
      13A     -1.011413    14A     -0.948689    15A     -0.887570
      16A     -0.824299    17A     -0.802977    18A     -0.774828
      19A     -0.696606    20A     -0.654964    21A     -0.629617
      22A     -0.615021    23A     -0.606482    24A     -0.589814
      25A     -0.576364    26A     -0.560276    27A     -0.535398
      28A     -0.530123    29A     -0.506581    30A     -0.494333
      31A     -0.484377    32A     -0.482099    33A     -0.468275
      34A     -0.452952    35A     -0.449539    36A     -0.445355
      37A     -0.426116

  @DF-RHF Final Energy:  -388.42356781064217

   => Energetics <=

    Nuclear Repulsion Energy =            462.5694986381775493
    One-Electron Energy =               -1443.4357233505982094
    Two-Electron Energy =                 592.4426569017787187
    DFT Exchange-Correlation Energy =       0.0000000000000000
    Empirical Dispersion Energy =           0.0000000000000000
    PCM Polarization Energy =               0.0000000000000000
    EFP Energy =                            0.0000000000000000
    Total Energy =                       -388.4235678106419982
    Molecular point group: c1
  Basis Set: CC-PVTZ
  Basis Set:

  -Total Gradient:
     Atom            X                  Y                   Z
    ------   -----------------  -----------------  -----------------
       1        0.000009695789    -0.000015777438     0.000009193526
       2       -0.000004203137    -0.000029643322    -0.000021276313
       3        0.000004570878     0.000013598042     0.000016936530
       4       -0.000013497249     0.000010545576    -0.000017703769
       5        0.000001832530     0.000011982073    -0.000019863102
       6       -0.000006305138     0.000003516885     0.000001329567
       7       -0.000009980305    -0.000001278218     0.000006344551
       8        0.000000718752    -0.000006177132    -0.000007397366
       9       -0.000001606955     0.000009888365    -0.000007348265
      10        0.001489491266     0.000816816804    -0.000643431417
      11       -0.000002211156    -0.000002739062    -0.000003570701
      12        0.000000797733    -0.000004202836     0.000012039754
      13       -0.002500740180    -0.001517339701     0.001020938283
      14        0.000006399650     0.000013835471     0.000002319179
      15        0.000004241054    -0.000015194452     0.000006695714
      16        0.002997628634     0.002117656393    -0.000456901277
      17        0.000020714034    -0.000018043379     0.000013284120
      18       -0.000008500998    -0.000034178027    -0.000013471777
      19       -0.000010047514     0.000007524100    -0.000034841725
      20       -0.001981568707    -0.001376881543     0.000156509906
      21       -0.000006333895     0.000018943991    -0.000012402261
      22       -0.000005122155     0.000003928336     0.000000999069
      23       -0.000008506628    -0.000014379589    -0.000001930044
      24        0.000012449319     0.000003494434    -0.000017968363
      25       -0.000001237344    -0.000004133239     0.000015795210
      26        0.000004177380    -0.000003539719    -0.000001610496
      27        0.000007144344     0.000011777187    -0.000002668536

  **** Optimization is complete! (in 7 steps) ****
    Final optimized geometry and variables:
    Molecular point group: c1

    Geometry (in Angstrom), charge = 0, multiplicity = 1:

    H            1.795648852907     0.459772764592    -2.843065471263
    O            1.666653531522    -0.348499460220    -3.303161118459
    C            2.084616932864    -1.429559702093    -2.512101726730
    C            1.143256387235    -1.734396303817    -1.356521906056
    H            2.130229995245    -2.281846444238    -3.176559120312
    H            3.092069060876    -1.258531175095    -2.137881811185
    C            1.057485413409    -0.626723470128    -0.309127869588
    H            0.154998157757    -1.934183734042    -1.759481122854
    H            1.482415205318    -2.652499373331    -0.882676524335
    C            0.156796942688    -0.990362977642     0.870073601628
    H            0.694696265760     0.283539092990    -0.775767107030
    H            2.055485203427    -0.407084857250     0.065531852570
    C            0.023240775963     0.114492079484     1.921870926110
    H           -0.829458817225    -1.261209935281     0.500287102085
    H            0.555645676143    -1.882373936403     1.344905772423
    C           -0.859727434834     1.302787693302     1.496214752032
    H           -0.377440412513    -0.313839167823     2.834778320872
    H            1.019093896536     0.467208556674     2.173446272798
    C           -2.268701503091     1.244252711574     2.086502863136
    H           -0.952240310207     1.327244568626     0.415022591386
    H           -0.396373108529     2.239557079282     1.788179107887
    C           -3.164781526534     2.384405881382     1.615775415868
    H           -2.728128868766     0.294062777066     1.826591057145
    H           -2.201754410791     1.262197875445     3.170714429178
    H           -3.286006660881     2.368207641285     0.537708464231
    H           -4.151409422721     2.318447968530     2.059931496796
    H           -2.745002998152     3.348199388568     1.884898986238

  Mulliken Charges: (a.u.)
   Center  Symbol    Alpha    Beta     Spin     Total
       1     H     0.39207  0.39207  0.00000  0.21586
       2     O     4.20575  4.20575  0.00000 -0.41150
       3     C     2.98005  2.98005  0.00000  0.03989
       4     C     3.08928  3.08928  0.00000 -0.17855
       5     H     0.44860  0.44860  0.00000  0.10280
       6     H     0.46927  0.46927  0.00000  0.06146
       7     C     3.10250  3.10250  0.00000 -0.20499
       8     H     0.45070  0.45070  0.00000  0.09859
       9     H     0.45518  0.45518  0.00000  0.08964
      10     C     3.09689  3.09689  0.00000 -0.19378
      11     H     0.45564  0.45564  0.00000  0.08872
      12     H     0.45339  0.45339  0.00000  0.09322
      13     C     3.10907  3.10907  0.00000 -0.21813
      14     H     0.45198  0.45198  0.00000  0.09604
      15     H     0.44772  0.44772  0.00000  0.10457
      16     C     3.09701  3.09701  0.00000 -0.19402
      17     H     0.44740  0.44740  0.00000  0.10520
      18     H     0.44734  0.44734  0.00000  0.10531
      19     C     3.08112  3.08112  0.00000 -0.16224
      20     H     0.45436  0.45436  0.00000  0.09128
      21     H     0.44763  0.44763  0.00000  0.10475
      22     C     3.15051  3.15051  0.00000 -0.30101
      23     H     0.45427  0.45427  0.00000  0.09146
      24     H     0.45372  0.45372  0.00000  0.09256
      25     H     0.45499  0.45499  0.00000  0.09003
      26     H     0.44828  0.44828  0.00000  0.10343
      27     H     0.45529  0.45529  0.00000  0.08942

   Total alpha = 37.00000, Total beta = 37.00000, Total charge = -0.00000

*** Psi4 exiting successfully. Buy a developer a beer!
