  ==> Input File <==

--------------------------------------------------------------------------
set {
	reference rhf
	basis 6-31G*
}

set_num_threads( 4 )
memory 2 gb

molecule MOL {
0 1

H	 -1.676090	 0.317094	 -2.259070
C	 -1.227619	 0.151024	 -1.299539
C	 -1.939961	 0.406990	 -0.081108
C	 0.027169	 -0.306240	 -1.200376
H	 -2.949690	 0.774875	 -0.127499
C	 -1.357978	 0.191622	 1.107326
H	 0.627462	 -0.522417	 -2.063695
N	 0.640212	 -0.532897	 -0.000111
H	 -1.859323	 0.371542	 2.038260
C	 0.007439	 -0.306006	 1.214959
C	 2.010177	 -1.032049	 0.000042
O	 0.566026	 -0.512571	 2.263538
H	 2.187698	 -1.635381	 -0.882279
H	 2.677579	 -0.189247	 -0.001871
H	 2.188882	 -1.632203	 0.884288

	symmetry c1
}
set optking {
	frozen_dihedral = ("
		10 8 11 13
	")
}

ee = optimize('scf')
oeprop('DIPOLE', 'QUADRUPOLE', 'MULLIKEN_CHARGES')
f=open( 'psi4out.xyz', 'w' )
f.write( "15  " )
f.write( str(ee) + "\n" )
f.write( MOL.save_string_xyz() )
f.close()
--------------------------------------------------------------------------

    Molecular point group: c1
  Charge       = 0
  Multiplicity = 1
  Basis Set: 6-31G*
  Basis Set:
  @DF-RHF Final Energy:  -360.59559320497596
    Total Energy =                       -360.5955932049758985
    Molecular point group: c1
  Basis Set: 6-31G*
  Basis Set:
  Basis Set: 6-31G*
  Basis Set:
  @DF-RHF Final Energy:  -360.59610856746241
    Total Energy =                       -360.5961085674624087
  Basis Set: 6-31G*
  Basis Set:
  Basis Set: 6-31G*
  Basis Set:
  @DF-RHF Final Energy:  -360.59616176978295
    Total Energy =                       -360.5961617697828956
  Basis Set: 6-31G*
  Basis Set:
  Basis Set: 6-31G*
  Basis Set:
  @DF-RHF Final Energy:  -360.59616078826809
    Total Energy =                       -360.5961607882678095
  Basis Set: 6-31G*
  Basis Set:
  Charge       = 0
  Multiplicity = 1
  Basis Set: 6-31G*
  Basis Set:

    Orbital Energies (a.u.)
    -----------------------

    Doubly Occupied:

       1A    -20.508745     2A    -15.621867     3A    -11.342485
       4A    -11.297287     5A    -11.265492     6A    -11.260378
       7A    -11.233255     8A    -11.228979     9A     -1.384670
      10A     -1.280997    11A     -1.114829    12A     -1.025989
      13A     -0.970153    14A     -0.872445    15A     -0.835540
      16A     -0.715687    17A     -0.697928    18A     -0.661022
      19A     -0.648452    20A     -0.622249    21A     -0.606548
      22A     -0.572660    23A     -0.550951    24A     -0.547069
      25A     -0.526909    26A     -0.477016    27A     -0.414111
      28A     -0.405587    29A     -0.304827

  @DF-RHF Final Energy:  -360.59619022290053

   => Energetics <=

    Nuclear Repulsion Energy =            357.7651630173462536
    One-Electron Energy =               -1198.7344554457270078
    Two-Electron Energy =                 480.3731022054802224
    DFT Exchange-Correlation Energy =       0.0000000000000000
    Empirical Dispersion Energy =           0.0000000000000000
    PCM Polarization Energy =               0.0000000000000000
    EFP Energy =                            0.0000000000000000
    Total Energy =                       -360.5961902229005318
    Molecular point group: c1
  Basis Set: 6-31G*
  Basis Set:

  -Total Gradient:
     Atom            X                  Y                   Z
    ------   -----------------  -----------------  -----------------
       1       -0.000001371567     0.000014683076    -0.000000426944
       2        0.000092541624     0.000012708809    -0.000004723771
       3       -0.000039169004    -0.000018544063     0.000071374413
       4       -0.000142596464    -0.000075322597    -0.000092899767
       5        0.000003329648     0.000008755316    -0.000006509588
       6       -0.000071868839     0.000042226955    -0.000029485663
       7        0.000020284427     0.000026334490     0.000017444303
       8        0.000296434755     0.000797230761     0.000209849394
       9        0.000006204147     0.000002396945     0.000001775841
      10       -0.000141385930    -0.000678989009    -0.000109245450
      11        0.000166401399     0.000466786125    -0.000498117360
      12        0.000001615878     0.000021378888     0.000028205410
      13       -0.000205896105    -0.000620521059     0.000387448487
      14       -0.000015942802     0.000014070583     0.000006302616
      15        0.000031418834    -0.000013195221     0.000019008075

  **** Optimization is complete! (in 5 steps) ****
    Final optimized geometry and variables:
    Molecular point group: c1

    Geometry (in Angstrom), charge = 0, multiplicity = 1:

    H           -1.590093089887     0.594514960992    -2.533510337932
    C           -1.138304513900     0.421984154789    -1.576740822618
    C           -1.847595373947     0.667942417399    -0.355011609699
    C            0.116209688742    -0.039761682663    -1.486471889883
    H           -2.858165053698     1.033997714824    -0.396862195724
    C           -1.262356231886     0.445728475465     0.831026679466
    H            0.711009714910    -0.251186155605    -2.354090238339
    N            0.729517700524    -0.279006286702    -0.289511000830
    H           -1.760572063812     0.619885334396     1.764850237068
    C            0.106873604990    -0.041017534993     0.927663498472
    C            2.104282883243    -0.763570596568    -0.265378887447
    O            0.686566239694    -0.232199371968     1.967783257489
    H            2.280794909316    -1.380278153332    -1.136094393175
    H            2.805116126583     0.062818202228    -0.258046760980
    H            2.251138014420    -1.349221275505     0.625782359258

  Mulliken Charges: (a.u.)
   Center  Symbol    Alpha    Beta     Spin     Total
       1     H     0.39298  0.39298  0.00000  0.21404
       2     C     3.16199  3.16199  0.00000 -0.32398
       3     C     3.05825  3.05825  0.00000 -0.11651
       4     C     2.92128  2.92128  0.00000  0.15744
       5     H     0.39088  0.39088  0.00000  0.21825
       6     C     3.16968  3.16968  0.00000 -0.33936
       7     H     0.38784  0.38784  0.00000  0.22433
       8     N     3.86471  3.86471  0.00000 -0.72941
       9     H     0.38642  0.38642  0.00000  0.22717
      10     C     2.59539  2.59539  0.00000  0.80922
      11     C     3.14669  3.14669  0.00000 -0.29337
      12     O     4.32176  4.32176  0.00000 -0.64353
      13     H     0.41426  0.41426  0.00000  0.17147
      14     H     0.40575  0.40575  0.00000  0.18850
      15     H     0.38213  0.38213  0.00000  0.23575

   Total alpha = 29.00000, Total beta = 29.00000, Total charge = -0.00000
