  ==> Input File <==

--------------------------------------------------------------------------
set {
	reference rhf
	basis cc-pvtz
}

set_num_threads( 4 )
memory 2 gb

molecule MOL {
0 1

H	 -1.835082	 1.385983	 0.000069
C	 -1.300516	 0.441153	 -0.000028
O	 -0.006604	 0.654344	 -0.000106
O	 -1.828920	 -0.612308	 0.000113
C	 0.852093	 -0.482521	 -0.000161
C	 0.043166	 -1.671385	 0.461294
H	 1.687793	 -0.288996	 0.657192
H	 1.240180	 -0.627039	 -0.998392
H	 -0.342144	 -1.511186	 1.460215
H	 0.669146	 -2.555622	 0.472586
H	 -0.792028	 -1.850915	 -0.203680

	symmetry c1
}
set optking {
	frozen_dihedral = ("
		7 5 3 2
	")
}

ee = optimize('scf')
oeprop('DIPOLE', 'QUADRUPOLE', 'MULLIKEN_CHARGES')
f=open( 'psi4out.xyz', 'w' )
f.write( "11  " )
f.write( str(ee) + "\n" )
f.write( MOL.save_string_xyz() )
f.close()
--------------------------------------------------------------------------

    Molecular point group: c1
  Charge       = 0
  Multiplicity = 1
  Basis Set: CC-PVTZ
  Basis Set:
  @DF-RHF Final Energy:  -266.87108755002652
    Total Energy =                       -266.8710875500265729
    Molecular point group: c1
  Basis Set: CC-PVTZ
  Basis Set:
  Basis Set: CC-PVTZ
  Basis Set:
  @DF-RHF Final Energy:  -266.90793392446409
    Total Energy =                       -266.9079339244639186
  Basis Set: CC-PVTZ
  Basis Set:
  Basis Set: CC-PVTZ
  Basis Set:
  @DF-RHF Final Energy:  -266.90469222973297
    Total Energy =                       -266.9046922297328592
  Basis Set: CC-PVTZ
  Basis Set:
  Basis Set: CC-PVTZ
  Basis Set:
  @DF-RHF Final Energy:  -266.91533111692036
    Total Energy =                       -266.9153311169204699
  Basis Set: CC-PVTZ
  Basis Set:
  @DF-RHF Final Energy:  -266.92017597749157
    Total Energy =                       -266.9201759774916809
  @DF-RHF Final Energy:  -266.92098908790240
    Total Energy =                       -266.9209890879022282
  Basis Set: CC-PVTZ
  Basis Set:
  @DF-RHF Final Energy:  -266.92121432418583
    Total Energy =                       -266.9212143241859962
  Basis Set: CC-PVTZ
  Basis Set:
  Basis Set: CC-PVTZ
  Basis Set:
  @DF-RHF Final Energy:  -266.92126934942723
    Total Energy =                       -266.9212693494272344
  Basis Set: CC-PVTZ
  Basis Set:
  Basis Set: CC-PVTZ
  Basis Set:
  @DF-RHF Final Energy:  -266.92128069842755
    Total Energy =                       -266.9212806984277222
  Basis Set: CC-PVTZ
  Basis Set:
  Charge       = 0
  Multiplicity = 1
  Basis Set: CC-PVTZ
  Basis Set:

    Orbital Energies (a.u.)
    -----------------------

    Doubly Occupied:

       1A    -20.602066     2A    -20.541411     3A    -11.370665
       4A    -11.295639     5A    -11.218981     6A     -1.471634
       7A     -1.376378     8A     -1.050469     9A     -0.919487
      10A     -0.795601    11A     -0.723749    12A     -0.687658
      13A     -0.674303    14A     -0.613955    15A     -0.582755
      16A     -0.546044    17A     -0.530053    18A     -0.504198
      19A     -0.455349    20A     -0.447934

  @DF-RHF Final Energy:  -266.92128160785114

   => Energetics <=

    Nuclear Repulsion Energy =            182.5937107543640252
    One-Electron Energy =                -726.2133293155285401
    Two-Electron Energy =                 276.6983369533135715
    DFT Exchange-Correlation Energy =       0.0000000000000000
    Empirical Dispersion Energy =           0.0000000000000000
    PCM Polarization Energy =               0.0000000000000000
    EFP Energy =                            0.0000000000000000
    Total Energy =                       -266.9212816078509718
    Molecular point group: c1
  Basis Set: CC-PVTZ
  Basis Set:

  -Total Gradient:
     Atom            X                  Y                   Z
    ------   -----------------  -----------------  -----------------
       1        0.000018962116    -0.000007182744     0.000014416511
       2       -0.000055427854     0.000080135535     0.003860921166
       3       -0.000326451242    -0.000408864339    -0.005422824840
       4       -0.000002370476     0.000012359417     0.000001186091
       5        0.002420128637     0.001690215829    -0.001509553457
       6       -0.000010117306    -0.000006415342    -0.000000886272
       7       -0.002039272004    -0.001365622004     0.003047345162
       8        0.000000016682    -0.000000327162     0.000001973618
       9        0.000001738074     0.000005600213     0.000014831485
      10       -0.000005100148     0.000002160466     0.000000964973
      11       -0.000002106480    -0.000002059869    -0.000008374437

  **** Optimization is complete! (in 10 steps) ****
    Final optimized geometry and variables:
    Molecular point group: c1

    Geometry (in Angstrom), charge = 0, multiplicity = 1:

    H           -1.186841525127     1.950392509136     0.014419910066
    C           -0.847847145091     0.922993246709    -0.086016915122
    O            0.462194580057     0.910121920224    -0.095274529995
    O           -1.584518535309     0.009322530973    -0.185844168570
    C            1.293594118812    -0.255077721097    -0.073933112652
    C            0.689718049278    -1.553123751467     0.431577386736
    H            2.098988458833     0.023776299259     0.588893259362
    H            1.686770470811    -0.377233120547    -1.073392426997
    H            0.239993868529    -1.427938713498     1.407601506347
    H            1.505101814482    -2.262810194485     0.525697118688
    H           -0.051704972447    -1.958414750112    -0.235882047401

  Mulliken Charges: (a.u.)
   Center  Symbol    Alpha    Beta     Spin     Total
       1     H     0.44680  0.44680  0.00000  0.10640
       2     C     2.84518  2.84518  0.00000  0.30963
       3     O     4.14864  4.14864  0.00000 -0.29729
       4     O     4.19557  4.19557  0.00000 -0.39114
       5     C     2.97269  2.97269  0.00000  0.05462
       6     C     3.15213  3.15213  0.00000 -0.30427
       7     H     0.45035  0.45035  0.00000  0.09930
       8     H     0.45340  0.45340  0.00000  0.09319
       9     H     0.44764  0.44764  0.00000  0.10473
      10     H     0.45105  0.45105  0.00000  0.09790
      11     H     0.43654  0.43654  0.00000  0.12693

   Total alpha = 20.00000, Total beta = 20.00000, Total charge = -0.00000
