  ==> Input File <==

--------------------------------------------------------------------------
set {
	reference rhf
	basis 6-31G*
}

set_num_threads( 1 )
memory 2 gb

molecule MOL {
0 1

O	 2.876414	 1.334293	 -0.231951
C	 2.843464	 0.164689	 -0.000222
C	 1.546494	 -0.624492	 -0.000609
C	 4.105166	 -0.613673	 0.311892
C	 0.291004	 0.242674	 0.000989
H	 1.557904	 -1.283758	 -0.867573
H	 1.558622	 -1.285963	 0.864672
C	 -0.994322	 -0.586602	 0.000262
H	 0.309117	 0.896430	 -0.865270
H	 0.309661	 0.894078	 0.869017
C	 -2.259874	 0.272531	 0.000494
H	 -1.004862	 -1.240012	 -0.870939
H	 -1.005220	 -1.241071	 0.870675
C	 -3.549786	 -0.549746	 -0.000374
H	 -2.250389	 0.926680	 -0.869574
H	 -2.250838	 0.925513	 0.871430
C	 -4.809590	 0.315458	 -0.000369
H	 -3.560515	 -1.202009	 -0.871156
H	 -3.561123	 -1.202955	 0.869711
H	 -4.844746	 0.956611	 -0.876632
H	 -5.706986	 -0.295590	 -0.001609
H	 -4.845960	 0.954827	 0.877144
H	 4.242901	 -1.416267	 -0.406780
H	 4.959228	 0.048515	 0.281568
H	 4.035106	 -1.070043	 1.294976

	symmetry c1
}
set optking {
	frozen_dihedral = ("
		9 5 8 12,
		15 11 8 12,
		15 11 14 18,
		9 5 3 6
	")
}

ee = energy('scf')
oeprop('DIPOLE', 'QUADRUPOLE', 'MULLIKEN_CHARGES')
f=open( 'psi4out.xyz', 'w' )
f.write( "25  " )
f.write( str(ee) + "\n" )
f.write( MOL.save_string_xyz() )
f.close()
--------------------------------------------------------------------------

    Molecular point group: c1

    Geometry (in Angstrom), charge = 0, multiplicity = 1:

       Center              X                  Y                   Z               Mass
    ------------   -----------------  -----------------  -----------------  -----------------
           O          2.876989917986     1.333351013028    -0.241422831842    15.994914619560
           C          2.844039917986     0.163747013028    -0.009693831842    12.000000000000
           C          1.547069917986    -0.625433986972    -0.010080831842    12.000000000000
           C          4.105741917986    -0.614614986972     0.302420168158    12.000000000000
           C          0.291579917986     0.241732013028    -0.008482831842    12.000000000000
           H          1.558479917986    -1.284699986972    -0.877044831842     1.007825032070
           H          1.559197917986    -1.286904986972     0.855200168158     1.007825032070
           C         -0.993746082014    -0.587543986972    -0.009209831842    12.000000000000
           H          0.309692917986     0.895488013028    -0.874741831842     1.007825032070
           H          0.310236917986     0.893136013028     0.859545168158     1.007825032070
           C         -2.259298082014     0.271589013028    -0.008977831842    12.000000000000
           H         -1.004286082014    -1.240953986972    -0.880410831842     1.007825032070
           H         -1.004644082014    -1.242012986972     0.861203168158     1.007825032070
           C         -3.549210082014    -0.550687986972    -0.009845831842    12.000000000000
           H         -2.249813082014     0.925738013028    -0.879045831842     1.007825032070
           H         -2.250262082014     0.924571013028     0.861958168158     1.007825032070
           C         -4.809014082014     0.314516013028    -0.009840831842    12.000000000000
           H         -3.559939082014    -1.202950986972    -0.880627831842     1.007825032070
           H         -3.560547082014    -1.203896986972     0.860239168158     1.007825032070
           H         -4.844170082014     0.955669013028    -0.886103831842     1.007825032070
           H         -5.706410082014    -0.296531986972    -0.011080831842     1.007825032070
           H         -4.845384082014     0.953885013028     0.867672168158     1.007825032070
           H          4.243476917986    -1.417208986972    -0.416251831842     1.007825032070
           H          4.959803917986     0.047573013028     0.272096168158     1.007825032070
           H          4.035681917986    -1.070984986972     1.285504168158     1.007825032070

  Charge       = 0
  Multiplicity = 1
  Basis Set: 6-31G*
  Basis Set:

    Orbital Energies (a.u.)
    -----------------------

    Doubly Occupied:

       1A    -20.550274     2A    -11.326270     3A    -11.231776
       4A    -11.228321     5A    -11.217554     6A    -11.216909
       7A    -11.215530     8A    -11.213732     9A    -11.208441
      10A     -1.395624    11A     -1.093880    12A     -1.056473
      13A     -1.014502    14A     -0.969320    15A     -0.890870
      16A     -0.814322    17A     -0.791043    18A     -0.730045
      19A     -0.661815    20A     -0.651609    21A     -0.632477
      22A     -0.623080    23A     -0.596213    24A     -0.584449
      25A     -0.566624    26A     -0.559899    27A     -0.540374
      28A     -0.526985    29A     -0.512466    30A     -0.490191
      31A     -0.487786    32A     -0.473267    33A     -0.463984
      34A     -0.462567    35A     -0.450939    36A     -0.399061

  @DF-RHF Final Energy:  -387.13628064994214

   => Energetics <=

    Nuclear Repulsion Energy =            438.3065117414627139
    One-Electron Energy =               -1393.1883237789913892
    Two-Electron Energy =                 567.7455313875855154
    DFT Exchange-Correlation Energy =       0.0000000000000000
    Empirical Dispersion Energy =           0.0000000000000000
    PCM Polarization Energy =               0.0000000000000000
    EFP Energy =                            0.0000000000000000
    Total Energy =                       -387.1362806499431599

  Mulliken Charges: (a.u.)
   Center  Symbol    Alpha    Beta     Spin     Total
       1     O     4.26137  4.26137  0.00000 -0.52273
       2     C     2.73541  2.73541  0.00000  0.52917
       3     C     3.21050  3.21050  0.00000 -0.42100
       4     C     3.28700  3.28700  0.00000 -0.57399
       5     C     3.14882  3.14882  0.00000 -0.29764
       6     H     0.40698  0.40698  0.00000  0.18605
       7     H     0.41294  0.41294  0.00000  0.17412
       8     C     3.15385  3.15385  0.00000 -0.30770
       9     H     0.40897  0.40897  0.00000  0.18207
      10     H     0.41509  0.41509  0.00000  0.16982
      11     C     3.15079  3.15079  0.00000 -0.30157
      12     H     0.42446  0.42446  0.00000  0.15107
      13     H     0.42499  0.42499  0.00000  0.15003
      14     C     3.15153  3.15153  0.00000 -0.30305
      15     H     0.42213  0.42213  0.00000  0.15574
      16     H     0.42274  0.42274  0.00000  0.15452
      17     C     3.23934  3.23934  0.00000 -0.47868
      18     H     0.42341  0.42341  0.00000  0.15318
      19     H     0.42360  0.42360  0.00000  0.15281
      20     H     0.42127  0.42127  0.00000  0.15747
      21     H     0.41950  0.41950  0.00000  0.16100
      22     H     0.42145  0.42145  0.00000  0.15709
      23     H     0.40874  0.40874  0.00000  0.18252
      24     H     0.39661  0.39661  0.00000  0.20679
      25     H     0.40854  0.40854  0.00000  0.18292

   Total alpha = 36.00000, Total beta = 36.00000, Total charge =  0.00000
