                              Psi4 1.0.54 Driver

  ==> Input File <==

--------------------------------------------------------------------------
set {
	reference rhf
	basis cc-pvtz
}

set_num_threads( 4 )
memory 2 gb

molecule MOL {
0 1

O	 -2.817697	 1.304178	 0.001046
C	 -2.664672	 0.129869	 0.003507
C	 -3.797908	 -0.860100	 -0.001145
O	 -1.481217	 -0.452708	 0.001092
H	 -4.408836	 -0.679689	 -0.875387
H	 -3.443486	 -1.878443	 -0.002770
H	 -4.412123	 -0.683688	 0.871605
C	 -0.332055	 0.384012	 -0.000250
C	 0.892252	 -0.506059	 -0.000295
H	 -0.360822	 1.020205	 -0.874146
H	 -0.359817	 1.021310	 0.872861
C	 2.188199	 0.299473	 -0.001416
H	 0.857046	 -1.152781	 -0.871031
H	 0.857910	 -1.151798	 0.871202
C	 3.437151	 -0.577593	 -0.000991
H	 2.209565	 0.950707	 -0.871712
H	 2.210062	 0.952234	 0.867721
C	 4.661781	 0.126700	 0.572820
H	 3.649001	 -0.899277	 -1.016715
H	 3.240121	 -1.480718	 0.569650
H	 4.905030	 1.016428	 0.001804
H	 5.529634	 -0.522255	 0.558841
H	 4.492855	 0.430773	 1.600369

	symmetry c1
}
set optking {
	frozen_dihedral = ("
		19 15 12 16
	")
}

ee,wfn = optimize('scf', return_wfn=True)
oeprop( wfn, 'DIPOLE', 'QUADRUPOLE', 'MULLIKEN_CHARGES')
f=open( 'psi4out.xyz', 'w' )
f.write( "23  " )
f.write( str(ee) + "\n" )
f.write( MOL.save_string_xyz() )
f.close()
--------------------------------------------------------------------------

    Molecular point group: c1
  Charge       = 0
  Multiplicity = 1
  Basis Set: CC-PVTZ
  Basis Set:
  @DF-RHF Final Energy:  -423.13277394981668
    Total Energy =                       -423.1327739498167375
    Molecular point group: c1
  Basis Set: CC-PVTZ
  Basis Set:
  Basis Set: CC-PVTZ
  Basis Set:
  @DF-RHF Final Energy:  -423.13278288305742
    Total Energy =                       -423.1327828830574163
  Basis Set: CC-PVTZ
  Basis Set:
  Basis Set: CC-PVTZ
  Basis Set:
  @DF-RHF Final Energy:  -423.13194248981847
    Total Energy =                       -423.1319424898190391
  Basis Set: CC-PVTZ
  Basis Set:
  Basis Set: CC-PVTZ
  Basis Set:
  @DF-RHF Final Energy:  -423.13301816637062
    Total Energy =                       -423.1330181663707890
  Basis Set: CC-PVTZ
  Basis Set:
  Basis Set: CC-PVTZ
  Basis Set:
  @DF-RHF Final Energy:  -423.13304144587158
    Total Energy =                       -423.1330414458711857
  Basis Set: CC-PVTZ
  Basis Set:
  Basis Set: CC-PVTZ
  Basis Set:
  @DF-RHF Final Energy:  -423.13305255904902
    Total Energy =                       -423.1330525590492471
  Basis Set: CC-PVTZ
  Basis Set:
  Charge       = 0
  Multiplicity = 1
  Basis Set: CC-PVTZ
  Basis Set:

    Orbital Energies (a.u.)
    -----------------------

    Doubly Occupied:

       1A    -20.595885     2A    -20.529486     3A    -11.366364
       4A    -11.279285     5A    -11.230644     6A    -11.222223
       7A    -11.221373     8A    -11.219515     9A    -11.210775
      10A     -1.471112    11A     -1.363955    12A     -1.094759
      13A     -1.042899    14A     -1.004142    15A     -0.931420
      16A     -0.842122    17A     -0.802771    18A     -0.775978
      19A     -0.694715    20A     -0.688268    21A     -0.671467
      22A     -0.647188    23A     -0.608234    24A     -0.589718
      25A     -0.584060    26A     -0.569630    27A     -0.556944
      28A     -0.537374    29A     -0.524953    30A     -0.504862
      31A     -0.493930    32A     -0.476415    33A     -0.470609
      34A     -0.466147    35A     -0.455232    36A     -0.438694

  @DF-RHF Final Energy:  -423.13305266362687

   => Energetics <=

    Nuclear Repulsion Energy =            450.5033565354548841
    One-Electron Energy =               -1468.9065231244339884
    Two-Electron Energy =                 595.2701139253523479
    DFT Exchange-Correlation Energy =       0.0000000000000000
    Empirical Dispersion Energy =           0.0000000000000000
    PCM Polarization Energy =               0.0000000000000000
    EFP Energy =                            0.0000000000000000
    Total Energy =                       -423.1330526636266995
    Molecular point group: c1
  Basis Set: CC-PVTZ
  Basis Set:

  -Total Gradient:
     Atom            X                  Y                   Z
    ------   -----------------  -----------------  -----------------
       1       -0.000010466589     0.000010266089     0.000010132227
       2        0.000013694425    -0.000033605221    -0.000005638369
       3       -0.000004068765     0.000011379931     0.000000170139
       4       -0.000007582047     0.000010165761     0.000028129216
       5        0.000003413337    -0.000003753110     0.000007183853
       6       -0.000001534750     0.000006724982    -0.000000533933
       7        0.000002778141    -0.000000984369    -0.000008634826
       8        0.000017013626     0.000013807327    -0.000062043525
       9        0.000013159157    -0.000000215674    -0.000007464608
      10        0.000011114295    -0.000005849964     0.000017880656
      11       -0.000014374189    -0.000003584687     0.000007501968
      12        0.002942343967     0.004039351219     0.002410125463
      13       -0.000007376303     0.000001809607     0.000000977031
      14        0.000009541398    -0.000001236461    -0.000004375289
      15       -0.003211131296    -0.004535782674     0.000237603667
      16       -0.001985280370    -0.002685493833    -0.002065745820
      17        0.000004234140     0.000003515598    -0.000000783261
      18        0.000001110700     0.000006450545    -0.000004248977
      19        0.002232006578     0.003176705937    -0.000561033727
      20       -0.000003280816    -0.000008041141     0.000002627647
      21        0.000001401620    -0.000011228061     0.000017106011
      22       -0.000017239355     0.000017462173    -0.000001710329
      23        0.000010523094    -0.000007863970    -0.000017225214

  **** Optimization is complete! (in 7 steps) ****
    Final optimized geometry and variables:
    Molecular point group: c1

    Geometry (in Angstrom), charge = 0, multiplicity = 1:

    O           -2.811703145548     1.316697663534    -0.106465712645
    C           -2.659371103040     0.142398935024    -0.087363280802
    C           -3.793230278843    -0.847064918152    -0.089954023685
    O           -1.476369519571    -0.440295771196    -0.061333076544
    H           -4.393608041958    -0.679885505780    -0.974123078445
    H           -3.439470379679    -1.865501339709    -0.071568216861
    H           -4.417627968593    -0.656820952656     0.772676803119
    C           -0.327125899481     0.395942707285    -0.056448774552
    C            0.896878294232    -0.493717150000    -0.023675897215
    H           -0.341461218982     1.019735013657    -0.939647697412
    H           -0.368201498578     1.046160880240     0.806806131562
    C            2.194382190041     0.312411495500    -0.002722032376
    H            0.880941739541    -1.147252924601    -0.890366831123
    H            0.844270948630    -1.133183564465     0.851411195853
    C            3.441853769450    -0.573942311870    -0.046410603114
    H            2.198348399560     0.972981468410    -0.865402388145
    H            2.216014903452     0.939584584611     0.883619118183
    C            4.692537803868     0.138708488448     0.461854426463
    H            3.622218657885    -0.882231094014    -1.071593150296
    H            3.278160513556    -1.474256218022     0.536974543667
    H            4.883437819982     1.044270342709    -0.104732038378
    H            5.567721996655    -0.494892255798     0.375716418643
    H            4.587214450489     0.419102641308     1.504427590743

  Mulliken Charges: (a.u.)
   Center  Symbol    Alpha    Beta     Spin     Total
       1     O     4.20245  4.20245  0.00000 -0.40490
       2     C     2.81514  2.81514  0.00000  0.36973
       3     C     3.14001  3.14001  0.00000 -0.28001
       4     O     4.14471  4.14471  0.00000 -0.28941
       5     H     0.44211  0.44211  0.00000  0.11577
       6     H     0.44187  0.44187  0.00000  0.11627
       7     H     0.44213  0.44213  0.00000  0.11573
       8     C     2.97913  2.97913  0.00000  0.04174
       9     C     3.08181  3.08181  0.00000 -0.16363
      10     H     0.45400  0.45400  0.00000  0.09200
      11     H     0.45417  0.45417  0.00000  0.09165
      12     C     3.09829  3.09829  0.00000 -0.19657
      13     H     0.45059  0.45059  0.00000  0.09883
      14     H     0.45104  0.45104  0.00000  0.09792
      15     C     3.08529  3.08529  0.00000 -0.17057
      16     H     0.45213  0.45213  0.00000  0.09574
      17     H     0.45268  0.45268  0.00000  0.09464
      18     C     3.14886  3.14886  0.00000 -0.29772
      19     H     0.45238  0.45238  0.00000  0.09524
      20     H     0.45368  0.45368  0.00000  0.09264
      21     H     0.45415  0.45415  0.00000  0.09170
      22     H     0.44830  0.44830  0.00000  0.10340
      23     H     0.45509  0.45509  0.00000  0.08982

   Total alpha = 36.00000, Total beta = 36.00000, Total charge = -0.00000

*** Psi4 exiting successfully. Buy a developer a beer!
