                              Psi4 1.0.54 Driver

  ==> Input File <==

--------------------------------------------------------------------------
set {
	reference rhf
	basis cc-pvtz
}

set_num_threads( 4 )
memory 2 gb

molecule MOL {
0 1

H	 -1.061118	 0.067625	 1.838591
C	 -0.603756	 -0.484978	 1.046138
C	 -0.599960	 -1.865078	 1.039528
C	 0.000000	 0.179985	 0.000046
H	 -1.064188	 -2.400838	 1.843871
C	 -0.000003	 -2.552036	 -0.000012
N	 0.000000	 1.644631	 0.000076
C	 0.603758	 -0.484935	 -1.046072
H	 -0.000000	 -3.625035	 -0.000032
C	 0.599958	 -1.865035	 -1.039521
O	 1.050559	 2.194174	 -0.000073
O	 -1.050559	 2.194174	 -0.000074
H	 1.061111	 0.067700	 -1.838508
H	 1.064190	 -2.400763	 -1.843884

	symmetry c1
}
set optking {
	frozen_dihedral = ("
		2 4 7 11
	")
}

ee,wfn = optimize('scf', return_wfn=True)
oeprop( wfn, 'DIPOLE', 'QUADRUPOLE', 'MULLIKEN_CHARGES')
f=open( 'psi4out.xyz', 'w' )
f.write( "14  " )
f.write( str(ee) + "\n" )
f.write( MOL.save_string_xyz() )
f.close()
--------------------------------------------------------------------------

    Molecular point group: c1
  Charge       = 0
  Multiplicity = 1
  Basis Set: CC-PVTZ
  Basis Set:
  @DF-RHF Final Energy:  -434.32292612489425
    Total Energy =                       -434.3229261248943658
    Molecular point group: c1
  Basis Set: CC-PVTZ
  Basis Set:
  Basis Set: CC-PVTZ
  Basis Set:
  @DF-RHF Final Energy:  -434.31683146726652
    Total Energy =                       -434.3168314672666384
  Basis Set: CC-PVTZ
  Basis Set:
  Basis Set: CC-PVTZ
  Basis Set:
  @DF-RHF Final Energy:  -434.32251782569216
    Total Energy =                       -434.3225178256919889
  Basis Set: CC-PVTZ
  Basis Set:
  Basis Set: CC-PVTZ
  Basis Set:
  @DF-RHF Final Energy:  -434.32340603171440
    Total Energy =                       -434.3234060317145122
  Basis Set: CC-PVTZ
  Basis Set:
  Basis Set: CC-PVTZ
  Basis Set:
  @DF-RHF Final Energy:  -434.32341999885602
    Total Energy =                       -434.3234199988557975
  Basis Set: CC-PVTZ
  Basis Set:
  Basis Set: CC-PVTZ
  Basis Set:
  @DF-RHF Final Energy:  -434.32344126476426
    Total Energy =                       -434.3234412647642557
  Basis Set: CC-PVTZ
  Basis Set:
  Charge       = 0
  Multiplicity = 1
  Basis Set: CC-PVTZ
  Basis Set:

    Orbital Energies (a.u.)
    -----------------------

    Doubly Occupied:

       1A    -20.596571     2A    -20.596247     3A    -15.847792
       4A    -11.306328     5A    -11.267847     6A    -11.267623
       7A    -11.261163     8A    -11.260052     9A    -11.259302
      10A     -1.643966    11A     -1.427043    12A     -1.206315
      13A     -1.096818    14A     -1.056664    15A     -0.959388
      16A     -0.873305    17A     -0.830654    18A     -0.786595
      19A     -0.740483    20A     -0.737097    21A     -0.716952
      22A     -0.654022    23A     -0.650950    24A     -0.626077
      25A     -0.560479    26A     -0.549926    27A     -0.533623
      28A     -0.498565    29A     -0.487833    30A     -0.457852
      31A     -0.373120    32A     -0.370432

  @DF-RHF Final Energy:  -434.32344143067888

   => Energetics <=

    Nuclear Repulsion Energy =            417.7224043927706703
    One-Electron Energy =               -1419.0895243905597454
    Two-Electron Energy =                 567.0436785671099642
    DFT Exchange-Correlation Energy =       0.0000000000000000
    Empirical Dispersion Energy =           0.0000000000000000
    PCM Polarization Energy =               0.0000000000000000
    EFP Energy =                            0.0000000000000000
    Total Energy =                       -434.3234414306791678
    Molecular point group: c1
  Basis Set: CC-PVTZ
  Basis Set:

  -Total Gradient:
     Atom            X                  Y                   Z
    ------   -----------------  -----------------  -----------------
       1       -0.000003250722    -0.000001576015    -0.000006280406
       2        0.004256846086    -0.000229767350     0.002269008918
       3       -0.000040593159     0.000025852972    -0.000005916666
       4       -0.006011300580     0.000284235158    -0.001213401143
       5       -0.000002006053     0.000001128650    -0.000001140798
       6        0.000011308583     0.000000069419    -0.000024480945
       7        0.001647374918     0.000159480794    -0.006505391841
       8        0.000013815394     0.000005435063     0.000008918838
       9        0.000004331221     0.000000468838     0.000004979566
      10        0.000006597160    -0.000017446548     0.000006740309
      11        0.000195251747    -0.000214025171     0.005466423629
      12       -0.000068237820    -0.000013344631     0.000004889177
      13       -0.000004883922    -0.000003498150     0.000000668077
      14       -0.000005252851     0.000002986975    -0.000005016715

  **** Optimization is complete! (in 7 steps) ****
    Final optimized geometry and variables:
    Molecular point group: c1

    Geometry (in Angstrom), charge = 0, multiplicity = 1:

    H           -1.073855598941     0.078974723780     1.825391158506
    C           -0.618131065578    -0.475797828738     1.030399244677
    C           -0.612089796585    -1.856986702587     1.026520439018
    C           -0.029244289620     0.179860349288    -0.024790526060
    H           -1.059728717084    -2.391622726277     1.841091637318
    C           -0.032495341617    -2.545717813833    -0.022762267708
    N            0.025479873562     1.641517909745     0.009788528957
    C            0.584053315139    -0.479302385064    -1.064092643098
    H           -0.037850999456    -3.618413030385    -0.024162448634
    C            0.559997137403    -1.859903151156    -1.067234528163
    O            1.098802349507     2.142730470176    -0.018438963682
    O           -1.004181129102     2.220395757483     0.106516429079
    H            1.063852616702     0.072714133759    -1.846811799038
    H            1.012988495077    -2.397012519697    -1.877206914123

  Mulliken Charges: (a.u.)
   Center  Symbol    Alpha    Beta     Spin     Total
       1     H     0.40955  0.40955  0.00000  0.18089
       2     C     3.08730  3.08730  0.00000 -0.17461
       3     C     3.06696  3.06696  0.00000 -0.13392
       4     C     2.93047  2.93047  0.00000  0.13906
       5     H     0.41728  0.41728  0.00000  0.16544
       6     C     3.07294  3.07294  0.00000 -0.14588
       7     N     3.28347  3.28347  0.00000  0.43306
       8     C     3.08652  3.08652  0.00000 -0.17304
       9     H     0.41773  0.41773  0.00000  0.16455
      10     C     3.06631  3.06631  0.00000 -0.13263
      11     O     4.16542  4.16542  0.00000 -0.33085
      12     O     4.16758  4.16758  0.00000 -0.33516
      13     H     0.41115  0.41115  0.00000  0.17770
      14     H     0.41731  0.41731  0.00000  0.16539

   Total alpha = 32.00000, Total beta = 32.00000, Total charge =  0.00000

*** Psi4 exiting successfully. Buy a developer a beer!
