  ==> Input File <==

--------------------------------------------------------------------------
set {
	reference rhf
	basis 6-31G*
}

set_num_threads( 4 )
memory 2 gb

molecule MOL {
0 1

H	 -3.161837	 0.500524	 -0.000234
C	 -2.367097	 -0.232926	 -0.000000
O	 -1.158440	 0.455814	 -0.000122
H	 -2.468853	 -0.861886	 -0.882833
H	 -2.468942	 -0.861421	 0.883154
C	 -0.029776	 -0.365156	 0.000148
C	 1.212217	 0.508981	 0.000007
H	 -0.036772	 -1.013236	 -0.877259
H	 -0.036869	 -1.012778	 0.877897
C	 1.246330	 1.476087	 1.182557
H	 2.086248	 -0.134794	 0.016848
H	 1.246114	 1.058876	 -0.935496
H	 1.237727	 0.944311	 2.129955
H	 2.142273	 2.087225	 1.157236
H	 0.391142	 2.146110	 1.171274

	symmetry c1
}
set optking {
	frozen_dihedral = ("
		11 7 6 8
	")
}

ee = optimize('scf')
oeprop('DIPOLE', 'QUADRUPOLE', 'MULLIKEN_CHARGES')
f=open( 'psi4out.xyz', 'w' )
f.write( "15  " )
f.write( str(ee) + "\n" )
f.write( MOL.save_string_xyz() )
f.close()
--------------------------------------------------------------------------

    Molecular point group: c1
  Charge       = 0
  Multiplicity = 1
  Basis Set: 6-31G*
  Basis Set:
  @DF-RHF Final Energy:  -232.13938010152447
    Total Energy =                       -232.1393801015245231
    Molecular point group: c1
  Basis Set: 6-31G*
  Basis Set:
  Basis Set: 6-31G*
  Basis Set:
  @DF-RHF Final Energy:  -232.13948423085640
    Total Energy =                       -232.1394842308566240
  Basis Set: 6-31G*
  Basis Set:
  Basis Set: 6-31G*
  Basis Set:
  @DF-RHF Final Energy:  -232.13952672037962
    Total Energy =                       -232.1395267203794219
  Basis Set: 6-31G*
  Basis Set:
  Basis Set: 6-31G*
  Basis Set:
  @DF-RHF Final Energy:  -232.13952823509007
    Total Energy =                       -232.1395282350901539
  Basis Set: 6-31G*
  Basis Set:
  Charge       = 0
  Multiplicity = 1
  Basis Set: 6-31G*
  Basis Set:

    Orbital Energies (a.u.)
    -----------------------

    Doubly Occupied:

       1A    -20.554070     2A    -11.266797     3A    -11.264631
       4A    -11.215107     5A    -11.202714     6A     -1.378831
       7A     -1.053615     8A     -0.949825     9A     -0.886814
      10A     -0.797993    11A     -0.670441    12A     -0.661009
      13A     -0.633329    14A     -0.593559    15A     -0.563091
      16A     -0.545785    17A     -0.500650    18A     -0.483279
      19A     -0.477613    20A     -0.458878    21A     -0.413570

  @DF-RHF Final Energy:  -232.13952850657870

   => Energetics <=

    Nuclear Repulsion Energy =            193.0521406198261047
    One-Electron Energy =                -697.2401386102810648
    Two-Electron Energy =                 272.0484694838760902
    DFT Exchange-Correlation Energy =       0.0000000000000000
    Empirical Dispersion Energy =           0.0000000000000000
    PCM Polarization Energy =               0.0000000000000000
    EFP Energy =                            0.0000000000000000
    Total Energy =                       -232.1395285065788698
    Molecular point group: c1
  Basis Set: 6-31G*
  Basis Set:

  -Total Gradient:
     Atom            X                  Y                   Z
    ------   -----------------  -----------------  -----------------
       1       -0.000004118873    -0.000002421308    -0.000000235807
       2       -0.000012377115    -0.000002206608    -0.000008744367
       3        0.000044686168    -0.000027511036    -0.000005626473
       4       -0.000005455648    -0.000001076409     0.000002944668
       5        0.000002100330     0.000000752166    -0.000000818726
       6        0.000869721552    -0.001233971452     0.001282001621
       7       -0.000129645384     0.000223945774    -0.001951243549
       8       -0.000736110577     0.001026084959    -0.000743728175
       9       -0.000007248826    -0.000012710755    -0.000008115255
      10        0.000008671441    -0.000020134149    -0.000001222562
      11       -0.000019895254     0.000032426707     0.001425493994
      12        0.000015424448    -0.000004374960    -0.000001608177
      13        0.000002058104     0.000007050013     0.000008171735
      14       -0.000013073593    -0.000003249016    -0.000004098924
      15       -0.000014736770     0.000017396073     0.000006829996

  **** Optimization is complete! (in 5 steps) ****
    Final optimized geometry and variables:
    Molecular point group: c1

    Geometry (in Angstrom), charge = 0, multiplicity = 1:

    H           -2.919465585624     0.117048690288    -0.259145572917
    C           -2.117514585408    -0.608425466229    -0.244089252293
    O           -0.915295966513     0.091147061677    -0.251176422386
    H           -2.209779917261    -1.252646017333    -1.116912717991
    H           -2.216185771129    -1.223456931626     0.648776044746
    C            0.221852230323    -0.720720335110    -0.234459250598
    C            1.463290019205     0.156322448037    -0.236263519744
    H            0.220257377213    -1.367743341476    -1.111659333752
    H            0.210804508770    -1.360512155046     0.648736413315
    C            1.523149251954     1.117596870303     0.950357465500
    H            2.334053836019    -0.495236714152    -0.218439960118
    H            1.496721035936     0.714437842607    -1.167064128563
    H            1.507892810040     0.575635707613     1.892322632426
    H            2.434546337652     1.706806404971     0.922900123166
    H            0.679872699031     1.796668773429     0.942239361775

  Mulliken Charges: (a.u.)
   Center  Symbol    Alpha    Beta     Spin     Total
       1     H     0.41222  0.41222  0.00000  0.17556
       2     C     3.07888  3.07888  0.00000 -0.15776
       3     O     4.30394  4.30394  0.00000 -0.60788
       4     H     0.43044  0.43044  0.00000  0.13911
       5     H     0.43015  0.43015  0.00000  0.13971
       6     C     2.98838  2.98838  0.00000  0.02324
       7     C     3.16060  3.16060  0.00000 -0.32119
       8     H     0.43010  0.43010  0.00000  0.13979
       9     H     0.43292  0.43292  0.00000  0.13416
      10     C     3.24065  3.24065  0.00000 -0.48129
      11     H     0.42314  0.42314  0.00000  0.15373
      12     H     0.41543  0.41543  0.00000  0.16914
      13     H     0.42487  0.42487  0.00000  0.15027
      14     H     0.42142  0.42142  0.00000  0.15717
      15     H     0.40687  0.40687  0.00000  0.18626

   Total alpha = 21.00000, Total beta = 21.00000, Total charge = -0.00000
