  ==> Input File <==

--------------------------------------------------------------------------
set {
	reference rhf
	basis 6-31G*
}

set_num_threads( 1 )
memory 2 gb

molecule MOL {
0 1

H	 -2.752471	 0.634570	 -0.221553
N	 -1.774435	 0.735847	 -0.031386
C	 -1.016471	 0.826333	 -1.266865
H	 -1.484146	 -0.074825	 0.480133
C	 0.461879	 0.940384	 -0.959277
H	 -1.164013	 -0.022843	 -1.935545
H	 -1.328108	 1.719025	 -1.800499
O	 0.874168	 -0.245412	 -0.342030
H	 1.026387	 1.100251	 -1.877652
H	 0.633909	 1.788422	 -0.300133
C	 2.202317	 -0.244239	 0.074611
H	 2.711377	 -1.041390	 -0.449894
H	 2.692099	 0.699270	 -0.159667
H	 2.283185	 -0.418429	 1.145558

	symmetry c1
}
set optking {
	frozen_dihedral = ("
		8 5 3 6,
		6 3 2 4,
		11 8 5 3
	")
}

ee = energy('scf')
oeprop('DIPOLE', 'QUADRUPOLE', 'MULLIKEN_CHARGES')
f=open( 'psi4out.xyz', 'w' )
f.write( "14  " )
f.write( str(ee) + "\n" )
f.write( MOL.save_string_xyz() )
f.close()
--------------------------------------------------------------------------

    Molecular point group: c1

    Geometry (in Angstrom), charge = 0, multiplicity = 1:

       Center              X                  Y                   Z               Mass
    ------------   -----------------  -----------------  -----------------  -----------------
           H         -2.906278759446     0.247364958157     0.269837739678     1.007825032070
           N         -1.928242759446     0.348641958157     0.460004739678    14.003074004780
           C         -1.170278759446     0.439127958157    -0.775474260322    12.000000000000
           H         -1.637953759446    -0.462030041843     0.971523739678     1.007825032070
           C          0.308071240554     0.553178958157    -0.467886260322    12.000000000000
           H         -1.317820759446    -0.410048041843    -1.444154260322     1.007825032070
           H         -1.481915759446     1.331819958157    -1.309108260322     1.007825032070
           O          0.720360240554    -0.632617041843     0.149360739678    15.994914619560
           H          0.872579240554     0.713045958157    -1.386261260322     1.007825032070
           H          0.480101240554     1.401216958157     0.191257739678     1.007825032070
           C          2.048509240554    -0.631444041843     0.566001739678    12.000000000000
           H          2.557569240554    -1.428595041843     0.041496739678     1.007825032070
           H          2.538291240554     0.312064958157     0.331723739678     1.007825032070
           H          2.129377240554    -0.805634041843     1.636948739678     1.007825032070

  Charge       = 0
  Multiplicity = 1
  Basis Set: 6-31G*
  Basis Set:

    Orbital Energies (a.u.)
    -----------------------

    Doubly Occupied:

       1A    -20.554253     2A    -15.528197     3A    -11.266216
       4A    -11.265198     5A    -11.240377     6A     -1.380195
       7A     -1.173334     8A     -0.998336     9A     -0.907052
      10A     -0.816272    11A     -0.683131    12A     -0.671630
      13A     -0.643859    14A     -0.610634    15A     -0.605336
      16A     -0.538550    17A     -0.535240    18A     -0.494813
      19A     -0.474737    20A     -0.411955    21A     -0.379887

  @DF-RHF Final Energy:  -248.12087023330503

   => Energetics <=

    Nuclear Repulsion Energy =            194.7056601921092920
    One-Electron Energy =                -723.2946172112044678
    Two-Electron Energy =                 280.4680867857902058
    DFT Exchange-Correlation Energy =       0.0000000000000000
    Empirical Dispersion Energy =           0.0000000000000000
    PCM Polarization Energy =               0.0000000000000000
    EFP Energy =                            0.0000000000000000
    Total Energy =                       -248.1208702333050269

  Mulliken Charges: (a.u.)
   Center  Symbol    Alpha    Beta     Spin     Total
       1     H     0.33287  0.33287  0.00000  0.33425
       2     N     3.92532  3.92532  0.00000 -0.85063
       3     C     3.06904  3.06904  0.00000 -0.13807
       4     H     0.32364  0.32364  0.00000  0.35272
       5     C     2.99198  2.99198  0.00000  0.01604
       6     H     0.42668  0.42668  0.00000  0.14664
       7     H     0.42061  0.42061  0.00000  0.15878
       8     O     4.31179  4.31179  0.00000 -0.62358
       9     H     0.43080  0.43080  0.00000  0.13840
      10     H     0.42179  0.42179  0.00000  0.15643
      11     C     3.07639  3.07639  0.00000 -0.15278
      12     H     0.42042  0.42042  0.00000  0.15916
      13     H     0.42853  0.42853  0.00000  0.14294
      14     H     0.42015  0.42015  0.00000  0.15970

   Total alpha = 21.00000, Total beta = 21.00000, Total charge = -0.00000
