  ==> Input File <==

--------------------------------------------------------------------------
set {
	reference rhf
	basis 6-31G*
}

set_num_threads( 1 )
memory 2 gb

molecule MOL {
0 1

O	 -2.821601	 1.309235	 -0.001213
C	 -2.668563	 0.129746	 -0.000350
C	 -3.801572	 -0.864014	 -0.000442
O	 -1.481751	 -0.454642	 0.000584
H	 -4.417280	 -0.689587	 -0.874708
H	 -3.443784	 -1.883046	 -0.000565
H	 -4.417179	 -0.689832	 0.873954
C	 -0.334255	 0.388708	 0.000906
C	 0.891947	 -0.504646	 0.000751
H	 -0.365390	 1.025305	 -0.873475
H	 -0.365484	 1.024911	 0.875569
C	 2.191998	 0.301789	 0.000897
H	 0.855148	 -1.151283	 -0.871571
H	 0.855132	 -1.151660	 0.872805
C	 3.381034	 -0.484653	 0.555902
H	 2.419305	 0.625676	 -1.013260
H	 2.057486	 1.208651	 0.587914
C	 4.679780	 0.320408	 0.554779
H	 3.517096	 -1.391042	 -0.029777
H	 3.156518	 -0.807119	 1.570140
H	 4.949188	 0.628897	 -0.451336
H	 5.503608	 -0.263315	 0.953290
H	 4.586021	 1.217005	 1.160858

	symmetry c1
}
set optking {
	frozen_dihedral = ("
		13 9 8 10,
		2 4 8 10,
		19 15 12 16,
		1 2 4 8
	")
}

ee = energy('scf')
oeprop('DIPOLE', 'QUADRUPOLE', 'MULLIKEN_CHARGES')
f=open( 'psi4out.xyz', 'w' )
f.write( "23  " )
f.write( str(ee) + "\n" )
f.write( MOL.save_string_xyz() )
f.close()
--------------------------------------------------------------------------

    Molecular point group: c1

    Geometry (in Angstrom), charge = 0, multiplicity = 1:

       Center              X                  Y                   Z               Mass
    ------------   -----------------  -----------------  -----------------  -----------------
           O         -2.808223402951     1.287691550928    -0.125278507145    15.994914619560
           C         -2.655185402951     0.108202550928    -0.124415507145    12.000000000000
           C         -3.788194402951    -0.885557449072    -0.124507507145    12.000000000000
           O         -1.468373402951    -0.476185449072    -0.123481507145    15.994914619560
           H         -4.403902402951    -0.711130449072    -0.998773507145     1.007825032070
           H         -3.430406402951    -1.904589449072    -0.124630507145     1.007825032070
           H         -4.403801402951    -0.711375449072     0.749888492855     1.007825032070
           C         -0.320877402951     0.367164550928    -0.123159507145    12.000000000000
           C          0.905324597049    -0.526189449072    -0.123314507145    12.000000000000
           H         -0.352012402951     1.003761550928    -0.997540507145     1.007825032070
           H         -0.352106402951     1.003367550928     0.751503492855     1.007825032070
           C          2.205375597049     0.280245550928    -0.123168507145    12.000000000000
           H          0.868525597049    -1.172826449072    -0.995636507145     1.007825032070
           H          0.868509597049    -1.173203449072     0.748739492855     1.007825032070
           C          3.394411597049    -0.506196449072     0.431836492855    12.000000000000
           H          2.432682597049     0.604132550928    -1.137325507145     1.007825032070
           H          2.070863597049     1.187107550928     0.463848492855     1.007825032070
           C          4.693157597049     0.298864550928     0.430713492855    12.000000000000
           H          3.530473597049    -1.412585449072    -0.153842507145     1.007825032070
           H          3.169895597049    -0.828662449072     1.446074492855     1.007825032070
           H          4.962565597049     0.607353550928    -0.575401507145     1.007825032070
           H          5.516985597049    -0.284858449072     0.829224492855     1.007825032070
           H          4.599398597049     1.195461550928     1.036792492855     1.007825032070

  Charge       = 0
  Multiplicity = 1
  Basis Set: 6-31G*
  Basis Set:

    Orbital Energies (a.u.)
    -----------------------

    Doubly Occupied:

       1A    -20.602956     2A    -20.540543     3A    -11.374097
       4A    -11.281690     5A    -11.232372     6A    -11.223972
       7A    -11.223384     8A    -11.221780     9A    -11.212812
      10A     -1.467974    11A     -1.360746    12A     -1.094325
      13A     -1.042165    14A     -1.003390    15A     -0.930857
      16A     -0.841853    17A     -0.802695    18A     -0.774793
      19A     -0.691591    20A     -0.685034    21A     -0.668790
      22A     -0.644941    23A     -0.607174    24A     -0.587950
      25A     -0.582037    26A     -0.567776    27A     -0.558863
      28A     -0.536391    29A     -0.523676    30A     -0.504224
      31A     -0.492055    32A     -0.478392    33A     -0.469758
      34A     -0.465093    35A     -0.451059    36A     -0.435312

  @DF-RHF Final Energy:  -422.97787240179264

   => Energetics <=

    Nuclear Repulsion Energy =            449.9792758998909221
    One-Electron Energy =               -1467.5493121433039505
    Two-Electron Energy =                 594.5921638416208452
    DFT Exchange-Correlation Energy =       0.0000000000000000
    Empirical Dispersion Energy =           0.0000000000000000
    PCM Polarization Energy =               0.0000000000000000
    EFP Energy =                            0.0000000000000000
    Total Energy =                       -422.9778724017921832

  Mulliken Charges: (a.u.)
   Center  Symbol    Alpha    Beta     Spin     Total
       1     O     4.28391  4.28391  0.00000 -0.56783
       2     C     2.61537  2.61537  0.00000  0.76926
       3     C     3.28775  3.28775  0.00000 -0.57551
       4     O     4.31263  4.31263  0.00000 -0.62525
       5     H     0.39750  0.39750  0.00000  0.20501
       6     H     0.39985  0.39985  0.00000  0.20029
       7     H     0.39752  0.39752  0.00000  0.20496
       8     C     2.99738  2.99738  0.00000  0.00525
       9     C     3.16473  3.16473  0.00000 -0.32947
      10     H     0.41051  0.41051  0.00000  0.17897
      11     H     0.41045  0.41045  0.00000  0.17911
      12     C     3.16081  3.16081  0.00000 -0.32162
      13     H     0.41307  0.41307  0.00000  0.17386
      14     H     0.41395  0.41395  0.00000  0.17209
      15     C     3.15233  3.15233  0.00000 -0.30466
      16     H     0.41887  0.41887  0.00000  0.16225
      17     H     0.42108  0.42108  0.00000  0.15785
      18     C     3.24012  3.24012  0.00000 -0.48023
      19     H     0.42119  0.42119  0.00000  0.15762
      20     H     0.42128  0.42128  0.00000  0.15744
      21     H     0.42094  0.42094  0.00000  0.15811
      22     H     0.41804  0.41804  0.00000  0.16392
      23     H     0.42072  0.42072  0.00000  0.15856

   Total alpha = 36.00000, Total beta = 36.00000, Total charge =  0.00000
