                              Psi4 1.0.54 Driver

  ==> Input File <==

--------------------------------------------------------------------------
set {
	reference rhf
	basis cc-pvtz
}

set_num_threads( 4 )
memory 2 gb

molecule MOL {
0 1

H	 -4.024094	 -0.454727	 0.000004
C	 -2.962215	 -0.297920	 0.000004
C	 -2.454736	 0.988978	 0.000025
C	 -2.105837	 -1.382632	 -0.000016
H	 -3.120052	 1.830438	 0.000041
C	 -1.090106	 1.189676	 0.000026
H	 -2.500390	 -2.380229	 -0.000033
C	 -0.739175	 -1.183302	 -0.000016
H	 -0.680214	 2.179144	 0.000042
C	 -0.227341	 0.104540	 0.000006
H	 -0.073209	 -2.021168	 -0.000032
C	 1.238974	 0.374429	 0.000004
O	 1.673391	 0.876554	 -1.140671
O	 1.948486	 0.162473	 0.925664
C	 3.054479	 1.165345	 -1.234253
H	 3.340759	 1.895281	 -0.492220
H	 3.207381	 1.560415	 -2.225278
H	 3.639982	 0.269253	 -1.094239

	symmetry c1
}
set optking {
	frozen_dihedral = ("
		13 12 10 6
	")
}

ee,wfn = optimize('scf', return_wfn=True)
oeprop( wfn, 'DIPOLE', 'QUADRUPOLE', 'MULLIKEN_CHARGES')
f=open( 'psi4out.xyz', 'w' )
f.write( "18  " )
f.write( str(ee) + "\n" )
f.write( MOL.save_string_xyz() )
f.close()
--------------------------------------------------------------------------

    Molecular point group: c1
  Charge       = 0
  Multiplicity = 1
  Basis Set: CC-PVTZ
  Basis Set:
  @DF-RHF Final Energy:  -457.50000296290557
    Total Energy =                       -457.5000029629056826
    Molecular point group: c1
  Basis Set: CC-PVTZ
  Basis Set:
  Basis Set: CC-PVTZ
  Basis Set:
  @DF-RHF Final Energy:  -457.50061894706431
    Total Energy =                       -457.5006189470645950
  Basis Set: CC-PVTZ
  Basis Set:
  Basis Set: CC-PVTZ
  Basis Set:
  @DF-RHF Final Energy:  -457.49952595571875
    Total Energy =                       -457.4995259557188092
  Basis Set: CC-PVTZ
  Basis Set:
  Basis Set: CC-PVTZ
  Basis Set:
  @DF-RHF Final Energy:  -457.50084134704952
    Total Energy =                       -457.5008413470488904
  Basis Set: CC-PVTZ
  Basis Set:
  Basis Set: CC-PVTZ
  Basis Set:
  @DF-RHF Final Energy:  -457.50087196948112
    Total Energy =                       -457.5008719694804995
  Basis Set: CC-PVTZ
  Basis Set:
  Basis Set: CC-PVTZ
  Basis Set:
  @DF-RHF Final Energy:  -457.50087425478216
    Total Energy =                       -457.5008742547818201
  Basis Set: CC-PVTZ
  Basis Set:
  Charge       = 0
  Multiplicity = 1
  Basis Set: CC-PVTZ
  Basis Set:

    Orbital Energies (a.u.)
    -----------------------

    Doubly Occupied:

       1A    -20.603832     2A    -20.540491     3A    -11.374466
       4A    -11.282377     5A    -11.249797     6A    -11.242204
       7A    -11.241121     8A    -11.238806     9A    -11.237563
      10A    -11.236838    11A     -1.479731    12A     -1.372588
      13A     -1.171569    14A     -1.052263    15A     -1.029516
      16A     -0.982511    17A     -0.862666    18A     -0.841765
      19A     -0.783779    20A     -0.742536    21A     -0.688513
      22A     -0.684490    23A     -0.681942    24A     -0.635575
      25A     -0.632234    26A     -0.600152    27A     -0.594119
      28A     -0.553401    29A     -0.538915    30A     -0.521868
      31A     -0.511773    32A     -0.504821    33A     -0.465073
      34A     -0.450178    35A     -0.347673    36A     -0.347090

  @DF-RHF Final Energy:  -457.50087448585828

   => Energetics <=

    Nuclear Repulsion Energy =            492.7162385877510360
    One-Electron Energy =               -1599.7857531780864520
    Two-Electron Energy =                 649.5686401044767990
    DFT Exchange-Correlation Energy =       0.0000000000000000
    Empirical Dispersion Energy =           0.0000000000000000
    PCM Polarization Energy =               0.0000000000000000
    EFP Energy =                            0.0000000000000000
    Total Energy =                       -457.5008744858587306
    Molecular point group: c1
  Basis Set: CC-PVTZ
  Basis Set:

  -Total Gradient:
     Atom            X                  Y                   Z
    ------   -----------------  -----------------  -----------------
       1       -0.000004510948    -0.000000216432    -0.000000729129
       2        0.000008701555    -0.000076445177     0.000007350968
       3        0.000054179819     0.000048278764    -0.000014830224
       4       -0.000068066539     0.000015992603     0.000006788409
       5       -0.000004656469     0.000001011931     0.000000150997
       6       -0.000157119670    -0.000128317163     0.004214517486
       7       -0.000000574189    -0.000007633616    -0.000001755360
       8        0.000038218531     0.000034863673     0.000003319624
       9        0.000005827874     0.000003185569     0.000000391247
      10        0.000329879851    -0.001081485327    -0.006704984285
      11       -0.000004826824    -0.000007896037     0.000005287017
      12       -0.000889174592     0.004994551178     0.003913567634
      13        0.000590291972    -0.003783485152    -0.001483515746
      14        0.000060163938    -0.000026316767     0.000051771355
      15        0.000034704899     0.000026096039    -0.000002765534
      16        0.000005855256     0.000009920759     0.000006373582
      17       -0.000003130484    -0.000005083004     0.000000890034
      18        0.000004236025    -0.000017021840    -0.000001828077

  **** Optimization is complete! (in 7 steps) ****
    Final optimized geometry and variables:
    Molecular point group: c1

    Geometry (in Angstrom), charge = 0, multiplicity = 1:

    H           -3.980535099411    -0.719331871125     0.221716333181
    C           -2.922520274431    -0.542294182295     0.192949719869
    C           -2.438390260476     0.751994809840     0.174102667084
    C           -2.042996728344    -1.608341217035     0.181897350653
    H           -3.118324577598     1.581760253087     0.194260093287
    C           -1.076885423764     0.980861166059     0.129660724326
    H           -2.415775355136    -2.614215822713     0.203815137777
    C           -0.680678059773    -1.381767175616     0.157113519673
    H           -0.701602151649     1.985991811697     0.106208336758
    C           -0.197959959487    -0.086694945326     0.110018585517
    H            0.004639463808    -2.206865231154     0.177370986765
    C            1.280625134339     0.145361911544     0.151329539442
    O            1.735556252826     0.676900372406    -0.966533010923
    O            1.970360726769    -0.148344175740     1.066221135954
    C            3.123353540999     0.945769065226    -1.036964524154
    H            3.417035240485     1.637036172955    -0.261096858268
    H            3.291232648401     1.380582647900    -2.008522614672
    H            3.691456429877     0.033716947529    -0.931564987303

  Mulliken Charges: (a.u.)
   Center  Symbol    Alpha    Beta     Spin     Total
       1     H     0.42145  0.42145  0.00000  0.15710
       2     C     3.08245  3.08245  0.00000 -0.16490
       3     C     3.06602  3.06602  0.00000 -0.13204
       4     C     3.06524  3.06524  0.00000 -0.13047
       5     H     0.42180  0.42180  0.00000  0.15640
       6     C     3.09310  3.09310  0.00000 -0.18620
       7     H     0.42154  0.42154  0.00000  0.15692
       8     C     3.09132  3.09132  0.00000 -0.18264
       9     H     0.42362  0.42362  0.00000  0.15277
      10     C     2.92522  2.92522  0.00000  0.14955
      11     H     0.42024  0.42024  0.00000  0.15952
      12     C     2.84143  2.84143  0.00000  0.31715
      13     O     4.14313  4.14313  0.00000 -0.28627
      14     O     4.19652  4.19652  0.00000 -0.39304
      15     C     3.03709  3.03709  0.00000 -0.07417
      16     H     0.45416  0.45416  0.00000  0.09169
      17     H     0.44305  0.44305  0.00000  0.11390
      18     H     0.45263  0.45263  0.00000  0.09474

   Total alpha = 36.00000, Total beta = 36.00000, Total charge = -0.00000

*** Psi4 exiting successfully. Buy a developer a beer!
