  ==> Input File <==

--------------------------------------------------------------------------
set {
	reference rhf
	basis 6-31G*
}

set_num_threads( 1 )
memory 2 gb

molecule MOL {
0 1

H	 -2.258669	 -0.229645	 2.508077
C	 -2.044373	 -1.290624	 2.396089
O	 -0.862087	 -1.499627	 1.693341
H	 -1.922358	 -1.728534	 3.377154
H	 -2.892600	 -1.763740	 1.903036
C	 -0.871775	 -0.991096	 0.396980
C	 0.492685	 -1.179334	 -0.223521
H	 -1.615467	 -1.511558	 -0.207782
H	 -1.122012	 0.067857	 0.398438
O	 1.392611	 -0.295398	 0.366430
H	 0.812323	 -2.209646	 -0.081062
H	 0.427490	 -0.992710	 -1.296189
C	 2.706965	 -0.449871	 -0.062409
H	 2.756559	 -0.644779	 -1.131878
H	 3.305899	 0.433456	 0.155466
H	 3.125548	 -1.294566	 0.467107

	symmetry c1
}
set optking {
	frozen_dihedral = ("
		3 6 7 11,
		2 3 6 7
	")
}

ee = energy('scf')
oeprop('DIPOLE', 'QUADRUPOLE', 'MULLIKEN_CHARGES')
f=open( 'psi4out.xyz', 'w' )
f.write( "16  " )
f.write( str(ee) + "\n" )
f.write( MOL.save_string_xyz() )
f.close()
--------------------------------------------------------------------------

    Molecular point group: c1

    Geometry (in Angstrom), charge = 0, multiplicity = 1:

       Center              X                  Y                   Z               Mass
    ------------   -----------------  -----------------  -----------------  -----------------
           H         -2.397555594938     0.720675028400     1.740084947921     1.007825032070
           C         -2.183259594938    -0.340303971600     1.628096947921    12.000000000000
           O         -1.000973594938    -0.549306971600     0.925348947921    15.994914619560
           H         -2.061244594938    -0.778213971600     2.609161947921     1.007825032070
           H         -3.031486594938    -0.813419971600     1.135043947921     1.007825032070
           C         -1.010661594938    -0.040775971600    -0.371012052079    12.000000000000
           C          0.353798405062    -0.229013971600    -0.991513052079    12.000000000000
           H         -1.754353594938    -0.561237971600    -0.975774052079     1.007825032070
           H         -1.260898594938     1.018177028400    -0.369554052079     1.007825032070
           O          1.253724405062     0.654922028400    -0.401562052079    15.994914619560
           H          0.673436405062    -1.259325971600    -0.849054052079     1.007825032070
           H          0.288603405062    -0.042389971600    -2.064181052079     1.007825032070
           C          2.568078405062     0.500449028400    -0.830401052079    12.000000000000
           H          2.617672405062     0.305541028400    -1.899870052079     1.007825032070
           H          3.167012405062     1.383776028400    -0.612526052079     1.007825032070
           H          2.986661405062    -0.344245971600    -0.300885052079     1.007825032070

  Charge       = 0
  Multiplicity = 1
  Basis Set: 6-31G*
  Basis Set:

    Orbital Energies (a.u.)
    -----------------------

    Doubly Occupied:

       1A    -20.553571     2A    -20.551645     3A    -11.269478
       4A    -11.268620     5A    -11.263507     6A    -11.263471
       7A     -1.387947     8A     -1.370297     9A     -1.030563
      10A     -0.935591    11A     -0.892149    12A     -0.824298
      13A     -0.684560    14A     -0.680021    15A     -0.656381
      16A     -0.636600    17A     -0.628462    18A     -0.597140
      19A     -0.552265    20A     -0.536005    21A     -0.508742
      22A     -0.477038    23A     -0.462479    24A     -0.418626
      25A     -0.409126

  @DF-RHF Final Energy:  -306.97570716539082

   => Energetics <=

    Nuclear Repulsion Energy =            258.8860376399287020
    One-Electron Energy =                -932.0062269109256476
    Two-Electron Energy =                 366.1444821056057890
    DFT Exchange-Correlation Energy =       0.0000000000000000
    Empirical Dispersion Energy =           0.0000000000000000
    PCM Polarization Energy =               0.0000000000000000
    EFP Energy =                            0.0000000000000000
    Total Energy =                       -306.9757071653910998

  Mulliken Charges: (a.u.)
   Center  Symbol    Alpha    Beta     Spin     Total
       1     H     0.42804  0.42804  0.00000  0.14393
       2     C     3.07953  3.07953  0.00000 -0.15907
       3     O     4.30088  4.30088  0.00000 -0.60175
       4     H     0.41129  0.41129  0.00000  0.17743
       5     H     0.43190  0.43190  0.00000  0.13620
       6     C     2.99320  2.99320  0.00000  0.01361
       7     C     2.99380  2.99380  0.00000  0.01240
       8     H     0.43230  0.43230  0.00000  0.13540
       9     H     0.42262  0.42262  0.00000  0.15476
      10     O     4.30207  4.30207  0.00000 -0.60415
      11     H     0.42317  0.42317  0.00000  0.15367
      12     H     0.43165  0.43165  0.00000  0.13669
      13     C     3.07922  3.07922  0.00000 -0.15844
      14     H     0.43265  0.43265  0.00000  0.13470
      15     H     0.41330  0.41330  0.00000  0.17341
      16     H     0.42439  0.42439  0.00000  0.15122

   Total alpha = 25.00000, Total beta = 25.00000, Total charge =  0.00000
