  ==> Input File <==

--------------------------------------------------------------------------
set {
	reference rhf
	basis 6-31G*
}

set_num_threads( 4 )
memory 2 gb

molecule MOL {
0 1

H	 2.126360	 -2.893689	 -0.553910
O	 2.902309	 -2.592330	 -1.003530
C	 2.605529	 -2.361208	 -2.357250
C	 1.761573	 -1.111567	 -2.582773
H	 3.561231	 -2.251266	 -2.853455
H	 2.113187	 -3.229779	 -2.793100
C	 0.365442	 -1.182599	 -1.959360
H	 2.297831	 -0.256051	 -2.180422
H	 1.670735	 -0.952944	 -3.656064
C	 -0.475719	 0.063680	 -2.249281
H	 0.460348	 -1.314442	 -0.885127
H	 -0.156081	 -2.061601	 -2.338451
C	 -1.913329	 0.007759	 -1.719668
H	 0.025685	 0.937720	 -1.837583
H	 -0.511236	 0.214400	 -3.326185
C	 -2.037799	 -0.007733	 -0.193645
H	 -2.452429	 0.871761	 -2.102665
H	 -2.414235	 -0.867129	 -2.131374
C	 -3.489788	 0.042957	 0.286558
H	 -1.493993	 0.840600	 0.219535
H	 -1.565031	 -0.899207	 0.211409
C	 -4.216917	 1.317354	 -0.141063
H	 -4.025645	 -0.823308	 -0.095450
H	 -3.513059	 -0.038752	 1.371301
H	 -4.239342	 1.411634	 -1.223113
H	 -5.243387	 1.322503	 0.212445
H	 -3.726170	 2.201406	 0.256408

	symmetry c1
}
set optking {
	frozen_dihedral = ("
		20 16 19 22
	")
}

ee = optimize('scf')
oeprop('DIPOLE', 'QUADRUPOLE', 'MULLIKEN_CHARGES')
f=open( 'psi4out.xyz', 'w' )
f.write( "27  " )
f.write( str(ee) + "\n" )
f.write( MOL.save_string_xyz() )
f.close()
--------------------------------------------------------------------------

    Molecular point group: c1
  Charge       = 0
  Multiplicity = 1
  Basis Set: 6-31G*
  Basis Set:
  @DF-RHF Final Energy:  -388.27899614740818
    Total Energy =                       -388.2789961474079519
    Molecular point group: c1
  Basis Set: 6-31G*
  Basis Set:
  Basis Set: 6-31G*
  Basis Set:
  @DF-RHF Final Energy:  -388.27939977611078
    Total Energy =                       -388.2793997761107221
  Basis Set: 6-31G*
  Basis Set:
  Basis Set: 6-31G*
  Basis Set:
  @DF-RHF Final Energy:  -388.27989871064096
    Total Energy =                       -388.2798987106413051
  Basis Set: 6-31G*
  Basis Set:
  Basis Set: 6-31G*
  Basis Set:
  @DF-RHF Final Energy:  -388.27985659988479
    Total Energy =                       -388.2798565998850790
  Basis Set: 6-31G*
  Basis Set:
  Basis Set: 6-31G*
  Basis Set:
  @DF-RHF Final Energy:  -388.27993308836272
    Total Energy =                       -388.2799330883631228
  Basis Set: 6-31G*
  Basis Set:
  Basis Set: 6-31G*
  Basis Set:
  @DF-RHF Final Energy:  -388.27994648074377
    Total Energy =                       -388.2799464807433196
  Basis Set: 6-31G*
  Basis Set:
  Charge       = 0
  Multiplicity = 1
  Basis Set: 6-31G*
  Basis Set:

    Orbital Energies (a.u.)
    -----------------------

    Doubly Occupied:

       1A    -20.552317     2A    -11.267056     3A    -11.219755
       4A    -11.217370     5A    -11.216547     6A    -11.215338
       7A    -11.215210     8A    -11.214451     9A    -11.208884
      10A     -1.359071    11A     -1.094974    12A     -1.060915
      13A     -1.009600    14A     -0.946705    15A     -0.893594
      16A     -0.827728    17A     -0.797908    18A     -0.770688
      19A     -0.693735    20A     -0.645814    21A     -0.633314
      22A     -0.617667    23A     -0.608305    24A     -0.588097
      25A     -0.579764    26A     -0.553766    27A     -0.538938
      28A     -0.528421    29A     -0.504515    30A     -0.497787
      31A     -0.486321    32A     -0.473945    33A     -0.469251
      34A     -0.459709    35A     -0.448174    36A     -0.441127
      37A     -0.423186

  @DF-RHF Final Energy:  -388.27994567183765

   => Energetics <=

    Nuclear Repulsion Energy =            461.4750602154023795
    One-Electron Energy =               -1440.9501188013996398
    Two-Electron Energy =                 591.1951129141596084
    DFT Exchange-Correlation Energy =       0.0000000000000000
    Empirical Dispersion Energy =           0.0000000000000000
    PCM Polarization Energy =               0.0000000000000000
    EFP Energy =                            0.0000000000000000
    Total Energy =                       -388.2799456718375950
    Molecular point group: c1
  Basis Set: 6-31G*
  Basis Set:

  -Total Gradient:
     Atom            X                  Y                   Z
    ------   -----------------  -----------------  -----------------
       1       -0.000021635608     0.000009153201    -0.000000161349
       2        0.000002420525     0.000003189775     0.000004837934
       3        0.000022739183     0.000025549640     0.000013758168
       4        0.000027104399    -0.000028219247     0.000039074261
       5        0.000006106083    -0.000003545877    -0.000000043606
       6       -0.000006406467     0.000009233479    -0.000002520279
       7        0.000018053132    -0.000047069916    -0.000056451223
       8       -0.000004217626     0.000022796122    -0.000018328167
       9       -0.000000113503    -0.000031755800     0.000004648490
      10        0.000011431846     0.000058268529     0.000138343255
      11        0.000041022007    -0.000020993407    -0.000064964879
      12       -0.000017796520    -0.000041733087    -0.000036886697
      13       -0.000001567398    -0.000009533124    -0.000058518604
      14        0.000029594695     0.000032985143    -0.000022103662
      15       -0.000076656000    -0.000002941414     0.000041688550
      16       -0.000362359836     0.000466531663    -0.000884682624
      17        0.000027720333    -0.000029229846    -0.000034475420
      18        0.000010267730    -0.000014128171     0.000027126814
      19        0.000232337765     0.000242945136     0.000708636879
      20        0.000249311022    -0.000385237448     0.000598306825
      21       -0.000092379787     0.000023971293     0.000017696094
      22       -0.000110480740    -0.000247246013    -0.000447950733
      23        0.000014644126    -0.000007159568    -0.000020732022
      24        0.000004820446    -0.000004305477     0.000002270557
      25       -0.000043302245    -0.000007563798     0.000031318472
      26        0.000022451838    -0.000013697467     0.000035620976
      27        0.000016890604    -0.000000264318    -0.000015508012

  **** Optimization is complete! (in 7 steps) ****
    Final optimized geometry and variables:
    Molecular point group: c1

    Geometry (in Angstrom), charge = 0, multiplicity = 1:

    H            2.524412576378    -2.271045280322     0.754822222059
    O            3.315535720993    -1.981390855989     0.324349886408
    C            3.050651179614    -1.727891418455    -1.031965176635
    C            2.240101513957    -0.456538747584    -1.258609281780
    H            4.018218133480    -1.634250719648    -1.508087064231
    H            2.547318339983    -2.579773327804    -1.487727506026
    C            0.831328977763    -0.502156655715    -0.661746609862
    H            2.788220554407     0.381824335097    -0.836617543003
    H            2.173073756626    -0.283987685719    -2.331489473922
    C            0.028123943016     0.770583026810    -0.945373769245
    H            0.904252031461    -0.655923234794     0.411085368453
    H            0.294460163706    -1.360476283697    -1.065987208059
    C           -1.418445382473     0.751775356166    -0.435162207499
    H            0.549055770102     1.626146940820    -0.519182169296
    H            0.009965043522     0.933213601952    -2.020918175214
    C           -1.554734570716     0.769328414781     1.090464322477
    H           -1.931114971964     1.613969200188    -0.851485778778
    H           -1.928138288889    -0.125405773790    -0.832037330461
    C           -2.999671266245     0.729542402846     1.603074231005
    H           -1.057831273388     1.653543390873     1.487579641609
    H           -1.029103335656    -0.083576366849     1.511114847846
    C           -3.855301740533     1.934650380972     1.208150916613
    H           -3.479376795682    -0.181680499993     1.250914348556
    H           -2.975444623328     0.658462578823     2.687685875147
    H           -4.021036681589     1.983414639686     0.137353357747
    H           -4.829322912871     1.886059851881     1.685274546068
    H           -3.384876451529     2.865515253419     1.513872417890

  Mulliken Charges: (a.u.)
   Center  Symbol    Alpha    Beta     Spin     Total
       1     H     0.27988  0.27988  0.00000  0.44024
       2     O     4.37092  4.37092  0.00000 -0.74185
       3     C     2.99741  2.99741  0.00000  0.00519
       4     C     3.16089  3.16089  0.00000 -0.32177
       5     H     0.41442  0.41442  0.00000  0.17115
       6     H     0.43204  0.43204  0.00000  0.13592
       7     C     3.16313  3.16313  0.00000 -0.32625
       8     H     0.41497  0.41497  0.00000  0.17006
       9     H     0.42434  0.42434  0.00000  0.15132
      10     C     3.15202  3.15202  0.00000 -0.30404
      11     H     0.42329  0.42329  0.00000  0.15343
      12     H     0.42537  0.42537  0.00000  0.14927
      13     C     3.15552  3.15552  0.00000 -0.31105
      14     H     0.42153  0.42153  0.00000  0.15694
      15     H     0.42147  0.42147  0.00000  0.15705
      16     C     3.15399  3.15399  0.00000 -0.30799
      17     H     0.41864  0.41864  0.00000  0.16272
      18     H     0.42496  0.42496  0.00000  0.15008
      19     C     3.15182  3.15182  0.00000 -0.30364
      20     H     0.42382  0.42382  0.00000  0.15237
      21     H     0.42220  0.42220  0.00000  0.15560
      22     C     3.24162  3.24162  0.00000 -0.48324
      23     H     0.42376  0.42376  0.00000  0.15249
      24     H     0.42087  0.42087  0.00000  0.15827
      25     H     0.41992  0.41992  0.00000  0.16015
      26     H     0.41910  0.41910  0.00000  0.16180
      27     H     0.42211  0.42211  0.00000  0.15578

   Total alpha = 37.00000, Total beta = 37.00000, Total charge =  0.00000
