                              Psi4 1.0.54 Driver

  ==> Input File <==

--------------------------------------------------------------------------
set {
	reference rhf
	basis cc-pvtz
}

set_num_threads( 4 )
memory 2 gb

molecule MOL {
0 1

H	 2.046318	 0.334276	 -0.981390
O	 1.278517	 -0.215156	 -1.026927
C	 0.489979	 0.078084	 0.002623
C	 -0.763662	 -0.754014	 0.000816
O	 0.772510	 0.905932	 0.798082
C	 -2.038001	 0.074705	 -0.000833
H	 -0.712945	 -1.405886	 -0.864342
H	 -0.715137	 -1.405770	 0.866182
H	 -2.087267	 0.710831	 -0.874232
H	 -2.903419	 -0.576199	 -0.001922
H	 -2.089467	 0.710909	 0.872389

	symmetry c1
}
set optking {
	frozen_dihedral = ("
		2 3 4 7
	")
}

ee,wfn = optimize('scf', return_wfn=True)
oeprop( wfn, 'DIPOLE', 'QUADRUPOLE', 'MULLIKEN_CHARGES')
f=open( 'psi4out.xyz', 'w' )
f.write( "11  " )
f.write( str(ee) + "\n" )
f.write( MOL.save_string_xyz() )
f.close()
--------------------------------------------------------------------------

    Molecular point group: c1
  Charge       = 0
  Multiplicity = 1
  Basis Set: CC-PVTZ
  Basis Set:
  @DF-RHF Final Energy:  -266.95080545630356
    Total Energy =                       -266.9508054563036126
    Molecular point group: c1
  Basis Set: CC-PVTZ
  Basis Set:
  Basis Set: CC-PVTZ
  Basis Set:
  @DF-RHF Final Energy:  -266.95135536029574
    Total Energy =                       -266.9513553602955085
  Basis Set: CC-PVTZ
  Basis Set:
  Basis Set: CC-PVTZ
  Basis Set:
  @DF-RHF Final Energy:  -266.95120058571695
    Total Energy =                       -266.9512005857167765
  Basis Set: CC-PVTZ
  Basis Set:
  Basis Set: CC-PVTZ
  Basis Set:
  @DF-RHF Final Energy:  -266.95139475397536
    Total Energy =                       -266.9513947539753076
  Basis Set: CC-PVTZ
  Basis Set:
  Charge       = 0
  Multiplicity = 1
  Basis Set: CC-PVTZ
  Basis Set:

    Orbital Energies (a.u.)
    -----------------------

    Doubly Occupied:

       1A    -20.607457     2A    -20.538809     3A    -11.374341
       4A    -11.241784     5A    -11.225066     6A     -1.479326
       7A     -1.369314     8A     -1.066906     9A     -0.916613
      10A     -0.812088    11A     -0.707090    12A     -0.691622
      13A     -0.652074    14A     -0.611277    15A     -0.596543
      16A     -0.538660    17A     -0.527542    18A     -0.511197
      19A     -0.479236    20A     -0.446255

  @DF-RHF Final Energy:  -266.95140958499383

   => Energetics <=

    Nuclear Repulsion Energy =            180.0948758077042555
    One-Electron Energy =                -721.3061755865262512
    Two-Electron Energy =                 274.2598901938280278
    DFT Exchange-Correlation Energy =       0.0000000000000000
    Empirical Dispersion Energy =           0.0000000000000000
    PCM Polarization Energy =               0.0000000000000000
    EFP Energy =                            0.0000000000000000
    Total Energy =                       -266.9514095849939395
    Molecular point group: c1
  Basis Set: CC-PVTZ
  Basis Set:

  -Total Gradient:
     Atom            X                  Y                   Z
    ------   -----------------  -----------------  -----------------
       1        0.000016172902     0.000002472512    -0.000005403068
       2       -0.000191815461     0.000517926490    -0.000202952807
       3        0.000252531160    -0.000955921096     0.000327951407
       4       -0.000578415312     0.000859134040    -0.000517398976
       5        0.000111535070     0.000082696310    -0.000000772193
       6        0.000013781797    -0.000036469952    -0.000001273207
       7        0.000351645470    -0.000401245169     0.000430585590
       8        0.000028619924    -0.000030980405     0.000017071718
       9       -0.000034497435    -0.000006477351     0.000024071155
      10       -0.000000503502     0.000033630697    -0.000014640267
      11        0.000030945393    -0.000064766074    -0.000057239355

  **** Optimization is complete! (in 5 steps) ****
    Final optimized geometry and variables:
    Molecular point group: c1

    Geometry (in Angstrom), charge = 0, multiplicity = 1:

    H            2.077805051961     0.347065316620    -0.885196650562
    O            1.319570552727    -0.213087204361    -0.962926979508
    C            0.506202405999     0.040976823417     0.055273162503
    C           -0.741305007604    -0.804672695619     0.044471271413
    O            0.759138700298     0.856421528604     0.874518898289
    C           -2.005224268890     0.052726656403     0.064524209007
    H           -0.723646458025    -1.464385199689    -0.810360952436
    H           -0.701610853652    -1.418480892719     0.937213826231
    H           -2.077912584484     0.662960834975    -0.827952933199
    H           -2.882483966746    -0.579767061118     0.109289683728
    H           -2.007587274226     0.707813071881     0.924188841946

  Mulliken Charges: (a.u.)
   Center  Symbol    Alpha    Beta     Spin     Total
       1     H     0.37998  0.37998  0.00000  0.24004
       2     O     4.15871  4.15871  0.00000 -0.31742
       3     C     2.80248  2.80248  0.00000  0.39505
       4     C     3.09092  3.09092  0.00000 -0.18183
       5     O     4.19869  4.19869  0.00000 -0.39738
       6     C     3.14498  3.14498  0.00000 -0.28995
       7     H     0.43824  0.43824  0.00000  0.12352
       8     H     0.44383  0.44383  0.00000  0.11235
       9     H     0.45225  0.45225  0.00000  0.09551
      10     H     0.44845  0.44845  0.00000  0.10310
      11     H     0.44149  0.44149  0.00000  0.11703

   Total alpha = 20.00000, Total beta = 20.00000, Total charge =  0.00000

*** Psi4 exiting successfully. Buy a developer a beer!
