  ==> Input File <==

--------------------------------------------------------------------------
set {
	reference rhf
	basis cc-pvtz
}

set_num_threads( 4 )
memory 2 gb

molecule MOL {
0 1

H	 -1.096423	 -0.875589	 0.191393
N	 -0.712187	 0.000026	 -0.093397
C	 0.734067	 -0.000020	 0.038424
H	 -1.122994	 0.702842	 0.483431
H	 1.140372	 -0.872115	 -0.458226
H	 1.140363	 0.872301	 -0.457869
H	 1.095085	 -0.000244	 1.065614

	symmetry c1
}
set optking {
	frozen_dihedral = ("
		1 2 3 7
	")
}

ee = optimize('scf')
oeprop('DIPOLE', 'QUADRUPOLE', 'MULLIKEN_CHARGES')
f=open( 'psi4out.xyz', 'w' )
f.write( "7  " )
f.write( str(ee) + "\n" )
f.write( MOL.save_string_xyz() )
f.close()
--------------------------------------------------------------------------

    Molecular point group: c1
  Charge       = 0
  Multiplicity = 1
  Basis Set: CC-PVTZ
  Basis Set:
  @DF-RHF Final Energy:   -95.25351123705862
    Total Energy =                        -95.2535112370586319
    Molecular point group: c1
  Basis Set: CC-PVTZ
  Basis Set:
  Basis Set: CC-PVTZ
  Basis Set:
  @DF-RHF Final Energy:   -95.25353206044943
    Total Energy =                        -95.2535320604494302
  Basis Set: CC-PVTZ
  Basis Set:
  Charge       = 0
  Multiplicity = 1
  Basis Set: CC-PVTZ
  Basis Set:

    Orbital Energies (a.u.)
    -----------------------

    Doubly Occupied:

       1A    -15.527953     2A    -11.235462     3A     -1.171616
       4A     -0.897078     5A     -0.666740     6A     -0.602611
       7A     -0.559070     8A     -0.517888     9A     -0.385410

  @DF-RHF Final Energy:   -95.25353399576679

   => Energetics <=

    Nuclear Repulsion Energy =             42.3890129115851053
    One-Electron Energy =                -212.1574400761719801
    Two-Electron Energy =                  74.5148931688201372
    DFT Exchange-Correlation Energy =       0.0000000000000000
    Empirical Dispersion Energy =           0.0000000000000000
    PCM Polarization Energy =               0.0000000000000000
    EFP Energy =                            0.0000000000000000
    Total Energy =                        -95.2535339957667446
    Molecular point group: c1
  Basis Set: CC-PVTZ
  Basis Set:

  -Total Gradient:
     Atom            X                  Y                   Z
    ------   -----------------  -----------------  -----------------
       1        0.000144974439    -0.000533873182    -0.001303024206
       2       -0.000242012984     0.000995755684     0.001572043615
       3        0.000197720535    -0.001852166485    -0.000250796357
       4        0.000025631521     0.000045611993     0.000008736823
       5       -0.000079106021     0.000004401354    -0.000021624615
       6       -0.000020539806     0.000004009089     0.000014193671
       7       -0.000026667683     0.001336261546    -0.000019528930

  **** Optimization is complete! (in 3 steps) ****
    Final optimized geometry and variables:
    Molecular point group: c1

    Geometry (in Angstrom), charge = 0, multiplicity = 1:

    H           -1.097950616983    -0.870035195041     0.194645937242
    N           -0.712158974669     0.004391729794    -0.089777237050
    C            0.734285819402     0.005704551237     0.036898665339
    H           -1.127750064794     0.716676051338     0.470883974759
    H            1.139777607185    -0.862508255288    -0.466403564076
    H            1.139963570982     0.881962278777    -0.454150163190
    H            1.097930287916     0.004961773886     1.063074106105

  Mulliken Charges: (a.u.)
   Center  Symbol    Alpha    Beta     Spin     Total
       1     H     0.42769  0.42769  0.00000  0.14463
       2     N     3.68823  3.68823  0.00000 -0.37646
       3     C     3.07080  3.07080  0.00000 -0.14159
       4     H     0.42820  0.42820  0.00000  0.14360
       5     H     0.45633  0.45633  0.00000  0.08734
       6     H     0.45658  0.45658  0.00000  0.08684
       7     H     0.47217  0.47217  0.00000  0.05565

   Total alpha =  9.00000, Total beta =  9.00000, Total charge =  0.00000
