  ==> Input File <==

--------------------------------------------------------------------------
set {
	reference rhf
	basis 6-31G*
}

set_num_threads( 1 )
memory 2 gb

molecule MOL {
0 1

H	 1.919298	 -0.717004	 -0.891590
O	 1.586534	 -0.678666	 -0.000226
C	 0.489431	 0.077273	 0.000046
C	 -0.764129	 -0.759190	 0.000191
O	 0.537743	 1.263962	 0.000257
C	 -2.038368	 0.075731	 -0.000248
H	 -0.717284	 -1.412404	 -0.866059
H	 -0.717458	 -1.411724	 0.866967
H	 -2.086483	 0.712501	 -0.875098
H	 -2.908485	 -0.571682	 -0.000042
H	 -2.086576	 0.713280	 0.874068

	symmetry c1
}
set optking {
	frozen_dihedral = ("
		2 3 4 7
	")
}

ee = energy('scf')
oeprop('DIPOLE', 'QUADRUPOLE', 'MULLIKEN_CHARGES')
f=open( 'psi4out.xyz', 'w' )
f.write( "11  " )
f.write( str(ee) + "\n" )
f.write( MOL.save_string_xyz() )
f.close()
--------------------------------------------------------------------------

    Molecular point group: c1

    Geometry (in Angstrom), charge = 0, multiplicity = 1:

       Center              X                  Y                   Z               Mass
    ------------   -----------------  -----------------  -----------------  -----------------
           H          1.925075836403    -0.708622603929    -0.879455920584     1.007825032070
           O          1.592311836403    -0.670284603929     0.011908079416    15.994914619560
           C          0.495208836403     0.085654396071     0.012180079416    12.000000000000
           C         -0.758351163597    -0.750808603929     0.012325079416    12.000000000000
           O          0.543520836403     1.272343396071     0.012391079416    15.994914619560
           C         -2.032590163597     0.084112396071     0.011886079416    12.000000000000
           H         -0.711506163597    -1.404022603929    -0.853924920584     1.007825032070
           H         -0.711680163597    -1.403342603929     0.879101079416     1.007825032070
           H         -2.080705163597     0.720882396071    -0.862963920584     1.007825032070
           H         -2.902707163597    -0.563300603929     0.012092079416     1.007825032070
           H         -2.080798163597     0.721661396071     0.886202079416     1.007825032070

  Charge       = 0
  Multiplicity = 1
  Basis Set: 6-31G*
  Basis Set:

    Orbital Energies (a.u.)
    -----------------------

    Doubly Occupied:

       1A    -20.599286     2A    -20.560847     3A    -11.380798
       4A    -11.244608     5A    -11.220401     6A     -1.470335
       7A     -1.369537     8A     -1.064214     9A     -0.910567
      10A     -0.808874    11A     -0.712078    12A     -0.680821
      13A     -0.661690    14A     -0.616610    15A     -0.568504
      16A     -0.527825    17A     -0.519927    18A     -0.498029
      19A     -0.490132    20A     -0.446319

  @DF-RHF Final Energy:  -266.82429343379476

   => Energetics <=

    Nuclear Repulsion Energy =            179.7927717071429470
    One-Electron Energy =                -720.5313433967138508
    Two-Electron Energy =                 273.9142782557767077
    DFT Exchange-Correlation Energy =       0.0000000000000000
    Empirical Dispersion Energy =           0.0000000000000000
    PCM Polarization Energy =               0.0000000000000000
    EFP Energy =                            0.0000000000000000
    Total Energy =                       -266.8242934337941961

  Mulliken Charges: (a.u.)
   Center  Symbol    Alpha    Beta     Spin     Total
       1     H     0.26466  0.26466  0.00000  0.47069
       2     O     4.35650  4.35650  0.00000 -0.71301
       3     C     2.63860  2.63860  0.00000  0.72281
       4     C     3.20633  3.20633  0.00000 -0.41265
       5     O     4.25265  4.25265  0.00000 -0.50529
       6     C     3.24018  3.24018  0.00000 -0.48036
       7     H     0.40801  0.40801  0.00000  0.18397
       8     H     0.39678  0.39678  0.00000  0.20644
       9     H     0.41091  0.41091  0.00000  0.17818
      10     H     0.41746  0.41746  0.00000  0.16508
      11     H     0.40792  0.40792  0.00000  0.18415

   Total alpha = 20.00000, Total beta = 20.00000, Total charge = -0.00000
