  ==> Input File <==

--------------------------------------------------------------------------
set {
	reference rhf
	basis 6-31G*
}

set_num_threads( 1 )
memory 2 gb

molecule MOL {
0 1

O	 1.846825	 1.296220	 0.000415
C	 1.705091	 0.115954	 0.001797
C	 0.381791	 -0.609817	 0.001258
O	 2.721346	 -0.737485	 -0.000216
C	 -0.823008	 0.326187	 0.001381
H	 0.371250	 -1.265087	 -0.865474
H	 0.370908	 -1.265746	 0.867490
C	 -1.081396	 0.939461	 1.378404
H	 -1.700443	 -0.220357	 -0.329658
H	 -0.664546	 1.113174	 -0.729270
C	 -2.287152	 1.880561	 1.396912
H	 -1.235957	 0.145200	 2.107277
H	 -0.197093	 1.484140	 1.705841
C	 -2.544089	 2.493961	 2.772767
H	 -3.171885	 1.337280	 1.072513
H	 -2.133862	 2.675018	 0.669948
H	 -2.735447	 1.724828	 3.515754
H	 -3.404270	 3.155902	 2.753462
H	 -1.688917	 3.072863	 3.110204
C	 4.024888	 -0.184556	 -0.001949
H	 4.179030	 0.422472	 -0.882452
H	 4.701782	 -1.024608	 -0.003642
H	 4.181981	 0.421185	 0.878906

	symmetry c1
}
set optking {
	frozen_dihedral = ("
		15 11 8 12,
		9 5 8 12,
		1 2 3 6,
		1 2 4 20
	")
}

ee = energy('scf')
oeprop('DIPOLE', 'QUADRUPOLE', 'MULLIKEN_CHARGES')
f=open( 'psi4out.xyz', 'w' )
f.write( "23  " )
f.write( str(ee) + "\n" )
f.write( MOL.save_string_xyz() )
f.close()
--------------------------------------------------------------------------

    Molecular point group: c1

    Geometry (in Angstrom), charge = 0, multiplicity = 1:

       Center              X                  Y                   Z               Mass
    ------------   -----------------  -----------------  -----------------  -----------------
           O          1.366968264964     0.678643310118    -0.619030399438    15.994914619560
           C          1.225234264964    -0.501622689882    -0.617648399438    12.000000000000
           C         -0.098065735036    -1.227393689882    -0.618187399438    12.000000000000
           O          2.241489264964    -1.355061689882    -0.619661399438    15.994914619560
           C         -1.302864735036    -0.291389689882    -0.618064399438    12.000000000000
           H         -0.108606735036    -1.882663689882    -1.484919399438     1.007825032070
           H         -0.108948735036    -1.883322689882     0.248044600562     1.007825032070
           C         -1.561252735036     0.321884310118     0.758958600562    12.000000000000
           H         -2.180299735036    -0.837933689882    -0.949103399438     1.007825032070
           H         -1.144402735036     0.495597310118    -1.348715399438     1.007825032070
           C         -2.767008735036     1.262984310118     0.777466600562    12.000000000000
           H         -1.715813735036    -0.472376689882     1.487831600562     1.007825032070
           H         -0.676949735036     0.866563310118     1.086395600562     1.007825032070
           C         -3.023945735036     1.876384310118     2.153321600562    12.000000000000
           H         -3.651741735036     0.719703310118     0.453067600562     1.007825032070
           H         -2.613718735036     2.057441310118     0.050502600562     1.007825032070
           H         -3.215303735036     1.107251310118     2.896308600562     1.007825032070
           H         -3.884126735036     2.538325310118     2.134016600562     1.007825032070
           H         -2.168773735036     2.455286310118     2.490758600562     1.007825032070
           C          3.545031264964    -0.802132689882    -0.621394399438    12.000000000000
           H          3.699173264964    -0.195104689882    -1.501897399438     1.007825032070
           H          4.221925264964    -1.642184689882    -0.623087399438     1.007825032070
           H          3.702124264964    -0.196391689882     0.259460600562     1.007825032070

  Charge       = 0
  Multiplicity = 1
  Basis Set: 6-31G*
  Basis Set:

    Orbital Energies (a.u.)
    -----------------------

    Doubly Occupied:

       1A    -20.604691     2A    -20.546738     3A    -11.373338
       4A    -11.281542     5A    -11.235385     6A    -11.218746
       7A    -11.211824     8A    -11.210311     9A    -11.205431
      10A     -1.470496    11A     -1.364229    12A     -1.090790
      13A     -1.040827    14A     -0.985973    15A     -0.929147
      16A     -0.843171    17A     -0.792717    18A     -0.766915
      19A     -0.702986    20A     -0.681098    21A     -0.672427
      22A     -0.637722    23A     -0.613375    24A     -0.598836
      25A     -0.567956    26A     -0.555882    27A     -0.551473
      28A     -0.532115    29A     -0.522160    30A     -0.500317
      31A     -0.490948    32A     -0.466212    33A     -0.464692
      34A     -0.454904    35A     -0.448751    36A     -0.436467

  @DF-RHF Final Energy:  -422.97549780585160

   => Energetics <=

    Nuclear Repulsion Energy =            462.9462729128305796
    One-Electron Energy =               -1493.7022814980921339
    Two-Electron Energy =                 607.7805107794099513
    DFT Exchange-Correlation Energy =       0.0000000000000000
    Empirical Dispersion Energy =           0.0000000000000000
    PCM Polarization Energy =               0.0000000000000000
    EFP Energy =                            0.0000000000000000
    Total Energy =                       -422.9754978058515462

  Mulliken Charges: (a.u.)
   Center  Symbol    Alpha    Beta     Spin     Total
       1     O     4.28626  4.28626  0.00000 -0.57253
       2     C     2.60600  2.60600  0.00000  0.78799
       3     C     3.20975  3.20975  0.00000 -0.41951
       4     O     4.30671  4.30671  0.00000 -0.61341
       5     C     3.15587  3.15587  0.00000 -0.31174
       6     H     0.39788  0.39788  0.00000  0.20424
       7     H     0.40008  0.40008  0.00000  0.19985
       8     C     3.15687  3.15687  0.00000 -0.31373
       9     H     0.41880  0.41880  0.00000  0.16240
      10     H     0.40748  0.40748  0.00000  0.18505
      11     C     3.15202  3.15202  0.00000 -0.30404
      12     H     0.42741  0.42741  0.00000  0.14517
      13     H     0.40863  0.40863  0.00000  0.18274
      14     C     3.23958  3.23958  0.00000 -0.47916
      15     H     0.42506  0.42506  0.00000  0.14989
      16     H     0.42001  0.42001  0.00000  0.15997
      17     H     0.42299  0.42299  0.00000  0.15401
      18     H     0.41979  0.41979  0.00000  0.16041
      19     H     0.42006  0.42006  0.00000  0.15989
      20     C     3.09242  3.09242  0.00000 -0.18485
      21     H     0.40895  0.40895  0.00000  0.18210
      22     H     0.40827  0.40827  0.00000  0.18346
      23     H     0.40911  0.40911  0.00000  0.18179

   Total alpha = 36.00000, Total beta = 36.00000, Total charge = -0.00000
