                              Psi4 1.0.54 Driver

  ==> Input File <==

--------------------------------------------------------------------------
set {
	reference rhf
	basis cc-pvtz
}

set_num_threads( 4 )
memory 2 gb

molecule MOL {
0 1

O	 3.801118	 -0.197021	 -0.597678
C	 2.841259	 0.166180	 -0.000295
C	 1.542794	 -0.614730	 -0.000853
C	 2.852920	 1.444147	 0.807720
C	 0.288398	 0.247429	 0.000314
H	 1.557171	 -1.273139	 -0.866508
H	 1.557484	 -1.274998	 0.863344
C	 -0.993089	 -0.581367	 -0.000217
H	 0.305153	 0.900562	 -0.864701
H	 0.305567	 0.898805	 0.866656
C	 -2.258482	 0.271340	 0.000669
H	 -1.002280	 -1.233920	 -0.870484
H	 -1.002061	 -1.235367	 0.868958
C	 -3.544441	 -0.550271	 -0.000253
H	 -2.250545	 0.925250	 -0.867923
H	 -2.250598	 0.923423	 0.870642
C	 -4.804551	 0.308747	 0.000556
H	 -3.553737	 -1.201524	 -0.870151
H	 -3.553831	 -1.203282	 0.868313
H	 -4.842050	 0.949078	 -0.874436
H	 -5.698404	 -0.304480	 -0.000254
H	 -4.842277	 0.947103	 0.876982
H	 2.624578	 1.232086	 1.846439
H	 3.822179	 1.913133	 0.737143
H	 2.090957	 2.124078	 0.442825

	symmetry c1
}
set optking {
	frozen_dihedral = ("
		1 2 3 6
	")
}

ee,wfn = optimize('scf', return_wfn=True)
oeprop( wfn, 'DIPOLE', 'QUADRUPOLE', 'MULLIKEN_CHARGES')
f=open( 'psi4out.xyz', 'w' )
f.write( "25  " )
f.write( str(ee) + "\n" )
f.write( MOL.save_string_xyz() )
f.close()
--------------------------------------------------------------------------

    Molecular point group: c1
  Charge       = 0
  Multiplicity = 1
  Basis Set: CC-PVTZ
  Basis Set:
  @DF-RHF Final Energy:  -387.27028730715534
    Total Energy =                       -387.2702873071557406
    Molecular point group: c1
  Basis Set: CC-PVTZ
  Basis Set:
  Basis Set: CC-PVTZ
  Basis Set:
  @DF-RHF Final Energy:  -385.84585242792929
    Total Energy =                       -385.8458524279290032
  Basis Set: CC-PVTZ
  Basis Set:
  Basis Set: CC-PVTZ
  Basis Set:
  @DF-RHF Final Energy:  -386.11202685819677
    Total Energy =                       -386.1120268581966002
  Basis Set: CC-PVTZ
  Basis Set:
  Basis Set: CC-PVTZ
  Basis Set:
  @DF-RHF Final Energy:  -386.57459104083574
    Total Energy =                       -386.5745910408357986
  Basis Set: CC-PVTZ
  Basis Set:
  @DF-RHF Final Energy:  -386.94685250032637
    Total Energy =                       -386.9468525003261448
  @DF-RHF Final Energy:  -387.18580410234318
    Total Energy =                       -387.1858041023433543
  @DF-RHF Final Energy:  -387.25779615314133
    Total Energy =                       -387.2577961531409301
  @DF-RHF Final Energy:  -387.27030506403867
    Total Energy =                       -387.2703050640388938
  @DF-RHF Final Energy:  -387.27021569892270
    Total Energy =                       -387.2702156989231526
  @DF-RHF Final Energy:  -387.27174118684673
    Total Energy =                       -387.2717411868471800
  Basis Set: CC-PVTZ
  Basis Set:
  @DF-RHF Final Energy:  -387.27182058729454
    Total Energy =                       -387.2718205872944282
  Basis Set: CC-PVTZ
  Basis Set:
  Basis Set: CC-PVTZ
  Basis Set:
  @DF-RHF Final Energy:  -387.27182479025822
    Total Energy =                       -387.2718247902586199
  Basis Set: CC-PVTZ
  Basis Set:
  Basis Set: CC-PVTZ
  Basis Set:
  @DF-RHF Final Energy:  -387.27182595045684
    Total Energy =                       -387.2718259504572416
  Basis Set: CC-PVTZ
  Basis Set:
  Charge       = 0
  Multiplicity = 1
  Basis Set: CC-PVTZ
  Basis Set:

    Orbital Energies (a.u.)
    -----------------------

    Doubly Occupied:

       1A    -20.536106     2A    -11.319620     3A    -11.229366
       4A    -11.228484     5A    -11.226117     6A    -11.221862
       7A    -11.218583     8A    -11.217946     9A    -11.210656
      10A     -1.396426    11A     -1.102909    12A     -1.062262
      13A     -1.011608    14A     -0.972182    15A     -0.898862
      16A     -0.822056    17A     -0.797888    18A     -0.732394
      19A     -0.669853    20A     -0.650461    21A     -0.638726
      22A     -0.622955    23A     -0.601666    24A     -0.590330
      25A     -0.564307    26A     -0.561569    27A     -0.547649
      28A     -0.533161    29A     -0.518853    30A     -0.498789
      31A     -0.490324    32A     -0.478321    33A     -0.469711
      34A     -0.469401    35A     -0.460067    36A     -0.398178

  @DF-RHF Final Energy:  -387.27182606781690

   => Energetics <=

    Nuclear Repulsion Energy =            439.5818603015256372
    One-Electron Energy =               -1395.7680799223876420
    Two-Electron Energy =                 568.9143935530447607
    DFT Exchange-Correlation Energy =       0.0000000000000000
    Empirical Dispersion Energy =           0.0000000000000000
    PCM Polarization Energy =               0.0000000000000000
    EFP Energy =                            0.0000000000000000
    Total Energy =                       -387.2718260678171873
    Molecular point group: c1
  Basis Set: CC-PVTZ
  Basis Set:

  -Total Gradient:
     Atom            X                  Y                   Z
    ------   -----------------  -----------------  -----------------
       1        0.000047613646    -0.001463258605     0.000398394298
       2       -0.000140180741     0.002326166285    -0.000537514462
       3        0.000364806429    -0.002335541738     0.000031468959
       4        0.000011657204     0.000023065929    -0.000003567637
       5        0.000009486908     0.000006816308    -0.000001338986
       6       -0.000275337389     0.001463602435     0.000098860816
       7        0.000002565449    -0.000003913231    -0.000002788168
       8        0.000001507295    -0.000008879000     0.000007881185
       9        0.000004107151     0.000004441879     0.000007526161
      10        0.000004263593    -0.000000795056    -0.000000838523
      11        0.000002964470    -0.000006083773    -0.000000746995
      12       -0.000003905808    -0.000003688642    -0.000001239301
      13       -0.000003331607    -0.000003463808    -0.000002801680
      14        0.000000665218     0.000006019213    -0.000001461447
      15       -0.000002327041     0.000001876442     0.000004586770
      16        0.000002370295     0.000000389862     0.000001436129
      17       -0.000004002577    -0.000001094047    -0.000005134263
      18       -0.000004169616    -0.000002950991    -0.000003211391
      19        0.000002749566     0.000000222431    -0.000000678010
      20       -0.000000120547     0.000006324600     0.000000621224
      21        0.000003238193    -0.000000245674     0.000003411126
      22        0.000000633419    -0.000001018495    -0.000002349975
      23       -0.000006391091    -0.000011444430     0.000002539088
      24       -0.000008773037    -0.000003501996    -0.000002226393
      25       -0.000010089380     0.000006954100     0.000009171473

  **** Optimization is complete! (in 14 steps) ****
    Final optimized geometry and variables:
    Molecular point group: c1

    Geometry (in Angstrom), charge = 0, multiplicity = 1:

    O            3.761385992332    -0.761568897882    -0.542226622357
    C            2.816785341715    -0.629952652366     0.166387751027
    C            1.414442015983    -0.854109000929    -0.369823823949
    C            2.985321919041    -0.293499270689     1.630418607926
    C            0.325396267759     0.071333894599     0.173773755832
    H            1.476809543658    -0.767571104505    -1.446413206841
    H            1.160925532453    -1.887813240091    -0.143608957889
    C           -1.031122908303    -0.187275181642    -0.476723889128
    H            0.611250481148     1.105943413396     0.002764621163
    H            0.231752495870    -0.048812679416     1.248109026032
    C           -2.134657554071     0.727611163507     0.046028428409
    H           -0.941274838759    -0.064245579774    -1.552736142405
    H           -1.314759950340    -1.223948328054    -0.311966019647
    C           -3.491225477121     0.472978611635    -0.604955944649
    H           -1.849011709141     1.764173219832    -0.116653504531
    H           -2.225692968499     0.603091878174     1.122588173883
    C           -4.589770158179     1.390667380079    -0.079056270611
    H           -3.401817859534     0.598198949922    -1.680496328969
    H           -3.778442531839    -0.562245498241    -0.442289196815
    H           -4.348219681691     2.433057022561    -0.258383740506
    H           -5.538189492069     1.183852164776    -0.561157747979
    H           -4.727658779153     1.263828804324     0.989612933905
    H            2.428298162787    -0.988028332814     2.249470157060
    H            4.032709906851    -0.330235740155     1.886808547558
    H            2.600179118195     0.699357532686     1.832583777898

  Mulliken Charges: (a.u.)
   Center  Symbol    Alpha    Beta     Spin     Total
       1     O     4.17279  4.17279  0.00000 -0.34557
       2     C     2.85969  2.85969  0.00000  0.28061
       3     C     3.09817  3.09817  0.00000 -0.19634
       4     C     3.16577  3.16577  0.00000 -0.33154
       5     C     3.10623  3.10623  0.00000 -0.21247
       6     H     0.43774  0.43774  0.00000  0.12452
       7     H     0.44470  0.44470  0.00000  0.11059
       8     C     3.09060  3.09060  0.00000 -0.18121
       9     H     0.44744  0.44744  0.00000  0.10513
      10     H     0.45011  0.45011  0.00000  0.09977
      11     C     3.08551  3.08551  0.00000 -0.17103
      12     H     0.45034  0.45034  0.00000  0.09933
      13     H     0.45328  0.45328  0.00000  0.09344
      14     C     3.08522  3.08522  0.00000 -0.17044
      15     H     0.45422  0.45422  0.00000  0.09156
      16     H     0.45515  0.45515  0.00000  0.08970
      17     C     3.15031  3.15031  0.00000 -0.30061
      18     H     0.45361  0.45361  0.00000  0.09277
      19     H     0.45420  0.45420  0.00000  0.09159
      20     H     0.45475  0.45475  0.00000  0.09050
      21     H     0.44765  0.44765  0.00000  0.10470
      22     H     0.45515  0.45515  0.00000  0.08970
      23     H     0.44844  0.44844  0.00000  0.10312
      24     H     0.43187  0.43187  0.00000  0.13626
      25     H     0.44704  0.44704  0.00000  0.10591

   Total alpha = 36.00000, Total beta = 36.00000, Total charge =  0.00000

*** Psi4 exiting successfully. Buy a developer a beer!
