  ==> Input File <==

--------------------------------------------------------------------------
set {
	reference rhf
	basis 6-31G*
}

set_num_threads( 1 )
memory 2 gb

molecule MOL {
0 1

O	 1.214711	 1.306902	 -0.000018
C	 1.122059	 0.121804	 -0.000188
C	 -0.170150	 -0.657997	 -0.000612
O	 2.172624	 -0.688929	 0.000216
C	 -1.412532	 0.227344	 -0.000452
H	 -0.153702	 -1.313099	 -0.867402
H	 -0.153924	 -1.313811	 0.865644
C	 -1.087042	 1.685966	 -0.325792
H	 -1.896414	 0.165687	 0.969373
H	 -2.128139	 -0.159238	 -0.719454
C	 -2.326384	 2.579847	 -0.329020
H	 -0.369087	 2.068111	 0.397106
H	 -0.600071	 1.741724	 -1.297297
H	 -2.816865	 2.572500	 0.640015
H	 -2.068113	 3.608097	 -0.561990
H	 -3.049210	 2.244157	 -1.066905
C	 3.452279	 -0.082609	 0.000533
H	 3.583069	 0.529321	 -0.880332
H	 4.163299	 -0.894027	 0.001117
H	 3.582335	 0.529955	 0.881077

	symmetry c1
}
set optking {
	frozen_dihedral = ("
		9 5 8 12,
		1 2 3 6,
		1 2 4 17
	")
}

ee = energy('scf')
oeprop('DIPOLE', 'QUADRUPOLE', 'MULLIKEN_CHARGES')
f=open( 'psi4out.xyz', 'w' )
f.write( "20  " )
f.write( str(ee) + "\n" )
f.write( MOL.save_string_xyz() )
f.close()
--------------------------------------------------------------------------

    Molecular point group: c1

    Geometry (in Angstrom), charge = 0, multiplicity = 1:

       Center              X                  Y                   Z               Mass
    ------------   -----------------  -----------------  -----------------  -----------------
           O          0.808132478424     0.736343261705     0.081949375108    15.994914619560
           C          0.715480478424    -0.448754738295     0.081779375108    12.000000000000
           C         -0.576728521576    -1.228555738295     0.081355375108    12.000000000000
           O          1.766045478424    -1.259487738295     0.082183375108    15.994914619560
           C         -1.819110521576    -0.343214738295     0.081515375108    12.000000000000
           H         -0.560280521576    -1.883657738295    -0.785434624892     1.007825032070
           H         -0.560502521576    -1.884369738295     0.947611375108     1.007825032070
           C         -1.493620521576     1.115407261705    -0.243824624892    12.000000000000
           H         -2.302992521576    -0.404871738295     1.051340375108     1.007825032070
           H         -2.534717521576    -0.729796738295    -0.637486624892     1.007825032070
           C         -2.732962521576     2.009288261705    -0.247052624892    12.000000000000
           H         -0.775665521576     1.497552261705     0.479073375108     1.007825032070
           H         -1.006649521576     1.171165261705    -1.215329624892     1.007825032070
           H         -3.223443521576     2.001941261705     0.721982375108     1.007825032070
           H         -2.474691521576     3.037538261705    -0.480022624892     1.007825032070
           H         -3.455788521576     1.673598261705    -0.984937624892     1.007825032070
           C          3.045700478424    -0.653167738295     0.082500375108    12.000000000000
           H          3.176490478424    -0.041237738295    -0.798364624892     1.007825032070
           H          3.756720478424    -1.464585738295     0.083084375108     1.007825032070
           H          3.175756478424    -0.040603738295     0.963044375108     1.007825032070

  Charge       = 0
  Multiplicity = 1
  Basis Set: 6-31G*
  Basis Set:

    Orbital Energies (a.u.)
    -----------------------

    Doubly Occupied:

       1A    -20.606322     2A    -20.542472     3A    -11.376824
       4A    -11.282954     5A    -11.236474     6A    -11.216548
       7A    -11.191993     8A    -11.188952     9A     -1.473732
      10A     -1.370203    11A     -1.083219    12A     -1.016857
      13A     -0.965603    14A     -0.879064    15A     -0.801196
      16A     -0.774485    17A     -0.697303    18A     -0.687274
      19A     -0.668555    20A     -0.638439    21A     -0.602034
      22A     -0.579570    23A     -0.568070    24A     -0.545197
      25A     -0.536889    26A     -0.518561    27A     -0.499335
      28A     -0.494038    29A     -0.467498    30A     -0.455758
      31A     -0.441469    32A     -0.398506

  @DF-RHF Final Energy:  -383.90369018799959

   => Energetics <=

    Nuclear Repulsion Energy =            398.1112792661837148
    One-Electron Energy =               -1312.4192938403418793
    Two-Electron Energy =                 530.4043243861581232
    DFT Exchange-Correlation Energy =       0.0000000000000000
    Empirical Dispersion Energy =           0.0000000000000000
    PCM Polarization Energy =               0.0000000000000000
    EFP Energy =                            0.0000000000000000
    Total Energy =                       -383.9036901880000414

  Mulliken Charges: (a.u.)
   Center  Symbol    Alpha    Beta     Spin     Total
       1     O     4.28551  4.28551  0.00000 -0.57102
       2     C     2.60524  2.60524  0.00000  0.78951
       3     C     3.21198  3.21198  0.00000 -0.42395
       4     O     4.30713  4.30713  0.00000 -0.61427
       5     C     3.15655  3.15655  0.00000 -0.31310
       6     H     0.39692  0.39692  0.00000  0.20616
       7     H     0.39641  0.39641  0.00000  0.20719
       8     C     3.15505  3.15505  0.00000 -0.31010
       9     H     0.41857  0.41857  0.00000  0.16285
      10     H     0.41840  0.41840  0.00000  0.16320
      11     C     3.23633  3.23633  0.00000 -0.47266
      12     H     0.38980  0.38980  0.00000  0.22041
      13     H     0.42477  0.42477  0.00000  0.15046
      14     H     0.42753  0.42753  0.00000  0.14494
      15     H     0.42099  0.42099  0.00000  0.15801
      16     H     0.43009  0.43009  0.00000  0.13983
      17     C     3.09259  3.09259  0.00000 -0.18518
      18     H     0.40900  0.40900  0.00000  0.18200
      19     H     0.40794  0.40794  0.00000  0.18412
      20     H     0.40920  0.40920  0.00000  0.18161

   Total alpha = 32.00000, Total beta = 32.00000, Total charge =  0.00000
