                              Psi4 1.0.54 Driver

  ==> Input File <==

--------------------------------------------------------------------------
set {
	reference rhf
	basis cc-pvtz
}

set_num_threads( 4 )
memory 2 gb

molecule MOL {
0 1

H	 -3.436473	 1.252944	 -1.023892
O	 -3.458596	 0.315260	 -0.960865
C	 -3.176635	 -0.080824	 0.355601
C	 -1.763371	 0.265266	 0.799691
H	 -3.321825	 -1.153438	 0.379502
H	 -3.895468	 0.357385	 1.043382
C	 -0.673390	 -0.426948	 -0.013392
H	 -1.631049	 1.344913	 0.747560
H	 -1.664587	 -0.001624	 1.849167
C	 0.737842	 -0.043159	 0.423759
H	 -0.806103	 -0.190518	 -1.063345
H	 -0.797221	 -1.503753	 0.074146
C	 1.484928	 0.774256	 -0.628260
H	 0.679054	 0.514378	 1.353590
H	 1.305444	 -0.944896	 0.644109
C	 2.932552	 1.114931	 -0.270246
H	 0.938463	 1.694493	 -0.821624
H	 1.483235	 0.220384	 -1.563056
C	 3.090748	 2.058569	 0.919571
H	 3.402599	 1.568317	 -1.137582
H	 3.479560	 0.195951	 -0.076133
H	 2.548834	 2.984723	 0.756333
H	 4.133743	 2.310420	 1.074408
H	 2.723252	 1.618206	 1.838610

	symmetry c1
}
set optking {
	frozen_dihedral = ("
		13 10 7 11
	")
}

ee,wfn = optimize('scf', return_wfn=True)
oeprop( wfn, 'DIPOLE', 'QUADRUPOLE', 'MULLIKEN_CHARGES')
f=open( 'psi4out.xyz', 'w' )
f.write( "24  " )
f.write( str(ee) + "\n" )
f.write( MOL.save_string_xyz() )
f.close()
--------------------------------------------------------------------------

    Molecular point group: c1
  Charge       = 0
  Multiplicity = 1
  Basis Set: CC-PVTZ
  Basis Set:
  @DF-RHF Final Energy:  -349.37487267344682
    Total Energy =                       -349.3748726734471006
    Molecular point group: c1
  Basis Set: CC-PVTZ
  Basis Set:
  Basis Set: CC-PVTZ
  Basis Set:
  @DF-RHF Final Energy:  -349.37513016497826
    Total Energy =                       -349.3751301649779180
  Basis Set: CC-PVTZ
  Basis Set:
  Basis Set: CC-PVTZ
  Basis Set:
  @DF-RHF Final Energy:  -349.37519464692144
    Total Energy =                       -349.3751946469216136
  Basis Set: CC-PVTZ
  Basis Set:
  Basis Set: CC-PVTZ
  Basis Set:
  @DF-RHF Final Energy:  -349.37519498158588
    Total Energy =                       -349.3751949815858779
  Basis Set: CC-PVTZ
  Basis Set:
  Basis Set: CC-PVTZ
  Basis Set:
  @DF-RHF Final Energy:  -349.37520388461985
    Total Energy =                       -349.3752038846199639
  Basis Set: CC-PVTZ
  Basis Set:
  Basis Set: CC-PVTZ
  Basis Set:
  @DF-RHF Final Energy:  -349.37520568854768
    Total Energy =                       -349.3752056885479078
  Basis Set: CC-PVTZ
  Basis Set:
  Charge       = 0
  Multiplicity = 1
  Basis Set: CC-PVTZ
  Basis Set:

    Orbital Energies (a.u.)
    -----------------------

    Doubly Occupied:

       1A    -20.546385     2A    -11.265298     3A    -11.215469
       4A    -11.212355     5A    -11.210661     6A    -11.209700
       7A    -11.208691     8A    -11.205973     9A     -1.364145
      10A     -1.088575    11A     -1.048852    12A     -0.985717
      13A     -0.915973    14A     -0.852211    15A     -0.803895
      16A     -0.776488    17A     -0.682718    18A     -0.642266
      19A     -0.633581    20A     -0.616467    21A     -0.602480
      22A     -0.589132    23A     -0.559056    24A     -0.540611
      25A     -0.518290    26A     -0.510631    27A     -0.497692
      28A     -0.478622    29A     -0.466759    30A     -0.461065
      31A     -0.452562    32A     -0.447708    33A     -0.421138

  @DF-RHF Final Energy:  -349.37520570983435

   => Energetics <=

    Nuclear Repulsion Energy =            387.8649313148627584
    One-Electron Energy =               -1242.4179365562613384
    Two-Electron Energy =                 505.1777995315640055
    DFT Exchange-Correlation Energy =       0.0000000000000000
    Empirical Dispersion Energy =           0.0000000000000000
    PCM Polarization Energy =               0.0000000000000000
    EFP Energy =                            0.0000000000000000
    Total Energy =                       -349.3752057098345176
    Molecular point group: c1
  Basis Set: CC-PVTZ
  Basis Set:

  -Total Gradient:
     Atom            X                  Y                   Z
    ------   -----------------  -----------------  -----------------
       1       -0.000000825971     0.000004927951    -0.000004227306
       2       -0.000007630639     0.000012529683     0.000010744249
       3        0.000006725401    -0.000030871494    -0.000005309010
       4        0.000000844514     0.000018725307    -0.000003755758
       5       -0.000002127094    -0.000004797281     0.000004276281
       6        0.000004471666     0.000002096833    -0.000003085711
       7        0.000844691929    -0.002313920856    -0.000783378679
       8        0.000001225192     0.000005067917     0.000000985597
       9       -0.000004230183     0.000004078524    -0.000000345657
      10       -0.000724178419     0.001782859256     0.000839016628
      11       -0.000548038766     0.001551049808     0.000474115068
      12        0.000006658574    -0.000003033681    -0.000002964533
      13        0.000430501385    -0.001024746137    -0.000533950132
      14       -0.000003799750     0.000001187409    -0.000002594495
      15       -0.000001689700    -0.000010253719     0.000006632089
      16       -0.000005032000    -0.000005114763     0.000014916606
      17       -0.000006784264     0.000005694994    -0.000006231959
      18        0.000011039704     0.000003789917     0.000004139023
      19        0.000002757407     0.000006989216    -0.000010005959
      20       -0.000001215994    -0.000002828812     0.000001055544
      21       -0.000002420654    -0.000005341950     0.000001965131
      22       -0.000004760261     0.000002432289     0.000005144838
      23        0.000000322865     0.000003502919    -0.000003051865
      24        0.000003495052    -0.000004023329    -0.000004089988

  **** Optimization is complete! (in 7 steps) ****
    Final optimized geometry and variables:
    Molecular point group: c1

    Geometry (in Angstrom), charge = 0, multiplicity = 1:

    H           -3.259151599526     0.774441352557    -1.036224579291
    O           -3.294186078405    -0.164088364995    -0.995968430264
    C           -3.011405539128    -0.596058625240     0.309024087287
    C           -1.591213245516    -0.281775078211     0.753825278397
    H           -3.172134902623    -1.666815269137     0.307483910014
    H           -3.720545529910    -0.164608432095     1.011048639381
    C           -0.513853476623    -0.973545081835    -0.079935688025
    H           -1.441002830694     0.796738473821     0.723854502626
    H           -1.491163943398    -0.572193965642     1.796770398087
    C            0.920274766541    -0.589030494916     0.336388723349
    H           -0.675303349198    -0.719389696674    -1.120342265751
    H           -0.651007464759    -2.047087188895    -0.001441506642
    C            1.647480701387     0.252256282585    -0.712816176142
    H            0.892111467631    -0.058632748345     1.281771541914
    H            1.502935193499    -1.487419074391     0.516738652342
    C            3.083581140794     0.633736964156    -0.351039872772
    H            1.076041934333     1.157447550593    -0.909809339249
    H            1.661726115477    -0.303154977067    -1.646044191846
    C            3.211939961835     1.598659405838     0.825378839258
    H            3.548089039401     1.085752440291    -1.222108254670
    H            3.651404278443    -0.268854589929    -0.140362471741
    H            2.648762894272     2.508914019723     0.645100071201
    H            4.247524950860     1.878434242463     0.981835367350
    H            2.850280320362     1.163831035915     1.749270880587

  Mulliken Charges: (a.u.)
   Center  Symbol    Alpha    Beta     Spin     Total
       1     H     0.39532  0.39532  0.00000  0.20937
       2     O     4.20309  4.20309  0.00000 -0.40619
       3     C     2.97652  2.97652  0.00000  0.04697
       4     C     3.10205  3.10205  0.00000 -0.20410
       5     H     0.45930  0.45930  0.00000  0.08141
       6     H     0.46049  0.46049  0.00000  0.07902
       7     C     3.09595  3.09595  0.00000 -0.19190
       8     H     0.45857  0.45857  0.00000  0.08287
       9     H     0.45233  0.45233  0.00000  0.09533
      10     C     3.10136  3.10136  0.00000 -0.20272
      11     H     0.44699  0.44699  0.00000  0.10603
      12     H     0.44834  0.44834  0.00000  0.10331
      13     C     3.09278  3.09278  0.00000 -0.18555
      14     H     0.45284  0.45284  0.00000  0.09433
      15     H     0.44820  0.44820  0.00000  0.10360
      16     C     3.09068  3.09068  0.00000 -0.18135
      17     H     0.45573  0.45573  0.00000  0.08855
      18     H     0.44747  0.44747  0.00000  0.10507
      19     C     3.15273  3.15273  0.00000 -0.30546
      20     H     0.44864  0.44864  0.00000  0.10271
      21     H     0.45486  0.45486  0.00000  0.09028
      22     H     0.45543  0.45543  0.00000  0.08914
      23     H     0.44632  0.44632  0.00000  0.10736
      24     H     0.45403  0.45403  0.00000  0.09194

   Total alpha = 33.00000, Total beta = 33.00000, Total charge =  0.00000

*** Psi4 exiting successfully. Buy a developer a beer!
