                              Psi4 1.0.54 Driver

  ==> Input File <==

--------------------------------------------------------------------------
set {
	reference rhf
	basis cc-pvtz
}

set_num_threads( 4 )
memory 2 gb

molecule MOL {
0 1

H	 -3.436473	 1.252944	 -1.023892
O	 -3.458596	 0.315260	 -0.960865
C	 -3.176635	 -0.080824	 0.355601
C	 -1.763371	 0.265266	 0.799691
H	 -3.321825	 -1.153438	 0.379502
H	 -3.895468	 0.357385	 1.043382
C	 -0.673390	 -0.426948	 -0.013392
H	 -1.631049	 1.344913	 0.747560
H	 -1.664587	 -0.001624	 1.849167
C	 0.737842	 -0.043159	 0.423759
H	 -0.806103	 -0.190518	 -1.063345
H	 -0.797221	 -1.503753	 0.074146
C	 0.816447	 0.357564	 1.895591
H	 1.405453	 -0.877303	 0.230396
H	 1.094318	 0.781515	 -0.189995
C	 2.195179	 0.828171	 2.361933
H	 0.496856	 -0.479253	 2.512397
H	 0.101574	 1.155665	 2.076176
C	 3.275137	 -0.251058	 2.352015
H	 2.101579	 1.216116	 3.371643
H	 2.515930	 1.664138	 1.745736
H	 2.979225	 -1.103112	 2.955768
H	 4.205067	 0.131985	 2.756675
H	 3.480466	 -0.610697	 1.350963

	symmetry c1
}
set optking {
	frozen_dihedral = ("
		13 10 7 11
	")
}

ee,wfn = optimize('scf', return_wfn=True)
oeprop( wfn, 'DIPOLE', 'QUADRUPOLE', 'MULLIKEN_CHARGES')
f=open( 'psi4out.xyz', 'w' )
f.write( "24  " )
f.write( str(ee) + "\n" )
f.write( MOL.save_string_xyz() )
f.close()
--------------------------------------------------------------------------

    Molecular point group: c1
  Charge       = 0
  Multiplicity = 1
  Basis Set: CC-PVTZ
  Basis Set:
  @DF-RHF Final Energy:  -349.37045880831636
    Total Energy =                       -349.3704588083165845
    Molecular point group: c1
  Basis Set: CC-PVTZ
  Basis Set:
  Basis Set: CC-PVTZ
  Basis Set:
  @DF-RHF Final Energy:  -348.95067629045155
    Total Energy =                       -348.9506762904516677
  Basis Set: CC-PVTZ
  Basis Set:
  Basis Set: CC-PVTZ
  Basis Set:
  @DF-RHF Final Energy:  -349.12565562888875
    Total Energy =                       -349.1256556288889215
  Basis Set: CC-PVTZ
  Basis Set:
  Basis Set: CC-PVTZ
  Basis Set:
  @DF-RHF Final Energy:  -349.32680436353303
    Total Energy =                       -349.3268043635329150
  Basis Set: CC-PVTZ
  Basis Set:
  @DF-RHF Final Energy:  -349.36951793782237
    Total Energy =                       -349.3695179378221383
  @DF-RHF Final Energy:  -349.37296019359241
    Total Energy =                       -349.3729601935925757
  @DF-RHF Final Energy:  -349.37371540878246
    Total Energy =                       -349.3737154087825729
  Basis Set: CC-PVTZ
  Basis Set:
  @DF-RHF Final Energy:  -349.37374616401098
    Total Energy =                       -349.3737461640102993
  Basis Set: CC-PVTZ
  Basis Set:
  Basis Set: CC-PVTZ
  Basis Set:
  @DF-RHF Final Energy:  -349.37377289217324
    Total Energy =                       -349.3737728921728944
  Basis Set: CC-PVTZ
  Basis Set:
  Basis Set: CC-PVTZ
  Basis Set:
  @DF-RHF Final Energy:  -349.37378428994464
    Total Energy =                       -349.3737842899446377
  Basis Set: CC-PVTZ
  Basis Set:
  Charge       = 0
  Multiplicity = 1
  Basis Set: CC-PVTZ
  Basis Set:

    Orbital Energies (a.u.)
    -----------------------

    Doubly Occupied:

       1A    -20.546322     2A    -11.265241     3A    -11.214253
       4A    -11.212945     5A    -11.210802     6A    -11.210192
       7A    -11.209312     8A    -11.205547     9A     -1.364148
      10A     -1.088730    11A     -1.047463    12A     -0.984173
      13A     -0.917894    14A     -0.855408    15A     -0.809575
      16A     -0.764492    17A     -0.680854    18A     -0.646844
      19A     -0.631980    20A     -0.621601    21A     -0.601995
      22A     -0.582645    23A     -0.553917    24A     -0.550625
      25A     -0.516639    26A     -0.511478    27A     -0.502190
      28A     -0.477856    29A     -0.474965    30A     -0.455470
      31A     -0.448280    32A     -0.438272    33A     -0.426662

  @DF-RHF Final Energy:  -349.37378497619795

   => Energetics <=

    Nuclear Repulsion Energy =            388.9039877142007526
    One-Electron Energy =               -1244.4980072315170219
    Two-Electron Energy =                 506.2202345411184865
    DFT Exchange-Correlation Energy =       0.0000000000000000
    Empirical Dispersion Energy =           0.0000000000000000
    PCM Polarization Energy =               0.0000000000000000
    EFP Energy =                            0.0000000000000000
    Total Energy =                       -349.3737849761977827
    Molecular point group: c1
  Basis Set: CC-PVTZ
  Basis Set:

  -Total Gradient:
     Atom            X                  Y                   Z
    ------   -----------------  -----------------  -----------------
       1        0.000017845350     0.000024364246    -0.000002653270
       2       -0.000037985711    -0.000017681419     0.000024348121
       3        0.000058474371    -0.000002336358    -0.000030117880
       4       -0.000038148226     0.000028494756     0.000008166564
       5       -0.000014903509    -0.000043537798    -0.000019730287
       6       -0.000039491165     0.000021197666     0.000013809218
       7        0.002197236338    -0.005093354996    -0.002535979763
       8        0.000023402222     0.000005615136    -0.000002592843
       9        0.000002005232    -0.000011500135    -0.000006837722
      10       -0.001439437553    -0.005592578583     0.000566849669
      11       -0.001500506465     0.005893452317     0.002060562579
      12        0.000006248830     0.000017324580     0.000012377934
      13        0.000733455321     0.004776705151    -0.000055859937
      14       -0.000009921283    -0.000009295493    -0.000006459351
      15       -0.000002274186     0.000014315237     0.000004060252
      16        0.000028050687     0.000020610662    -0.000064793083
      17       -0.000000455924     0.000012458643    -0.000030131553
      18        0.000018502044    -0.000018633510     0.000012856745
      19        0.000035397348    -0.000004332681     0.000033447993
      20       -0.000004479069    -0.000030930554    -0.000005184389
      21        0.000011396283     0.000001015095    -0.000007994980
      22       -0.000039519516    -0.000018304073    -0.000004300963
      23       -0.000000307435    -0.000005916725     0.000000779636
      24       -0.000004583992     0.000032848836     0.000035377310

  **** Optimization is complete! (in 11 steps) ****
    Final optimized geometry and variables:
    Molecular point group: c1

    Geometry (in Angstrom), charge = 0, multiplicity = 1:

    H           -1.271010987882     2.374393245168    -2.783861522411
    O           -1.479492341325     1.489555573302    -3.023153813706
    C           -2.121353743634     0.845623120398    -1.954024961940
    C           -1.227743316508     0.656121967042    -0.736344132234
    H           -2.439309054511    -0.116487559909    -2.335838276128
    H           -3.017388598643     1.391521718555    -1.669399773776
    C           -0.024587368555    -0.247326829891    -1.015517845271
    H           -0.890060081912     1.634093921453    -0.397037475857
    H           -1.838659804284     0.249646468336     0.063153615779
    C            0.995902328319    -0.386065160778     0.131943370280
    H            0.482021500229     0.181037044044    -1.871026436983
    H           -0.390906356648    -1.226733720499    -1.307442144880
    C            0.446007033117    -0.278627862162     1.555135578022
    H            1.521985484459    -1.324657896498     0.005811034190
    H            1.747761405925     0.391675023980     0.018557580882
    C            1.506565941265    -0.445374286657     2.646274052799
    H           -0.337224076996    -1.018247969151     1.710104463353
    H           -0.021725536652     0.690251431736     1.684693892870
    C            2.091433403135    -1.850870732420     2.764140293350
    H            1.061265339940    -0.176474220361     3.599321981621
    H            2.310128705939     0.266802803365     2.476872454167
    H            1.308921196091    -2.584536139339     2.930023054623
    H            2.780754290067    -1.910798859058     3.598702533697
    H            2.634616656341    -2.142574464979     1.873734059457

  Mulliken Charges: (a.u.)
   Center  Symbol    Alpha    Beta     Spin     Total
       1     H     0.39515  0.39515  0.00000  0.20970
       2     O     4.20417  4.20417  0.00000 -0.40833
       3     C     2.97628  2.97628  0.00000  0.04745
       4     C     3.10862  3.10862  0.00000 -0.21725
       5     H     0.45913  0.45913  0.00000  0.08175
       6     H     0.45972  0.45972  0.00000  0.08056
       7     C     3.09292  3.09292  0.00000 -0.18584
       8     H     0.45814  0.45814  0.00000  0.08372
       9     H     0.44956  0.44956  0.00000  0.10087
      10     C     3.09913  3.09913  0.00000 -0.19827
      11     H     0.44230  0.44230  0.00000  0.11540
      12     H     0.45289  0.45289  0.00000  0.09421
      13     C     3.10042  3.10042  0.00000 -0.20083
      14     H     0.44676  0.44676  0.00000  0.10648
      15     H     0.45425  0.45425  0.00000  0.09150
      16     C     3.09010  3.09010  0.00000 -0.18021
      17     H     0.45412  0.45412  0.00000  0.09177
      18     H     0.44500  0.44500  0.00000  0.11000
      19     C     3.15148  3.15148  0.00000 -0.30296
      20     H     0.44887  0.44887  0.00000  0.10225
      21     H     0.45510  0.45510  0.00000  0.08981
      22     H     0.45524  0.45524  0.00000  0.08951
      23     H     0.44690  0.44690  0.00000  0.10619
      24     H     0.45374  0.45374  0.00000  0.09252

   Total alpha = 33.00000, Total beta = 33.00000, Total charge =  0.00000

*** Psi4 exiting successfully. Buy a developer a beer!
