  ==> Input File <==

--------------------------------------------------------------------------
set {
	reference rhf
	basis 6-31G*
}

set_num_threads( 1 )
memory 2 gb

molecule MOL {
0 1

H	 -2.646374	 -0.642757	 1.268656
C	 -2.083525	 -0.384536	 0.393091
O	 -0.807605	 -0.127164	 0.768327
F	 -2.118945	 -1.383102	 -0.486752
F	 -2.621877	 0.670592	 -0.209486
C	 0.084052	 0.273579	 -0.209957
C	 -0.447247	 1.578756	 -0.788226
Cl	 0.227384	 -0.956975	 -1.475819
H	 1.069357	 0.453957	 0.182997
F	 0.361922	 2.030385	 -1.722793
F	 -0.502997	 2.477680	 0.174201
F	 -1.646808	 1.441804	 -1.298393

	symmetry c1
}
set optking {
	frozen_dihedral = ("
		10 7 6 9,
		6 3 2 4
	")
}

ee = energy('scf')
oeprop('DIPOLE', 'QUADRUPOLE', 'MULLIKEN_CHARGES')
f=open( 'psi4out.xyz', 'w' )
f.write( "12  " )
f.write( str(ee) + "\n" )
f.write( MOL.save_string_xyz() )
f.close()
--------------------------------------------------------------------------

    Molecular point group: c1

    Geometry (in Angstrom), charge = 0, multiplicity = 1:

       Center              X                  Y                   Z               Mass
    ------------   -----------------  -----------------  -----------------  -----------------
           H         -1.776939111541    -1.085360898246     1.879794595468     1.007825032070
           C         -1.214090111541    -0.827139898246     1.004229595468    12.000000000000
           O          0.061829888459    -0.569767898246     1.379465595468    15.994914619560
           F         -1.249510111541    -1.825705898246     0.124386595468    18.998403224000
           F         -1.752442111541     0.227988101754     0.401652595468    18.998403224000
           C          0.953486888459    -0.169024898246     0.401181595468    12.000000000000
           C          0.422187888459     1.136152101754    -0.177087404532    12.000000000000
          CL          1.096818888459    -1.399578898246    -0.864680404532    34.968852682000
           H          1.938791888459     0.011353101754     0.794135595468     1.007825032070
           F          1.231356888459     1.587781101754    -1.111654404532    18.998403224000
           F          0.366437888459     2.035076101754     0.785339595468    18.998403224000
           F         -0.777373111541     0.999200101754    -0.687254404532    18.998403224000

  Charge       = 0
  Multiplicity = 1
  Basis Set: 6-31G*
  Basis Set:

    Orbital Energies (a.u.)
    -----------------------

    Doubly Occupied:

       1A   -104.836515     2A    -26.355946     3A    -26.352429
       4A    -26.330480     5A    -26.325455     6A    -26.311404
       7A    -20.647622     8A    -11.519098     9A    -11.479056
      10A    -11.399869    11A    -10.571970    12A     -8.041282
      13A     -8.037719    14A     -8.037626    15A     -1.766670
      16A     -1.713806    17A     -1.661307    18A     -1.652309
      19A     -1.609204    20A     -1.485911    21A     -1.175489
      22A     -1.044521    23A     -1.006259    24A     -0.903814
      25A     -0.877989    26A     -0.858264    27A     -0.837587
      28A     -0.831585    29A     -0.797139    30A     -0.754899
      31A     -0.737545    32A     -0.720211    33A     -0.702562
      34A     -0.700383    35A     -0.681290    36A     -0.663552
      37A     -0.660420    38A     -0.638369    39A     -0.635784
      40A     -0.623343    41A     -0.561848    42A     -0.529712
      43A     -0.520418    44A     -0.468923    45A     -0.459200

  @DF-RHF Final Energy: -1146.18087307339329

   => Energetics <=

    Nuclear Repulsion Energy =            790.8416435146001504
    One-Electron Energy =               -3164.9919454681835305
    Two-Electron Energy =                1227.9694288801920266
    DFT Exchange-Correlation Energy =       0.0000000000000000
    Empirical Dispersion Energy =           0.0000000000000000
    PCM Polarization Energy =               0.0000000000000000
    EFP Energy =                            0.0000000000000000
    Total Energy =                      -1146.1808730733914672

  Mulliken Charges: (a.u.)
   Center  Symbol    Alpha    Beta     Spin     Total
       1     H     0.40417  0.40417  0.00000  0.19166
       2     C     2.56269  2.56269  0.00000  0.87462
       3     O     4.30304  4.30304  0.00000 -0.60608
       4     F     4.68234  4.68234  0.00000 -0.36468
       5     F     4.67773  4.67773  0.00000 -0.35545
       6     C     3.05061  3.05061  0.00000 -0.10122
       7     C     2.44225  2.44225  0.00000  1.11550
       8    CL     8.50050  8.50050  0.00000 -0.00101
       9     H     0.36037  0.36037  0.00000  0.27927
      10     F     4.67593  4.67593  0.00000 -0.35185
      11     F     4.67811  4.67811  0.00000 -0.35623
      12     F     4.66227  4.66227  0.00000 -0.32454

   Total alpha = 45.00000, Total beta = 45.00000, Total charge = -0.00000
