  ==> Input File <==

--------------------------------------------------------------------------
set {
	reference rhf
	basis 6-31G*
}

set_num_threads( 4 )
memory 2 gb

molecule MOL {
0 1

H	 -4.031818	 -0.453427	 -0.000094
C	 -2.967712	 -0.297022	 -0.000064
C	 -2.458620	 0.992929	 0.000032
C	 -2.109895	 -1.385637	 -0.000122
H	 -3.124998	 1.836319	 0.000077
C	 -1.090278	 1.193236	 0.000070
H	 -2.506361	 -2.384847	 -0.000198
C	 -0.739812	 -1.187531	 -0.000085
H	 -0.678594	 2.184290	 0.000146
C	 -0.226438	 0.104061	 0.000012
H	 -0.072310	 -2.027032	 -0.000131
C	 1.239129	 0.373821	 0.000060
O	 1.542384	 1.594063	 -0.416653
O	 2.061724	 -0.418685	 0.337891
C	 2.916638	 1.936246	 -0.448410
H	 3.345592	 1.871425	 0.540828
H	 2.958146	 2.951977	 -0.809550
H	 3.455094	 1.278221	 -1.114734

	symmetry c1
}
set optking {
	frozen_dihedral = ("
		13 12 10 6
	")
}

ee = optimize('scf')
oeprop('DIPOLE', 'QUADRUPOLE', 'MULLIKEN_CHARGES')
f=open( 'psi4out.xyz', 'w' )
f.write( "18  " )
f.write( str(ee) + "\n" )
f.write( MOL.save_string_xyz() )
f.close()
--------------------------------------------------------------------------

    Molecular point group: c1
  Charge       = 0
  Multiplicity = 1
  Basis Set: 6-31G*
  Basis Set:
  @DF-RHF Final Energy:  -457.34826634394648
    Total Energy =                       -457.3482663439464204
    Molecular point group: c1
  Basis Set: 6-31G*
  Basis Set:
  Basis Set: 6-31G*
  Basis Set:
  @DF-RHF Final Energy:  -457.34927824794516
    Total Energy =                       -457.3492782479457901
  Basis Set: 6-31G*
  Basis Set:
  Basis Set: 6-31G*
  Basis Set:
  @DF-RHF Final Energy:  -457.34731167069839
    Total Energy =                       -457.3473116706982182
  Basis Set: 6-31G*
  Basis Set:
  Basis Set: 6-31G*
  Basis Set:
  @DF-RHF Final Energy:  -457.34970335536826
    Total Energy =                       -457.3497033553679785
  Basis Set: 6-31G*
  Basis Set:
  Basis Set: 6-31G*
  Basis Set:
  @DF-RHF Final Energy:  -457.34971445751222
    Total Energy =                       -457.3497144575126185
  Basis Set: 6-31G*
  Basis Set:
  Charge       = 0
  Multiplicity = 1
  Basis Set: 6-31G*
  Basis Set:

    Orbital Energies (a.u.)
    -----------------------

    Doubly Occupied:

       1A    -20.607910     2A    -20.544986     3A    -11.377962
       4A    -11.282999     5A    -11.246042     6A    -11.244881
       7A    -11.244399     8A    -11.242037     9A    -11.237784
      10A    -11.237046    11A     -1.472944    12A     -1.364243
      13A     -1.165521    14A     -1.048264    15A     -1.025005
      16A     -0.978323    17A     -0.860181    18A     -0.834886
      19A     -0.778004    20A     -0.739476    21A     -0.683502
      22A     -0.677471    23A     -0.672611    24A     -0.630898
      25A     -0.624742    26A     -0.597685    27A     -0.585786
      28A     -0.559736    29A     -0.530188    30A     -0.516535
      31A     -0.503930    32A     -0.499682    33A     -0.458865
      34A     -0.444647    35A     -0.344630    36A     -0.341184

  @DF-RHF Final Energy:  -457.34971520356902

   => Energetics <=

    Nuclear Repulsion Energy =            492.9000917432834399
    One-Electron Energy =               -1600.0896466748440616
    Two-Electron Energy =                 649.8398397279911478
    DFT Exchange-Correlation Energy =       0.0000000000000000
    Empirical Dispersion Energy =           0.0000000000000000
    PCM Polarization Energy =               0.0000000000000000
    EFP Energy =                            0.0000000000000000
    Total Energy =                       -457.3497152035695308
    Molecular point group: c1
  Basis Set: 6-31G*
  Basis Set:

  -Total Gradient:
     Atom            X                  Y                   Z
    ------   -----------------  -----------------  -----------------
       1       -0.000000919049     0.000011476301     0.000003754088
       2        0.000026149731    -0.000172784370    -0.000015469405
       3        0.000133478688     0.000097953142     0.000034165008
       4       -0.000188484788     0.000051555130    -0.000019045950
       5       -0.000009067921    -0.000003584684    -0.000003520426
       6       -0.000176975968    -0.000022431501     0.002429574434
       7        0.000007109763    -0.000003547644     0.000006753950
       8        0.000123540948     0.000091887254     0.000008721490
       9        0.000011511374    -0.000002612659     0.000017319079
      10        0.000078577987    -0.000322915235    -0.004448522229
      11       -0.000016319230     0.000004658344     0.000001746063
      12       -0.000251201367     0.001022448301     0.004225571900
      13        0.000176163028    -0.000877651861    -0.002220685048
      14        0.000043156586     0.000096960058    -0.000013966462
      15        0.000027778959     0.000033697705    -0.000000711989
      16       -0.000001042946     0.000001401842    -0.000001816783
      17        0.000015997039    -0.000002386510     0.000000833810
      18        0.000000547156    -0.000004123612    -0.000004701528

  **** Optimization is complete! (in 6 steps) ****
    Final optimized geometry and variables:
    Molecular point group: c1

    Geometry (in Angstrom), charge = 0, multiplicity = 1:

    H           -3.966241947031    -0.844938480026     0.110028251743
    C           -2.907817240262    -0.655388370383     0.088990295060
    C           -2.440331805928     0.649438186452     0.074166316508
    C           -2.015368857725    -1.716573772670     0.081412569839
    H           -3.133549866946     1.470924147704     0.087945548364
    C           -1.078723028570     0.896339625841     0.041221511515
    H           -2.378943129239    -2.728023661943     0.096849571169
    C           -0.654068297251    -1.471984337211     0.062116482405
    H           -0.712089740481     1.904522325500     0.024034903421
    C           -0.182191337513    -0.165385991413     0.027577415976
    H            0.050485390560    -2.281604716285     0.073347773474
    C            1.292476755869     0.049804297832     0.042207209089
    O            1.640302209960     1.266294015773    -0.349624093148
    O            2.084513887703    -0.785523693102     0.347472919311
    C            3.025095823618     1.564947419011    -0.356309176390
    H            3.440879452544     1.460312480923     0.635319233257
    H            3.103333797203     2.587750985865    -0.690182379432
    H            3.549511203460     0.907434234111    -1.034074600261

  Mulliken Charges: (a.u.)
   Center  Symbol    Alpha    Beta     Spin     Total
       1     H     0.39548  0.39548  0.00000  0.20904
       2     C     3.09058  3.09058  0.00000 -0.18115
       3     C     3.10667  3.10667  0.00000 -0.21333
       4     C     3.10665  3.10665  0.00000 -0.21331
       5     H     0.39622  0.39622  0.00000  0.20757
       6     C     3.08877  3.08877  0.00000 -0.17753
       7     H     0.39536  0.39536  0.00000  0.20928
       8     C     3.08750  3.08750  0.00000 -0.17499
       9     H     0.38191  0.38191  0.00000  0.23617
      10     C     3.06598  3.06598  0.00000 -0.13195
      11     H     0.37749  0.37749  0.00000  0.24502
      12     C     2.59036  2.59036  0.00000  0.81929
      13     O     4.31110  4.31110  0.00000 -0.62219
      14     O     4.29026  4.29026  0.00000 -0.58053
      15     C     3.09292  3.09292  0.00000 -0.18585
      16     H     0.40784  0.40784  0.00000  0.18431
      17     H     0.40777  0.40777  0.00000  0.18446
      18     H     0.40715  0.40715  0.00000  0.18570

   Total alpha = 36.00000, Total beta = 36.00000, Total charge =  0.00000
