  ==> Input File <==

--------------------------------------------------------------------------
set {
	reference rhf
	basis 6-31G*
}

set_num_threads( 1 )
memory 2 gb

molecule MOL {
0 1

O	 -2.407301	 -0.878265	 -0.581996
C	 -1.921153	 0.064240	 -0.045697
C	 -2.670520	 1.299468	 0.375026
O	 -0.632575	 0.154573	 0.251549
H	 -2.252489	 2.168065	 -0.120692
H	 -3.714457	 1.194687	 0.119974
H	 -2.562127	 1.447368	 1.443265
C	 0.160891	 -1.019931	 0.106212
C	 1.589627	 -0.672828	 0.480843
H	 0.089836	 -1.367806	 -0.916050
H	 -0.238459	 -1.792301	 0.749618
C	 2.246377	 0.346236	 -0.452210
H	 2.163194	 -1.597435	 0.473358
H	 1.604769	 -0.303424	 1.502885
C	 3.691736	 0.652107	 -0.061850
H	 2.219579	 -0.032311	 -1.472055
H	 1.666466	 1.263317	 -0.447249
H	 4.134505	 1.377213	 -0.737283
H	 4.305508	 -0.243868	 -0.089969
H	 3.748266	 1.059562	 0.943567

	symmetry c1
}
set optking {
	frozen_dihedral = ("
		16 12 9 8,
		2 4 8 10,
		12 9 8 10
	")
}

ee = energy('scf')
oeprop('DIPOLE', 'QUADRUPOLE', 'MULLIKEN_CHARGES')
f=open( 'psi4out.xyz', 'w' )
f.write( "20  " )
f.write( str(ee) + "\n" )
f.write( MOL.save_string_xyz() )
f.close()
--------------------------------------------------------------------------

    Molecular point group: c1

    Geometry (in Angstrom), charge = 0, multiplicity = 1:

       Center              X                  Y                   Z               Mass
    ------------   -----------------  -----------------  -----------------  -----------------
           O         -2.405516884413    -0.875284466889    -0.590637407464    15.994914619560
           C         -1.919368884413     0.067220533111    -0.054338407464    12.000000000000
           C         -2.668735884413     1.302448533111     0.366384592536    12.000000000000
           O         -0.630790884413     0.157553533111     0.242907592536    15.994914619560
           H         -2.250704884413     2.171045533111    -0.129333407464     1.007825032070
           H         -3.712672884413     1.197667533111     0.111332592536     1.007825032070
           H         -2.560342884413     1.450348533111     1.434623592536     1.007825032070
           C          0.162675115587    -1.016950466889     0.097570592536    12.000000000000
           C          1.591411115587    -0.669847466889     0.472201592536    12.000000000000
           H          0.091620115587    -1.364825466889    -0.924691407464     1.007825032070
           H         -0.236674884413    -1.789320466889     0.740976592536     1.007825032070
           C          2.248161115587     0.349216533111    -0.460851407464    12.000000000000
           H          2.164978115587    -1.594454466889     0.464716592536     1.007825032070
           H          1.606553115587    -0.300443466889     1.494243592536     1.007825032070
           C          3.693520115587     0.655087533111    -0.070491407464    12.000000000000
           H          2.221363115587    -0.029330466889    -1.480696407464     1.007825032070
           H          1.668250115587     1.266297533111    -0.455890407464     1.007825032070
           H          4.136289115587     1.380193533111    -0.745924407464     1.007825032070
           H          4.307292115587    -0.240887466889    -0.098610407464     1.007825032070
           H          3.750050115587     1.062542533111     0.934925592536     1.007825032070

  Charge       = 0
  Multiplicity = 1
  Basis Set: 6-31G*
  Basis Set:

    Orbital Energies (a.u.)
    -----------------------

    Doubly Occupied:

       1A    -20.601255     2A    -20.544273     3A    -11.374591
       4A    -11.282556     5A    -11.233450     6A    -11.225549
       7A    -11.220359     8A    -11.213271     9A     -1.467818
      10A     -1.362279    11A     -1.085942    12A     -1.028080
      13A     -0.981522    14A     -0.880224    15A     -0.811224
      16A     -0.775096    17A     -0.690125    18A     -0.682790
      19A     -0.667427    20A     -0.631180    21A     -0.601376
      22A     -0.592421    23A     -0.572829    24A     -0.547257
      25A     -0.545108    26A     -0.535420    27A     -0.509706
      28A     -0.483591    29A     -0.474548    30A     -0.472277
      31A     -0.448971    32A     -0.438394

  @DF-RHF Final Energy:  -383.94506072429010

   => Energetics <=

    Nuclear Repulsion Energy =            385.1191230632999805
    One-Electron Energy =               -1286.1664419038445430
    Two-Electron Energy =                 517.1022581162537790
    DFT Exchange-Correlation Energy =       0.0000000000000000
    Empirical Dispersion Energy =           0.0000000000000000
    PCM Polarization Energy =               0.0000000000000000
    EFP Energy =                            0.0000000000000000
    Total Energy =                       -383.9450607242907836

  Mulliken Charges: (a.u.)
   Center  Symbol    Alpha    Beta     Spin     Total
       1     O     4.28276  4.28276  0.00000 -0.56552
       2     C     2.61909  2.61909  0.00000  0.76182
       3     C     3.28180  3.28180  0.00000 -0.56360
       4     O     4.30885  4.30885  0.00000 -0.61771
       5     H     0.40033  0.40033  0.00000  0.19934
       6     H     0.39694  0.39694  0.00000  0.20612
       7     H     0.40114  0.40114  0.00000  0.19772
       8     C     3.00297  3.00297  0.00000 -0.00594
       9     C     3.16461  3.16461  0.00000 -0.32922
      10     H     0.40826  0.40826  0.00000  0.18348
      11     H     0.41063  0.41063  0.00000  0.17875
      12     C     3.15506  3.15506  0.00000 -0.31011
      13     H     0.41835  0.41835  0.00000  0.16330
      14     H     0.41497  0.41497  0.00000  0.17006
      15     C     3.24041  3.24041  0.00000 -0.48081
      16     H     0.42229  0.42229  0.00000  0.15542
      17     H     0.41170  0.41170  0.00000  0.17660
      18     H     0.41746  0.41746  0.00000  0.16509
      19     H     0.42171  0.42171  0.00000  0.15659
      20     H     0.42069  0.42069  0.00000  0.15862

   Total alpha = 32.00000, Total beta = 32.00000, Total charge = -0.00000
