  ==> Input File <==

--------------------------------------------------------------------------
set {
	reference rhf
	basis 6-31G*
}

set_num_threads( 1 )
memory 2 gb

molecule MOL {
0 1

O	 -2.027298	 -0.546203	 -1.321622
C	 -1.702598	 0.270838	 -0.522068
C	 -2.433819	 1.559489	 -0.259313
O	 -0.632575	 0.154573	 0.251549
H	 -1.772691	 2.399191	 -0.440301
H	 -3.298149	 1.623694	 -0.903244
H	 -2.740513	 1.601165	 0.779416
C	 0.160891	 -1.019931	 0.106212
C	 1.589627	 -0.672828	 0.480843
H	 0.089836	 -1.367806	 -0.916050
H	 -0.238459	 -1.792301	 0.749618
C	 2.246377	 0.346236	 -0.452210
H	 2.163194	 -1.597435	 0.473358
H	 1.604769	 -0.303424	 1.502885
C	 3.691736	 0.652107	 -0.061850
H	 2.219579	 -0.032311	 -1.472055
H	 1.666466	 1.263317	 -0.447249
H	 4.134505	 1.377213	 -0.737283
H	 4.305508	 -0.243868	 -0.089969
H	 3.748266	 1.059562	 0.943567

	symmetry c1
}
set optking {
	frozen_dihedral = ("
		16 12 9 8,
		12 9 8 10,
		1 2 4 8
	")
}

ee = energy('scf')
oeprop('DIPOLE', 'QUADRUPOLE', 'MULLIKEN_CHARGES')
f=open( 'psi4out.xyz', 'w' )
f.write( "20  " )
f.write( str(ee) + "\n" )
f.write( MOL.save_string_xyz() )
f.close()
--------------------------------------------------------------------------

    Molecular point group: c1

    Geometry (in Angstrom), charge = 0, multiplicity = 1:

       Center              X                  Y                   Z               Mass
    ------------   -----------------  -----------------  -----------------  -----------------
           O         -2.131166276543    -0.644279095623    -1.096112134822    15.994914619560
           C         -1.806466276543     0.172761904377    -0.296558134822    12.000000000000
           C         -2.537687276543     1.461412904377    -0.033803134822    12.000000000000
           O         -0.736443276543     0.056496904377     0.477058865178    15.994914619560
           H         -1.876559276543     2.301114904377    -0.214791134822     1.007825032070
           H         -3.402017276543     1.525617904377    -0.677734134822     1.007825032070
           H         -2.844381276543     1.503088904377     1.004925865178     1.007825032070
           C          0.057022723457    -1.118007095623     0.331721865178    12.000000000000
           C          1.485758723457    -0.770904095623     0.706352865178    12.000000000000
           H         -0.014032276543    -1.465882095623    -0.690540134822     1.007825032070
           H         -0.342327276543    -1.890377095623     0.975127865178     1.007825032070
           C          2.142508723457     0.248159904377    -0.226700134822    12.000000000000
           H          2.059325723457    -1.695511095623     0.698867865178     1.007825032070
           H          1.500900723457    -0.401500095623     1.728394865178     1.007825032070
           C          3.587867723457     0.554030904377     0.163659865178    12.000000000000
           H          2.115710723457    -0.130387095623    -1.246545134822     1.007825032070
           H          1.562597723457     1.165240904377    -0.221739134822     1.007825032070
           H          4.030636723457     1.279136904377    -0.511773134822     1.007825032070
           H          4.201639723457    -0.341944095623     0.135540865178     1.007825032070
           H          3.644397723457     0.961485904377     1.169076865178     1.007825032070

  Charge       = 0
  Multiplicity = 1
  Basis Set: 6-31G*
  Basis Set:

    Orbital Energies (a.u.)
    -----------------------

    Doubly Occupied:

       1A    -20.602052     2A    -20.543779     3A    -11.375164
       4A    -11.280267     5A    -11.233760     6A    -11.224493
       7A    -11.220540     8A    -11.213281     9A     -1.468363
      10A     -1.362463    11A     -1.085305    12A     -1.028588
      13A     -0.981141    14A     -0.880990    15A     -0.809435
      16A     -0.775847    17A     -0.692333    18A     -0.680785
      19A     -0.666984    20A     -0.632022    21A     -0.601849
      22A     -0.592809    23A     -0.573019    24A     -0.548950
      25A     -0.540144    26A     -0.536629    27A     -0.507832
      28A     -0.481961    29A     -0.479180    30A     -0.473527
      31A     -0.446819    32A     -0.437528

  @DF-RHF Final Energy:  -383.94446924970231

   => Energetics <=

    Nuclear Repulsion Energy =            387.5435295807564557
    One-Electron Energy =               -1291.0202950544342002
    Two-Electron Energy =                 519.5322962239749813
    DFT Exchange-Correlation Energy =       0.0000000000000000
    Empirical Dispersion Energy =           0.0000000000000000
    PCM Polarization Energy =               0.0000000000000000
    EFP Energy =                            0.0000000000000000
    Total Energy =                       -383.9444692497027063

  Mulliken Charges: (a.u.)
   Center  Symbol    Alpha    Beta     Spin     Total
       1     O     4.28325  4.28325  0.00000 -0.56650
       2     C     2.61932  2.61932  0.00000  0.76135
       3     C     3.28241  3.28241  0.00000 -0.56482
       4     O     4.30789  4.30789  0.00000 -0.61577
       5     H     0.40080  0.40080  0.00000  0.19839
       6     H     0.39677  0.39677  0.00000  0.20646
       7     H     0.40027  0.40027  0.00000  0.19945
       8     C     3.00867  3.00867  0.00000 -0.01734
       9     C     3.16344  3.16344  0.00000 -0.32688
      10     H     0.39953  0.39953  0.00000  0.20094
      11     H     0.41273  0.41273  0.00000  0.17455
      12     C     3.15552  3.15552  0.00000 -0.31103
      13     H     0.41908  0.41908  0.00000  0.16184
      14     H     0.41495  0.41495  0.00000  0.17010
      15     C     3.24018  3.24018  0.00000 -0.48036
      16     H     0.42142  0.42142  0.00000  0.15716
      17     H     0.41419  0.41419  0.00000  0.17162
      18     H     0.41753  0.41753  0.00000  0.16494
      19     H     0.42147  0.42147  0.00000  0.15706
      20     H     0.42058  0.42058  0.00000  0.15884

   Total alpha = 32.00000, Total beta = 32.00000, Total charge = -0.00000
