  ==> Input File <==

--------------------------------------------------------------------------
set {
	reference rhf
	basis cc-pvtz
}

set_num_threads( 4 )
memory 2 gb

molecule MOL {
0 1

H	 1.166964	 -1.062386	 0.758429
O	 1.324748	 -0.612467	 -0.052206
C	 0.706474	 0.636793	 -0.025501
C	 -0.378782	 0.776054	 1.004285
H	 0.284354	 0.791220	 -1.011538
H	 1.438039	 1.428409	 0.125679
C	 -0.838154	 -0.186685	 1.772671
H	 -0.792843	 1.767340	 1.088863
H	 -0.463382	 -1.190220	 1.706065
H	 -1.617465	 -0.001493	 2.487121

	symmetry c1
}
set optking {
	frozen_dihedral = ("
		5 3 2 1
	")
}

ee = optimize('scf')
oeprop('DIPOLE', 'QUADRUPOLE', 'MULLIKEN_CHARGES')
f=open( 'psi4out.xyz', 'w' )
f.write( "10  " )
f.write( str(ee) + "\n" )
f.write( MOL.save_string_xyz() )
f.close()
--------------------------------------------------------------------------

    Molecular point group: c1
  Charge       = 0
  Multiplicity = 1
  Basis Set: CC-PVTZ
  Basis Set:
  @DF-RHF Final Energy:  -191.99523593134143
    Total Energy =                       -191.9952359313414263
    Molecular point group: c1
  Basis Set: CC-PVTZ
  Basis Set:
  Basis Set: CC-PVTZ
  Basis Set:
  @DF-RHF Final Energy:  -191.99568211369186
    Total Energy =                       -191.9956821136920269
  Basis Set: CC-PVTZ
  Basis Set:
  Basis Set: CC-PVTZ
  Basis Set:
  @DF-RHF Final Energy:  -191.99588882878356
    Total Energy =                       -191.9958888287835066
  Basis Set: CC-PVTZ
  Basis Set:
  Basis Set: CC-PVTZ
  Basis Set:
  @DF-RHF Final Energy:  -191.99589673143862
    Total Energy =                       -191.9958967314386200
  Basis Set: CC-PVTZ
  Basis Set:
  Basis Set: CC-PVTZ
  Basis Set:
  @DF-RHF Final Energy:  -191.99589929042799
    Total Energy =                       -191.9958992904279853
  Basis Set: CC-PVTZ
  Basis Set:
  Charge       = 0
  Multiplicity = 1
  Basis Set: CC-PVTZ
  Basis Set:

    Orbital Energies (a.u.)
    -----------------------

    Doubly Occupied:

       1A    -20.551281     2A    -11.278586     3A    -11.239647
       4A    -11.225430     5A     -1.372884     6A     -1.068394
       7A     -0.937741     8A     -0.778030     9A     -0.692310
      10A     -0.660816    11A     -0.632793    12A     -0.573433
      13A     -0.556177    14A     -0.485024    15A     -0.458570
      16A     -0.375013

  @DF-RHF Final Energy:  -191.99589948505022

   => Energetics <=

    Nuclear Repulsion Energy =            119.5353916767976727
    One-Electron Energy =                -497.2903248857245444
    Two-Electron Energy =                 185.7590337238766836
    DFT Exchange-Correlation Energy =       0.0000000000000000
    Empirical Dispersion Energy =           0.0000000000000000
    PCM Polarization Energy =               0.0000000000000000
    EFP Energy =                            0.0000000000000000
    Total Energy =                       -191.9958994850502165
    Molecular point group: c1
  Basis Set: CC-PVTZ
  Basis Set:

  -Total Gradient:
     Atom            X                  Y                   Z
    ------   -----------------  -----------------  -----------------
       1       -0.002807931038    -0.001537635786    -0.001117989827
       2        0.002899813924     0.001615183081     0.001640435140
       3        0.002247697164     0.001234996105    -0.001541512997
       4        0.000035554163     0.000016605394     0.000013750923
       5       -0.002362360638    -0.001297237735     0.000997918749
       6        0.000001134718    -0.000009905649     0.000006361095
       7       -0.000000273596     0.000011375185     0.000000019248
       8       -0.000000913683    -0.000006404261    -0.000007236058
       9       -0.000006097709    -0.000007593234     0.000009068825
      10       -0.000006623302    -0.000019383100    -0.000000815099

  **** Optimization is complete! (in 6 steps) ****
    Final optimized geometry and variables:
    Molecular point group: c1

    Geometry (in Angstrom), charge = 0, multiplicity = 1:

    H            1.009523885095    -1.144577237903     0.136425252126
    O            1.104573232357    -0.710842483976    -0.690559936064
    C            0.433258597657     0.511820257008    -0.678750625489
    C           -0.627779341472     0.653873102188     0.375993295388
    H           -0.047855564737     0.631243179738    -1.644548120742
    H            1.145488471332     1.324507989930    -0.566473548949
    C           -1.140747388675    -0.305514629424     1.114815783590
    H           -0.992278617626     1.659497760333     0.501239991571
    H           -0.844393553750    -1.334456447804     1.022525494956
    H           -1.902054486502    -0.096629950668     1.841477356530

  Mulliken Charges: (a.u.)
   Center  Symbol    Alpha    Beta     Spin     Total
       1     H     0.38960  0.38960  0.00000  0.22079
       2     O     4.20257  4.20257  0.00000 -0.40515
       3     C     2.93532  2.93532  0.00000  0.12936
       4     C     3.07905  3.07905  0.00000 -0.15811
       5     H     0.46239  0.46239  0.00000  0.07523
       6     H     0.47106  0.47106  0.00000  0.05788
       7     C     3.17672  3.17672  0.00000 -0.35345
       8     H     0.42206  0.42206  0.00000  0.15587
       9     H     0.43490  0.43490  0.00000  0.13021
      10     H     0.42632  0.42632  0.00000  0.14737

   Total alpha = 16.00000, Total beta = 16.00000, Total charge = -0.00000
