                              Psi4 1.0.54 Driver

  ==> Input File <==

--------------------------------------------------------------------------
set {
	reference rhf
	basis cc-pvtz
}

set_num_threads( 4 )
memory 2 gb

molecule MOL {
0 1

H	 -0.000319	 0.067706	 -2.122744
C	 -0.000184	 -0.484932	 -1.207800
C	 -0.000181	 -1.865032	 -1.200230
C	 0.000000	 0.179985	 0.000046
H	 -0.000325	 -2.400757	 -2.128946
C	 0.000003	 -2.552036	 -0.000010
N	 0.000000	 1.644631	 0.000076
C	 0.000183	 -0.484981	 1.207864
H	 0.000000	 -3.625035	 -0.000032
C	 0.000184	 -1.865081	 1.200238
O	 1.050559	 2.194174	 -0.000073
O	 -1.050559	 2.194174	 -0.000074
H	 0.000326	 0.067619	 2.122832
H	 0.000323	 -2.400844	 2.128932

	symmetry c1
}
set optking {
	frozen_dihedral = ("
		2 4 7 11
	")
}

ee,wfn = optimize('scf', return_wfn=True)
oeprop( wfn, 'DIPOLE', 'QUADRUPOLE', 'MULLIKEN_CHARGES')
f=open( 'psi4out.xyz', 'w' )
f.write( "14  " )
f.write( str(ee) + "\n" )
f.write( MOL.save_string_xyz() )
f.close()
--------------------------------------------------------------------------

    Molecular point group: c1
  Charge       = 0
  Multiplicity = 1
  Basis Set: CC-PVTZ
  Basis Set:
  @DF-RHF Final Energy:  -434.31969762767858
    Total Energy =                       -434.3196976276788064
    Molecular point group: c1
  Basis Set: CC-PVTZ
  Basis Set:
  Basis Set: CC-PVTZ
  Basis Set:
  @DF-RHF Final Energy:  -434.31986784922651
    Total Energy =                       -434.3198678492265117
  Basis Set: CC-PVTZ
  Basis Set:
  Basis Set: CC-PVTZ
  Basis Set:
  @DF-RHF Final Energy:  -434.31945992102158
    Total Energy =                       -434.3194599210213482
  Basis Set: CC-PVTZ
  Basis Set:
  Basis Set: CC-PVTZ
  Basis Set:
  @DF-RHF Final Energy:  -434.31986265898917
    Total Energy =                       -434.3198626589892228
  Basis Set: CC-PVTZ
  Basis Set:
  Basis Set: CC-PVTZ
  Basis Set:
  @DF-RHF Final Energy:  -434.31987697034572
    Total Energy =                       -434.3198769703457174
  Basis Set: CC-PVTZ
  Basis Set:
  Basis Set: CC-PVTZ
  Basis Set:
  @DF-RHF Final Energy:  -434.31991985411651
    Total Energy =                       -434.3199198541163923
  Basis Set: CC-PVTZ
  Basis Set:
  Charge       = 0
  Multiplicity = 1
  Basis Set: CC-PVTZ
  Basis Set:

    Orbital Energies (a.u.)
    -----------------------

    Doubly Occupied:

       1A    -20.598825     2A    -20.598758     3A    -15.848446
       4A    -11.308444     5A    -11.267261     6A    -11.267222
       7A    -11.260914     8A    -11.260637     9A    -11.257708
      10A     -1.646108    11A     -1.429297    12A     -1.206538
      13A     -1.096645    14A     -1.056898    15A     -0.959222
      16A     -0.875172    17A     -0.831655    18A     -0.786441
      19A     -0.740751    20A     -0.738971    21A     -0.718382
      22A     -0.651707    23A     -0.650432    24A     -0.625845
      25A     -0.561890    26A     -0.553457    27A     -0.533673
      28A     -0.501189    29A     -0.485293    30A     -0.459768
      31A     -0.371398    32A     -0.370593

  @DF-RHF Final Energy:  -434.31992005175891

   => Energetics <=

    Nuclear Repulsion Energy =            417.2522234986161038
    One-Electron Energy =               -1418.1052094615097303
    Two-Electron Energy =                 566.5330659111345994
    DFT Exchange-Correlation Energy =       0.0000000000000000
    Empirical Dispersion Energy =           0.0000000000000000
    PCM Polarization Energy =               0.0000000000000000
    EFP Energy =                            0.0000000000000000
    Total Energy =                       -434.3199200517590270
    Molecular point group: c1
  Basis Set: CC-PVTZ
  Basis Set:

  -Total Gradient:
     Atom            X                  Y                   Z
    ------   -----------------  -----------------  -----------------
       1       -0.000000513971     0.000003655846    -0.000004437752
       2        0.000003779062    -0.000008707941     0.000007491185
       3        0.000001829441     0.000004556782    -0.000001341449
       4       -0.000011317641     0.000040471800     0.000000594736
       5        0.000000105030    -0.000001269798    -0.000000243385
       6       -0.000008514554    -0.000004649756     0.000001944507
       7        0.000102964145    -0.000045306397     0.000006391901
       8        0.000000935480    -0.000005307896    -0.000009646586
       9        0.000001796761     0.000001687394     0.000000102609
      10        0.000005657155     0.000001349217    -0.000000948390
      11       -0.000041473258    -0.000014030291    -0.000002611358
      12       -0.000054050081     0.000025456561    -0.000002284100
      13       -0.000000797737     0.000003264501     0.000004568789
      14       -0.000000399830    -0.000001170019     0.000000419294

  **** Optimization is complete! (in 7 steps) ****
    Final optimized geometry and variables:
    Molecular point group: c1

    Geometry (in Angstrom), charge = 0, multiplicity = 1:

    H           -0.000266676885     0.073106973522    -2.126584499892
    C           -0.000142546628    -0.477886275053    -1.207022444436
    C           -0.000172841061    -1.859402209264    -1.198816515244
    C            0.000012634332     0.177667098141     0.000011376451
    H           -0.000309945271    -2.394616219993    -2.128046268787
    C           -0.000035285230    -2.547635785548    -0.000012241394
    N            0.000029243851     1.644095167401     0.000015861435
    C            0.000199725599    -0.477904147316     1.207028539020
    H           -0.000037071079    -3.620210864327    -0.000021555502
    C            0.000190288225    -1.859425509467     1.198798499864
    O            1.054199232656     2.183245685688    -0.000111748213
    O           -1.054266616301     2.183180926455     0.000109256605
    H            0.000333559008     0.073068338344     2.126602946005
    H            0.000324377028    -2.394652815873     2.128020775065

  Mulliken Charges: (a.u.)
   Center  Symbol    Alpha    Beta     Spin     Total
       1     H     0.41507  0.41507  0.00000  0.16986
       2     C     3.08383  3.08383  0.00000 -0.16767
       3     C     3.06378  3.06378  0.00000 -0.12756
       4     C     2.92379  2.92379  0.00000  0.15243
       5     H     0.41736  0.41736  0.00000  0.16529
       6     C     3.07911  3.07911  0.00000 -0.15822
       7     N     3.29352  3.29352  0.00000  0.41295
       8     C     3.08383  3.08383  0.00000 -0.16767
       9     H     0.41805  0.41805  0.00000  0.16391
      10     C     3.06378  3.06378  0.00000 -0.12756
      11     O     4.16270  4.16270  0.00000 -0.32540
      12     O     4.16276  4.16276  0.00000 -0.32552
      13     H     0.41507  0.41507  0.00000  0.16986
      14     H     0.41736  0.41736  0.00000  0.16529

   Total alpha = 32.00000, Total beta = 32.00000, Total charge = -0.00000

*** Psi4 exiting successfully. Buy a developer a beer!
