  ==> Input File <==

--------------------------------------------------------------------------
set {
	reference rhf
	basis cc-pvtz
}

set_num_threads( 4 )
memory 2 gb

molecule MOL {
0 1

H	 -0.471811	 -1.594251	 -0.300422
N	 -0.625934	 -0.663929	 -0.000707
C	 -1.978635	 -0.158664	 0.001017
C	 0.444706	 0.064033	 0.387085
H	 -2.519057	 -0.493535	 -0.876362
H	 -1.938890	 0.917202	 -0.004137
H	 -2.514266	 -0.485137	 0.884506
C	 1.766382	 -0.667900	 0.307913
O	 0.365944	 1.193842	 0.769714
H	 1.965927	 -0.979016	 -0.710903
H	 2.551221	 -0.009758	 0.642492
H	 1.747139	 -1.553664	 0.932150

	symmetry c1
}
set optking {
	frozen_dihedral = ("
		4 2 3 5
	")
}

ee = optimize('scf')
oeprop('DIPOLE', 'QUADRUPOLE', 'MULLIKEN_CHARGES')
f=open( 'psi4out.xyz', 'w' )
f.write( "12  " )
f.write( str(ee) + "\n" )
f.write( MOL.save_string_xyz() )
f.close()
--------------------------------------------------------------------------

    Molecular point group: c1
  Charge       = 0
  Multiplicity = 1
  Basis Set: CC-PVTZ
  Basis Set:
  @DF-RHF Final Energy:  -247.10093120146374
    Total Energy =                       -247.1009312014639363
    Molecular point group: c1
  Basis Set: CC-PVTZ
  Basis Set:
  Basis Set: CC-PVTZ
  Basis Set:
  @DF-RHF Final Energy:  -247.10098061076062
    Total Energy =                       -247.1009806107607574
  Basis Set: CC-PVTZ
  Basis Set:
  Basis Set: CC-PVTZ
  Basis Set:
  @DF-RHF Final Energy:  -247.10087324386456
    Total Energy =                       -247.1008732438644984
  Basis Set: CC-PVTZ
  Basis Set:
  Basis Set: CC-PVTZ
  Basis Set:
  @DF-RHF Final Energy:  -247.10105260810076
    Total Energy =                       -247.1010526081006446
  Basis Set: CC-PVTZ
  Basis Set:
  Basis Set: CC-PVTZ
  Basis Set:
  @DF-RHF Final Energy:  -247.10106148876744
    Total Energy =                       -247.1010614887673000
  Basis Set: CC-PVTZ
  Basis Set:
  Basis Set: CC-PVTZ
  Basis Set:
  @DF-RHF Final Energy:  -247.10107129145183
    Total Energy =                       -247.1010712914516603
  Basis Set: CC-PVTZ
  Basis Set:
  Basis Set: CC-PVTZ
  Basis Set:
  @DF-RHF Final Energy:  -247.10107283067870
    Total Energy =                       -247.1010728306785609
  Basis Set: CC-PVTZ
  Basis Set:
  Charge       = 0
  Multiplicity = 1
  Basis Set: CC-PVTZ
  Basis Set:

    Orbital Energies (a.u.)
    -----------------------

    Doubly Occupied:

       1A    -20.506931     2A    -15.574764     3A    -11.336563
       4A    -11.252718     5A    -11.228091     6A     -1.388683
       7A     -1.230909     8A     -1.016641     9A     -0.932852
      10A     -0.788212    11A     -0.690866    12A     -0.651594
      13A     -0.635562    14A     -0.586493    15A     -0.582984
      16A     -0.555906    17A     -0.545326    18A     -0.510588
      19A     -0.417551    20A     -0.389611

  @DF-RHF Final Energy:  -247.10107372381967

   => Energetics <=

    Nuclear Repulsion Energy =            181.6800689968979157
    One-Electron Energy =                -695.9165942465064063
    Two-Electron Energy =                 267.1354515257888806
    DFT Exchange-Correlation Energy =       0.0000000000000000
    Empirical Dispersion Energy =           0.0000000000000000
    PCM Polarization Energy =               0.0000000000000000
    EFP Energy =                            0.0000000000000000
    Total Energy =                       -247.1010737238195816
    Molecular point group: c1
  Basis Set: CC-PVTZ
  Basis Set:

  -Total Gradient:
     Atom            X                  Y                   Z
    ------   -----------------  -----------------  -----------------
       1        0.000017251884    -0.000017028835     0.000019322287
       2       -0.000034168011    -0.000055599741     0.000197318494
       3       -0.000068008193    -0.000167488526     0.000086604314
       4        0.000022212156     0.000065952720    -0.000135815366
       5        0.000090468853     0.000175779258    -0.000103014406
       6       -0.000011402945     0.000009907691    -0.000001522875
       7       -0.000021456191    -0.000005179092    -0.000013016867
       8        0.000002074847    -0.000024247762     0.000058761665
       9       -0.000004568828     0.000005180320    -0.000053478123
      10       -0.000000786806     0.000025776095    -0.000019892309
      11       -0.000001551535     0.000001042618    -0.000003291321
      12        0.000009934767    -0.000014094745    -0.000031975493

  **** Optimization is complete! (in 8 steps) ****
    Final optimized geometry and variables:
    Molecular point group: c1

    Geometry (in Angstrom), charge = 0, multiplicity = 1:

    H           -0.459964457079    -1.557412096988    -0.560287369559
    N           -0.604528541229    -0.609998427476    -0.313979382391
    C           -1.958113517270    -0.107977670075    -0.279703218313
    C            0.462522427801     0.111177355170     0.096344108905
    H           -2.488561571909    -0.416897727726    -1.171045734707
    H           -1.926438211970     0.968171199711    -0.246805084791
    H           -2.499578461254    -0.463835513500     0.589912440901
    C            1.785341009205    -0.619773402214     0.025548468242
    O            0.378220285881     1.240378244600     0.479056082576
    H            1.981397244771    -0.953026095145    -0.986775305390
    H            2.570491559368     0.045989185833     0.344232436398
    H            1.769552137091    -1.491722379217     0.669364729032

  Mulliken Charges: (a.u.)
   Center  Symbol    Alpha    Beta     Spin     Total
       1     H     0.41087  0.41087  0.00000  0.17827
       2     N     3.62093  3.62093  0.00000 -0.24187
       3     C     3.08398  3.08398  0.00000 -0.16797
       4     C     2.83691  2.83691  0.00000  0.32617
       5     H     0.45492  0.45492  0.00000  0.09016
       6     H     0.43309  0.43309  0.00000  0.13382
       7     H     0.45682  0.45682  0.00000  0.08636
       8     C     3.15377  3.15377  0.00000 -0.30754
       9     O     4.21522  4.21522  0.00000 -0.43043
      10     H     0.44968  0.44968  0.00000  0.10065
      11     H     0.43355  0.43355  0.00000  0.13291
      12     H     0.45026  0.45026  0.00000  0.09948

   Total alpha = 20.00000, Total beta = 20.00000, Total charge = -0.00000
