                              Psi4 1.0.54 Driver

  ==> Input File <==

--------------------------------------------------------------------------
set {
	reference rhf
	basis cc-pvtz
}

set_num_threads( 4 )
memory 2 gb

molecule MOL {
0 1

O	 1.216069	 1.304886	 0.000821
C	 1.121787	 0.124983	 0.000110
C	 -0.170912	 -0.649867	 -0.000147
O	 2.167739	 -0.685178	 -0.000678
C	 -1.413045	 0.229353	 0.001137
H	 -0.152877	 -1.303435	 -0.866175
H	 -0.152278	 -1.305116	 0.864586
C	 -1.793315	 0.700196	 -1.399581
H	 -1.244527	 1.086368	 0.643528
H	 -2.238894	 -0.318054	 0.441437
C	 -3.035722	 1.584060	 -1.409632
H	 -0.960773	 1.245106	 -1.836830
H	 -1.960734	 -0.162820	 -2.038651
H	 -2.887196	 2.473443	 -0.806702
H	 -3.281769	 1.903145	 -2.415774
H	 -3.894433	 1.055299	 -1.010122
C	 3.449556	 -0.089977	 -0.000570
H	 3.585694	 0.522473	 -0.879546
H	 4.155805	 -0.904274	 -0.001389
H	 3.586173	 0.521118	 0.879272

	symmetry c1
}
set optking {
	frozen_dihedral = ("
		9 5 3 6
	")
}

ee,wfn = optimize('scf', return_wfn=True)
oeprop( wfn, 'DIPOLE', 'QUADRUPOLE', 'MULLIKEN_CHARGES')
f=open( 'psi4out.xyz', 'w' )
f.write( "20  " )
f.write( str(ee) + "\n" )
f.write( MOL.save_string_xyz() )
f.close()
--------------------------------------------------------------------------

    Molecular point group: c1
  Charge       = 0
  Multiplicity = 1
  Basis Set: CC-PVTZ
  Basis Set:
  @DF-RHF Final Energy:  -384.08185535577633
    Total Energy =                       -384.0818553557762698
    Molecular point group: c1
  Basis Set: CC-PVTZ
  Basis Set:
  Basis Set: CC-PVTZ
  Basis Set:
  @DF-RHF Final Energy:  -384.08206104969821
    Total Energy =                       -384.0820610496982681
  Basis Set: CC-PVTZ
  Basis Set:
  Basis Set: CC-PVTZ
  Basis Set:
  @DF-RHF Final Energy:  -384.08181098713408
    Total Energy =                       -384.0818109871337356
  Basis Set: CC-PVTZ
  Basis Set:
  Basis Set: CC-PVTZ
  Basis Set:
  @DF-RHF Final Energy:  -384.08211234622541
    Total Energy =                       -384.0821123462254718
  Basis Set: CC-PVTZ
  Basis Set:
  @DF-RHF Final Energy:  -384.08211801608269
    Total Energy =                       -384.0821180160828590
  Basis Set: CC-PVTZ
  Basis Set:
  @DF-RHF Final Energy:  -384.08211918688215
    Total Energy =                       -384.0821191868828919
  Basis Set: CC-PVTZ
  Basis Set:
  Basis Set: CC-PVTZ
  Basis Set:
  @DF-RHF Final Energy:  -384.08212153835632
    Total Energy =                       -384.0821215383563185
  Basis Set: CC-PVTZ
  Basis Set:
  Basis Set: CC-PVTZ
  Basis Set:
  @DF-RHF Final Energy:  -384.08212437494160
    Total Energy =                       -384.0821243749414862
  Basis Set: CC-PVTZ
  Basis Set:
  Charge       = 0
  Multiplicity = 1
  Basis Set: CC-PVTZ
  Basis Set:

    Orbital Energies (a.u.)
    -----------------------

    Doubly Occupied:

       1A    -20.597112     2A    -20.535084     3A    -11.365498
       4A    -11.279091     5A    -11.234209     6A    -11.217047
       7A    -11.213032     8A    -11.205294     9A     -1.473162
      10A     -1.366644    11A     -1.087863    12A     -1.023343
      13A     -0.969408    14A     -0.884780    15A     -0.805187
      16A     -0.768278    17A     -0.704461    18A     -0.684227
      19A     -0.676306    20A     -0.631604    21A     -0.608784
      22A     -0.588417    23A     -0.580274    24A     -0.544888
      25A     -0.532401    26A     -0.517311    27A     -0.514174
      28A     -0.476643    29A     -0.471971    30A     -0.463164
      31A     -0.459314    32A     -0.440732

  @DF-RHF Final Energy:  -384.08212446987108

   => Energetics <=

    Nuclear Repulsion Energy =            388.3254189517234067
    One-Electron Energy =               -1292.9756775985979402
    Two-Electron Energy =                 520.5681341770031167
    DFT Exchange-Correlation Energy =       0.0000000000000000
    Empirical Dispersion Energy =           0.0000000000000000
    PCM Polarization Energy =               0.0000000000000000
    EFP Energy =                            0.0000000000000000
    Total Energy =                       -384.0821244698714736
    Molecular point group: c1
  Basis Set: CC-PVTZ
  Basis Set:

  -Total Gradient:
     Atom            X                  Y                   Z
    ------   -----------------  -----------------  -----------------
       1        0.000002828769    -0.000033714585    -0.000000442998
       2       -0.000021616041     0.000031081340     0.000009241747
       3       -0.001272960580    -0.001798344268     0.001151217450
       4       -0.000025400120    -0.000008299998     0.000001705448
       5       -0.000718120806    -0.000998626709     0.001949841648
       6        0.001152840670     0.001639070101    -0.001261805580
       7       -0.000002763587    -0.000006771088    -0.000003757335
       8       -0.000007040789    -0.000001622449    -0.000009012306
       9        0.000829366105     0.001151810830    -0.001848194132
      10       -0.000001584911     0.000011500352     0.000012424344
      11       -0.000003058391    -0.000000805208    -0.000001818579
      12       -0.000000067196     0.000002170879    -0.000002811205
      13        0.000003714862     0.000001479520     0.000006062771
      14        0.000002905344    -0.000002960229    -0.000001708696
      15       -0.000005118415     0.000002077489    -0.000000583636
      16        0.000001072121    -0.000000721551    -0.000000040832
      17        0.000043112401     0.000008934604     0.000001889366
      18        0.000007365759    -0.000001973791     0.000005862269
      19        0.000007582763     0.000008020158    -0.000000113622
      20        0.000006942042    -0.000002305392    -0.000007956125

  **** Optimization is complete! (in 9 steps) ****
    Final optimized geometry and variables:
    Molecular point group: c1

    Geometry (in Angstrom), charge = 0, multiplicity = 1:

    O            0.981823277811     0.996608443093     0.411950368330
    C            0.896624727650    -0.183400640180     0.367218047146
    C           -0.387807333460    -0.977085463807     0.394535817827
    O            1.948973413734    -0.981567709979     0.296549967777
    C           -1.647725864505    -0.116693007882     0.361563673533
    H           -0.349326720750    -1.656632593241    -0.449732583577
    H           -0.349215804679    -1.593541016418     1.285642217089
    C           -2.032403713238     0.338149686041    -1.045259165813
    H           -1.493466998023     0.758854343726     0.979628179405
    H           -2.468448678624    -0.680925100943     0.792059299313
    C           -3.272731118717     1.224468769395    -1.059713677452
    H           -1.200867444276     0.877100606810    -1.486838631688
    H           -2.205860064678    -0.534774603263    -1.669596053895
    H           -3.113973843359     2.125092607891    -0.476776225899
    H           -3.527962836387     1.524623656105    -2.069405974026
    H           -4.130134482612     0.706697516955    -0.641911713288
    C            3.225271987642    -0.374463523554     0.281384509834
    H            3.327718890970     0.276284821891    -0.574287185693
    H            3.937799503108    -1.181124150363     0.222854655722
    H            3.385226773010     0.199632221364     1.181953923852

  Mulliken Charges: (a.u.)
   Center  Symbol    Alpha    Beta     Spin     Total
       1     O     4.19903  4.19903  0.00000 -0.39805
       2     C     2.80334  2.80334  0.00000  0.39333
       3     C     3.11003  3.11003  0.00000 -0.22006
       4     O     4.14627  4.14627  0.00000 -0.29255
       5     C     3.09201  3.09201  0.00000 -0.18401
       6     H     0.43969  0.43969  0.00000  0.12062
       7     H     0.43140  0.43140  0.00000  0.13720
       8     C     3.08279  3.08279  0.00000 -0.16558
       9     H     0.44406  0.44406  0.00000  0.11187
      10     H     0.44645  0.44645  0.00000  0.10710
      11     C     3.15121  3.15121  0.00000 -0.30241
      12     H     0.44843  0.44843  0.00000  0.10315
      13     H     0.45741  0.45741  0.00000  0.08518
      14     H     0.45175  0.45175  0.00000  0.09649
      15     H     0.44856  0.44856  0.00000  0.10288
      16     H     0.45674  0.45674  0.00000  0.08652
      17     C     3.03677  3.03677  0.00000 -0.07354
      18     H     0.45438  0.45438  0.00000  0.09125
      19     H     0.44538  0.44538  0.00000  0.10925
      20     H     0.45432  0.45432  0.00000  0.09136

   Total alpha = 32.00000, Total beta = 32.00000, Total charge = -0.00000

*** Psi4 exiting successfully. Buy a developer a beer!
