  ==> Input File <==

--------------------------------------------------------------------------
set {
	reference rhf
	basis 6-31G*
}

set_num_threads( 4 )
memory 2 gb

molecule MOL {
0 1

H	 -2.365627	 -1.312883	 -0.379134
C	 -1.358347	 -1.274295	 0.019669
C	 -0.681945	 0.000119	 -0.470601
H	 -0.826096	 -2.155117	 -0.321105
H	 -1.409554	 -1.292283	 1.100109
C	 -1.357790	 1.274691	 0.020220
N	 0.739525	 -0.000142	 0.006128
H	 -0.594190	 0.000341	 -1.545128
H	 -2.364980	 1.313977	 -0.378631
H	 -0.825080	 2.155361	 -0.320114
H	 -1.409060	 1.292170	 1.100671
O	 1.429071	 -0.915835	 -0.320389
O	 1.090582	 0.918329	 0.683307

	symmetry c1
}
set optking {
	frozen_dihedral = ("
		12 7 3 8
	")
}

ee = optimize('scf')
oeprop('DIPOLE', 'QUADRUPOLE', 'MULLIKEN_CHARGES')
f=open( 'psi4out.xyz', 'w' )
f.write( "13  " )
f.write( str(ee) + "\n" )
f.write( MOL.save_string_xyz() )
f.close()
--------------------------------------------------------------------------

    Molecular point group: c1
  Charge       = 0
  Multiplicity = 1
  Basis Set: 6-31G*
  Basis Set:
  @DF-RHF Final Energy:  -321.73694781849633
    Total Energy =                       -321.7369478184963896
    Molecular point group: c1
  Basis Set: 6-31G*
  Basis Set:
  Basis Set: 6-31G*
  Basis Set:
  @DF-RHF Final Energy:  -321.73697606101808
    Total Energy =                       -321.7369760610180265
  Basis Set: 6-31G*
  Basis Set:
  Basis Set: 6-31G*
  Basis Set:
  @DF-RHF Final Energy:  -321.73781257525849
    Total Energy =                       -321.7378125752583742
  Basis Set: 6-31G*
  Basis Set:
  Basis Set: 6-31G*
  Basis Set:
  @DF-RHF Final Energy:  -321.73781760078208
    Total Energy =                       -321.7378176007822503
  Basis Set: 6-31G*
  Basis Set:
  Basis Set: 6-31G*
  Basis Set:
  @DF-RHF Final Energy:  -321.73782395569924
    Total Energy =                       -321.7378239556993549
  Basis Set: 6-31G*
  Basis Set:
  Basis Set: 6-31G*
  Basis Set:
  @DF-RHF Final Energy:  -321.73789350735780
    Total Energy =                       -321.7378935073576258
  Basis Set: 6-31G*
  Basis Set:
  Charge       = 0
  Multiplicity = 1
  Basis Set: 6-31G*
  Basis Set:

    Orbital Energies (a.u.)
    -----------------------

    Doubly Occupied:

       1A    -20.602721     2A    -20.596370     3A    -15.844213
       4A    -11.307886     5A    -11.245272     6A    -11.240250
       7A     -1.629339     8A     -1.414389     9A     -1.142008
      10A     -0.969836    11A     -0.958755    12A     -0.812898
      13A     -0.759913    14A     -0.725338    15A     -0.720888
      16A     -0.642549    17A     -0.593569    18A     -0.587237
      19A     -0.571256    20A     -0.525347    21A     -0.521838
      22A     -0.481106    23A     -0.471615    24A     -0.446855

  @DF-RHF Final Energy:  -321.73789353565576

   => Energetics <=

    Nuclear Repulsion Energy =            256.7651759240354750
    One-Electron Energy =                -947.3832390843838311
    Two-Electron Energy =                 368.8801696246925985
    DFT Exchange-Correlation Energy =       0.0000000000000000
    Empirical Dispersion Energy =           0.0000000000000000
    PCM Polarization Energy =               0.0000000000000000
    EFP Energy =                            0.0000000000000000
    Total Energy =                       -321.7378935356557577
    Molecular point group: c1
  Basis Set: 6-31G*
  Basis Set:

  -Total Gradient:
     Atom            X                  Y                   Z
    ------   -----------------  -----------------  -----------------
       1       -0.000015019975    -0.000003172358     0.000004928563
       2       -0.000036568317     0.000006403262     0.000004464849
       3       -0.000100247428    -0.001716939893     0.000358886482
       4       -0.000015211504     0.000009661125    -0.000015469071
       5        0.000003685842    -0.000001359298    -0.000000862460
       6        0.000009308452     0.000008644163    -0.000052456163
       7        0.000419255741     0.000983210630    -0.001379598920
       8       -0.000003257678     0.001306509650    -0.000002301859
       9       -0.000008406679    -0.000015809512     0.000015868425
      10       -0.000018610652    -0.000016981008    -0.000017098385
      11        0.000012722661     0.000000302723     0.000021668210
      12       -0.000297425930    -0.000554796305     0.001061372975
      13        0.000049775467    -0.000005673182     0.000000597355

  **** Optimization is complete! (in 7 steps) ****
    Final optimized geometry and variables:
    Molecular point group: c1

    Geometry (in Angstrom), charge = 0, multiplicity = 1:

    H           -2.378837040779    -1.276971783816    -0.357998563878
    C           -1.361761227346    -1.260902155252     0.015792621271
    C           -0.683816430979     0.023195450808    -0.452703608572
    H           -0.842077626373    -2.134056580533    -0.350487322676
    H           -1.398426992727    -1.300752984165     1.099208133573
    C           -1.388627677709     1.287194745128     0.009754174945
    N            0.747871649843    -0.000842457401     0.014092853578
    H           -0.586942021712     0.020374423134    -1.530390983959
    H           -2.391936874684     1.286689725859    -0.402058621062
    H           -0.877553318693     2.176526327506    -0.332047576842
    H           -1.458593335086     1.327114817815     1.089064212125
    O            1.400696897495    -0.939489701310    -0.329769715914
    O            1.146991970803     0.896866308816     0.687345215503

  Mulliken Charges: (a.u.)
   Center  Symbol    Alpha    Beta     Spin     Total
       1     H     0.40817  0.40817  0.00000  0.18366
       2     C     3.24914  3.24914  0.00000 -0.49827
       3     C     3.02619  3.02619  0.00000 -0.05238
       4     H     0.39102  0.39102  0.00000  0.21797
       5     H     0.40681  0.40681  0.00000  0.18637
       6     C     3.24149  3.24149  0.00000 -0.48299
       7     N     3.21747  3.21747  0.00000  0.56506
       8     H     0.38631  0.38631  0.00000  0.22737
       9     H     0.41256  0.41256  0.00000  0.17488
      10     H     0.39976  0.39976  0.00000  0.20049
      11     H     0.40338  0.40338  0.00000  0.19323
      12     O     4.23029  4.23029  0.00000 -0.46058
      13     O     4.22741  4.22741  0.00000 -0.45481

   Total alpha = 24.00000, Total beta = 24.00000, Total charge =  0.00000
