                              Psi4 1.0.54 Driver

  ==> Input File <==

--------------------------------------------------------------------------
set {
	reference rhf
	basis cc-pvtz
}

set_num_threads( 4 )
memory 2 gb

molecule MOL {
0 1

H	 -3.436473	 1.252944	 -1.023892
O	 -3.458596	 0.315260	 -0.960865
C	 -3.176635	 -0.080824	 0.355601
C	 -1.763371	 0.265266	 0.799691
H	 -3.321825	 -1.153438	 0.379502
H	 -3.895468	 0.357385	 1.043382
C	 -0.796938	 0.515120	 -0.354390
H	 -1.800355	 1.142092	 1.444418
H	 -1.394808	 -0.549846	 1.417868
C	 0.607471	 0.893267	 0.108868
H	 -1.194009	 1.299064	 -0.989748
H	 -0.744224	 -0.378999	 -0.971058
C	 1.571038	 1.137045	 -1.050942
H	 0.545761	 1.780047	 0.732329
H	 1.004156	 0.102253	 0.741952
C	 3.012231	 1.440406	 -0.637682
H	 1.195381	 1.953533	 -1.663380
H	 1.574341	 0.257891	 -1.689453
C	 3.198457	 2.760364	 0.106748
H	 3.629008	 1.455875	 -1.531059
H	 3.388545	 0.625307	 -0.024965
H	 2.825262	 3.593858	 -0.479844
H	 4.247837	 2.943353	 0.308138
H	 2.679491	 2.766852	 1.057662

	symmetry c1
}
set optking {
	frozen_dihedral = ("
		7 4 3 2
	")
}

ee,wfn = optimize('scf', return_wfn=True)
oeprop( wfn, 'DIPOLE', 'QUADRUPOLE', 'MULLIKEN_CHARGES')
f=open( 'psi4out.xyz', 'w' )
f.write( "24  " )
f.write( str(ee) + "\n" )
f.write( MOL.save_string_xyz() )
f.close()
--------------------------------------------------------------------------

    Molecular point group: c1
  Charge       = 0
  Multiplicity = 1
  Basis Set: CC-PVTZ
  Basis Set:
  @DF-RHF Final Energy:  -349.37290442206063
    Total Energy =                       -349.3729044220604578
    Molecular point group: c1
  Basis Set: CC-PVTZ
  Basis Set:
  Basis Set: CC-PVTZ
  Basis Set:
  @DF-RHF Final Energy:  -349.37349331918244
    Total Energy =                       -349.3734933191822734
  Basis Set: CC-PVTZ
  Basis Set:
  Basis Set: CC-PVTZ
  Basis Set:
  @DF-RHF Final Energy:  -349.37411581027470
    Total Energy =                       -349.3741158102748159
  Basis Set: CC-PVTZ
  Basis Set:
  Basis Set: CC-PVTZ
  Basis Set:
  @DF-RHF Final Energy:  -349.37413158679260
    Total Energy =                       -349.3741315867920889
  Basis Set: CC-PVTZ
  Basis Set:
  Basis Set: CC-PVTZ
  Basis Set:
  @DF-RHF Final Energy:  -349.37413524386358
    Total Energy =                       -349.3741352438631793
  Basis Set: CC-PVTZ
  Basis Set:
  Charge       = 0
  Multiplicity = 1
  Basis Set: CC-PVTZ
  Basis Set:

    Orbital Energies (a.u.)
    -----------------------

    Doubly Occupied:

       1A    -20.546645     2A    -11.265767     3A    -11.213701
       4A    -11.212037     5A    -11.210243     6A    -11.209711
       7A    -11.209157     8A    -11.205377     9A     -1.363999
      10A     -1.088966    11A     -1.046967    12A     -0.985153
      13A     -0.917724    14A     -0.852352    15A     -0.795863
      16A     -0.776758    17A     -0.688067    18A     -0.651315
      19A     -0.627167    20A     -0.615344    21A     -0.600084
      22A     -0.587289    23A     -0.555486    24A     -0.545192
      25A     -0.513846    26A     -0.510277    27A     -0.498746
      28A     -0.476865    29A     -0.460799    30A     -0.457617
      31A     -0.455341    32A     -0.449650    33A     -0.423326

  @DF-RHF Final Energy:  -349.37413585325817

   => Energetics <=

    Nuclear Repulsion Energy =            385.6063029377802422
    One-Electron Energy =               -1237.9272203878754226
    Two-Electron Energy =                 502.9467815968369564
    DFT Exchange-Correlation Energy =       0.0000000000000000
    Empirical Dispersion Energy =           0.0000000000000000
    PCM Polarization Energy =               0.0000000000000000
    EFP Energy =                            0.0000000000000000
    Total Energy =                       -349.3741358532582240
    Molecular point group: c1
  Basis Set: CC-PVTZ
  Basis Set:

  -Total Gradient:
     Atom            X                  Y                   Z
    ------   -----------------  -----------------  -----------------
       1        0.000003531607     0.000001633745    -0.000009217474
       2        0.001478429582    -0.004108755706    -0.001262872441
       3       -0.002431155867     0.007428178921     0.001607076760
       4        0.001978579968    -0.007372263731    -0.000107703299
       5        0.000015411465    -0.000003798511     0.000035159560
       6        0.000014500792     0.000005953358     0.000008257978
       7       -0.001045552953     0.004074360628    -0.000276555864
       8       -0.000018603214     0.000006136753     0.000016283573
       9       -0.000004921826    -0.000006144494    -0.000004003038
      10        0.000017312243    -0.000040985843    -0.000004067286
      11       -0.000018092627     0.000001811979    -0.000004659172
      12        0.000017395122     0.000003308671     0.000001356239
      13        0.000005154968     0.000030919765    -0.000005781086
      14       -0.000020184108    -0.000010450078    -0.000017239371
      15        0.000006536367    -0.000014058485     0.000018847575
      16       -0.000014663073    -0.000009050935     0.000024942248
      17       -0.000004751454     0.000009927637    -0.000002237544
      18        0.000008391864     0.000001327316    -0.000005642850
      19        0.000008628864     0.000005931108    -0.000005186700
      20       -0.000004158784    -0.000009725570    -0.000004454392
      21       -0.000004758111    -0.000001524732     0.000010227704
      22       -0.000006184714     0.000007350721    -0.000000051113
      23        0.000003344296     0.000003600462    -0.000007242136
      24        0.000015809602    -0.000003682980    -0.000005237872

  **** Optimization is complete! (in 6 steps) ****
    Final optimized geometry and variables:
    Molecular point group: c1

    Geometry (in Angstrom), charge = 0, multiplicity = 1:

    H           -3.486446853490     0.324255366896    -0.859833058264
    O           -3.399594617189    -0.602211968120    -0.728792797021
    C           -3.059281471302    -0.879467456111     0.603610815965
    C           -1.623720453150    -0.491333946665     1.002697357906
    H           -3.178957464809    -1.950527944819     0.697782921746
    H           -3.770717623832    -0.421182013842     1.283714877995
    C           -0.649433688329    -0.320767852028    -0.160971376851
    H           -1.645109993144     0.441368312632     1.561784081981
    H           -1.248535659734    -1.241165219833     1.691847657073
    C            0.772556188789    -0.020717412433     0.307238213762
    H           -0.989269691883     0.481950520386    -0.806205928612
    H           -0.648685429071    -1.216034909404    -0.775034866490
    C            1.748722848193     0.182003914313    -0.850086245019
    H            0.758570220315     0.861822459753     0.939724921681
    H            1.125641519613    -0.838057941745     0.932229692789
    C            3.204661595244     0.398517504414    -0.433738788203
    H            1.420762552917     1.025953169710    -1.452981186468
    H            1.702332196322    -0.688158341483    -1.498967853388
    C            3.465431719331     1.697311457559     0.325445682485
    H            3.821716614831     0.388843710634    -1.327018426954
    H            3.533729783518    -0.443498959068     0.169642948338
    H            3.138236859087     2.557186906855    -0.250545331999
    H            4.523720320703     1.819364533078     0.526360065089
    H            2.949347598655     1.721559474902     1.277618380629

  Mulliken Charges: (a.u.)
   Center  Symbol    Alpha    Beta     Spin     Total
       1     H     0.39574  0.39574  0.00000  0.20852
       2     O     4.20044  4.20044  0.00000 -0.40088
       3     C     2.97679  2.97679  0.00000  0.04642
       4     C     3.11990  3.11990  0.00000 -0.23981
       5     H     0.45528  0.45528  0.00000  0.08944
       6     H     0.46082  0.46082  0.00000  0.07836
       7     C     3.07546  3.07546  0.00000 -0.15092
       8     H     0.45433  0.45433  0.00000  0.09134
       9     H     0.45212  0.45212  0.00000  0.09575
      10     C     3.09242  3.09242  0.00000 -0.18484
      11     H     0.45871  0.45871  0.00000  0.08258
      12     H     0.44835  0.44835  0.00000  0.10331
      13     C     3.09441  3.09441  0.00000 -0.18883
      14     H     0.45416  0.45416  0.00000  0.09168
      15     H     0.45495  0.45495  0.00000  0.09010
      16     C     3.09035  3.09035  0.00000 -0.18069
      17     H     0.45478  0.45478  0.00000  0.09044
      18     H     0.44904  0.44904  0.00000  0.10191
      19     C     3.15254  3.15254  0.00000 -0.30508
      20     H     0.44861  0.44861  0.00000  0.10279
      21     H     0.45498  0.45498  0.00000  0.09004
      22     H     0.45531  0.45531  0.00000  0.08939
      23     H     0.44655  0.44655  0.00000  0.10691
      24     H     0.45396  0.45396  0.00000  0.09208

   Total alpha = 33.00000, Total beta = 33.00000, Total charge = -0.00000

*** Psi4 exiting successfully. Buy a developer a beer!
