  ==> Input File <==

--------------------------------------------------------------------------
set {
	reference rhf
	basis 6-31G*
}

set_num_threads( 1 )
memory 2 gb

molecule MOL {
0 1

H	 0.785968	 1.760050	 6.608742
C	 0.296245	 0.858654	 6.253525
C	 -0.320365	 1.072908	 4.871837
H	 1.038545	 0.066331	 6.229949
H	 -0.459604	 0.583000	 6.983941
C	 -1.025766	 -0.178189	 4.343652
H	 0.456283	 1.371574	 4.175262
H	 -1.033284	 1.894576	 4.919824
C	 -1.668654	 0.011383	 2.969598
H	 -0.319605	 -0.999346	 4.291886
H	 -1.802094	 -0.471786	 5.046615
C	 -0.674796	 0.129230	 1.823473
H	 -2.305454	 -0.841849	 2.741015
H	 -2.325749	 0.878201	 2.964192
C	 -1.181045	 0.701995	 0.511084
O	 0.458291	 -0.230379	 1.938367
C	 -2.285934	 -0.139295	 -0.145128
H	 -0.326952	 0.780214	 -0.150823
H	 -1.554788	 1.707765	 0.693916
C	 -3.651768	 0.085446	 0.506485
H	 -2.346596	 0.110469	 -1.202272
H	 -2.034737	 -1.195320	 -0.088721
C	 -4.759797	 -0.746382	 -0.137905
H	 -3.908762	 1.140117	 0.445781
H	 -3.588286	 -0.154158	 1.565709
H	 -4.868882	 -0.505166	 -1.191300
H	 -4.548009	 -1.809175	 -0.062213
H	 -5.715422	 -0.564821	 0.343442

	symmetry c1
}
set optking {
	frozen_dihedral = ("
		10 6 3 2,
		16 12 15 17
	")
}

ee = energy('scf')
oeprop('DIPOLE', 'QUADRUPOLE', 'MULLIKEN_CHARGES')
f=open( 'psi4out.xyz', 'w' )
f.write( "28  " )
f.write( str(ee) + "\n" )
f.write( MOL.save_string_xyz() )
f.close()
--------------------------------------------------------------------------

    Molecular point group: c1

    Geometry (in Angstrom), charge = 0, multiplicity = 1:

       Center              X                  Y                   Z               Mass
    ------------   -----------------  -----------------  -----------------  -----------------
           H          2.270903355882     1.607772121910     4.303726249189     1.007825032070
           C          1.781180355882     0.706376121910     3.948509249189    12.000000000000
           C          1.164570355882     0.920630121910     2.566821249189    12.000000000000
           H          2.523480355882    -0.085946878090     3.924933249189     1.007825032070
           H          1.025331355882     0.430722121910     4.678925249189     1.007825032070
           C          0.459169355882    -0.330466878090     2.038636249189    12.000000000000
           H          1.941218355882     1.219296121910     1.870246249189     1.007825032070
           H          0.451651355882     1.742298121910     2.614808249189     1.007825032070
           C         -0.183718644118    -0.140894878090     0.664582249189    12.000000000000
           H          1.165330355882    -1.151623878090     1.986870249189     1.007825032070
           H         -0.317158644118    -0.624063878090     2.741599249189     1.007825032070
           C          0.810139355882    -0.023047878090    -0.481542750811    12.000000000000
           H         -0.820518644118    -0.994126878090     0.435999249189     1.007825032070
           H         -0.840813644118     0.725923121910     0.659176249189     1.007825032070
           C          0.303890355882     0.549717121910    -1.793931750811    12.000000000000
           O          1.943226355882    -0.382656878090    -0.366648750811    15.994914619560
           C         -0.800998644118    -0.291572878090    -2.450143750811    12.000000000000
           H          1.157983355882     0.627936121910    -2.455838750811     1.007825032070
           H         -0.069852644118     1.555487121910    -1.611099750811     1.007825032070
           C         -2.166832644118    -0.066831878090    -1.798530750811    12.000000000000
           H         -0.861660644118    -0.041808878090    -3.507287750811     1.007825032070
           H         -0.549801644118    -1.347597878090    -2.393736750811     1.007825032070
           C         -3.274861644118    -0.898659878090    -2.442920750811    12.000000000000
           H         -2.423826644118     0.987839121910    -1.859234750811     1.007825032070
           H         -2.103350644118    -0.306435878090    -0.739306750811     1.007825032070
           H         -3.383946644118    -0.657443878090    -3.496315750811     1.007825032070
           H         -3.063073644118    -1.961452878090    -2.367228750811     1.007825032070
           H         -4.230486644118    -0.717098878090    -1.961573750811     1.007825032070

  Charge       = 0
  Multiplicity = 1
  Basis Set: 6-31G*
  Basis Set:

    Orbital Energies (a.u.)
    -----------------------

    Doubly Occupied:

       1A    -20.548761     2A    -11.322782     3A    -11.232358
       4A    -11.230215     5A    -11.228602     6A    -11.224464
       7A    -11.216648     8A    -11.216454     9A    -11.212643
      10A    -11.205939    11A     -1.393819    12A     -1.099107
      13A     -1.076604    14A     -1.019673    15A     -0.993589
      16A     -0.906576    17A     -0.878634    18A     -0.813668
      19A     -0.795164    20A     -0.725262    21A     -0.676030
      22A     -0.648563    23A     -0.628875    24A     -0.612039
      25A     -0.608413    26A     -0.591662    27A     -0.579758
      28A     -0.574669    29A     -0.550567    30A     -0.531313
      31A     -0.524555    32A     -0.518973    33A     -0.496669
      34A     -0.486474    35A     -0.479941    36A     -0.475107
      37A     -0.465549    38A     -0.460980    39A     -0.450359
      40A     -0.394164

  @DF-RHF Final Energy:  -426.16037839993237

   => Energetics <=

    Nuclear Repulsion Energy =            544.9173241634000533
    One-Electron Energy =               -1657.9642210347660694
    Two-Electron Energy =                 686.8865184714314864
    DFT Exchange-Correlation Energy =       0.0000000000000000
    Empirical Dispersion Energy =           0.0000000000000000
    PCM Polarization Energy =               0.0000000000000000
    EFP Energy =                            0.0000000000000000
    Total Energy =                       -426.1603783999345296

  Mulliken Charges: (a.u.)
   Center  Symbol    Alpha    Beta     Spin     Total
       1     H     0.41929  0.41929  0.00000  0.16141
       2     C     3.24012  3.24012  0.00000 -0.48024
       3     C     3.15679  3.15679  0.00000 -0.31357
       4     H     0.41827  0.41827  0.00000  0.16347
       5     H     0.42362  0.42362  0.00000  0.15275
       6     C     3.14616  3.14616  0.00000 -0.29232
       7     H     0.41045  0.41045  0.00000  0.17910
       8     H     0.42767  0.42767  0.00000  0.14466
       9     C     3.22003  3.22003  0.00000 -0.44007
      10     H     0.40687  0.40687  0.00000  0.18626
      11     H     0.42220  0.42220  0.00000  0.15559
      12     C     2.72875  2.72875  0.00000  0.54250
      13     H     0.40119  0.40119  0.00000  0.19762
      14     H     0.41047  0.41047  0.00000  0.17905
      15     C     3.20380  3.20380  0.00000 -0.40760
      16     O     4.26683  4.26683  0.00000 -0.53366
      17     C     3.16448  3.16448  0.00000 -0.32895
      18     H     0.39792  0.39792  0.00000  0.20416
      19     H     0.41230  0.41230  0.00000  0.17540
      20     C     3.15824  3.15824  0.00000 -0.31648
      21     H     0.41214  0.41214  0.00000  0.17571
      22     H     0.41455  0.41455  0.00000  0.17091
      23     C     3.23911  3.23911  0.00000 -0.47823
      24     H     0.42159  0.42159  0.00000  0.15681
      25     H     0.41835  0.41835  0.00000  0.16331
      26     H     0.42026  0.42026  0.00000  0.15947
      27     H     0.42079  0.42079  0.00000  0.15841
      28     H     0.41774  0.41774  0.00000  0.16452

   Total alpha = 40.00000, Total beta = 40.00000, Total charge = -0.00000
