  ==> Input File <==

--------------------------------------------------------------------------
set {
	reference rhf
	basis 6-31G*
}

set_num_threads( 4 )
memory 2 gb

molecule MOL {
0 1

H	 2.422287	 -1.629466	 0.881579
N	 1.437286	 -1.454080	 0.900903
C	 0.813697	 -1.925875	 -0.321906
C	 1.177245	 -0.042880	 1.119085
H	 1.017929	 -2.985242	 -0.435044
H	 1.192396	 -1.412697	 -1.208966
C	 -0.688550	 -1.702588	 -0.233443
H	 1.644749	 0.261377	 2.049481
H	 1.577962	 0.584345	 0.319300
C	 -0.325228	 0.179240	 1.206655
H	 -1.097020	 -2.334123	 0.561174
H	 -1.155608	 -2.001313	 -1.166270
N	 -0.975995	 -0.298722	 0.000000
H	 -0.529907	 1.239508	 1.313817
H	 -0.709356	 -0.326219	 2.097753
C	 -2.393863	 -0.024976	 0.000000
H	 -2.854032	 -0.467193	 -0.876721
H	 -2.854032	 -0.467193	 0.876721
H	 -2.623281	 1.044943	 0.000000

	symmetry c1
}
set optking {
	frozen_dihedral = ("
		7 13 16 19
	")
}

ee = optimize('scf')
oeprop('DIPOLE', 'QUADRUPOLE', 'MULLIKEN_CHARGES')
f=open( 'psi4out.xyz', 'w' )
f.write( "19  " )
f.write( str(ee) + "\n" )
f.write( MOL.save_string_xyz() )
f.close()
--------------------------------------------------------------------------

    Molecular point group: c1
  Charge       = 0
  Multiplicity = 1
  Basis Set: 6-31G*
  Basis Set:
  @DF-RHF Final Energy:  -305.19866987547317
    Total Energy =                       -305.1986698754731151
    Molecular point group: c1
  Basis Set: 6-31G*
  Basis Set:
  Basis Set: 6-31G*
  Basis Set:
  @DF-RHF Final Energy:  -305.19944344017631
    Total Energy =                       -305.1994434401761964
  Basis Set: 6-31G*
  Basis Set:
  Basis Set: 6-31G*
  Basis Set:
  @DF-RHF Final Energy:  -305.19955370123637
    Total Energy =                       -305.1995537012362547
  Basis Set: 6-31G*
  Basis Set:
  Charge       = 0
  Multiplicity = 1
  Basis Set: 6-31G*
  Basis Set:

    Orbital Energies (a.u.)
    -----------------------

    Doubly Occupied:

       1A    -15.540616     2A    -15.536650     3A    -11.238590
       4A    -11.238570     5A    -11.237215     6A    -11.237129
       7A    -11.234925     8A     -1.247327     9A     -1.185582
      10A     -1.023061    11A     -0.964647    12A     -0.860933
      13A     -0.857097    14A     -0.756851    15A     -0.691197
      16A     -0.633865    17A     -0.626589    18A     -0.607805
      19A     -0.603274    20A     -0.579880    21A     -0.543436
      22A     -0.529531    23A     -0.511403    24A     -0.490352
      25A     -0.466594    26A     -0.457069    27A     -0.363448
      28A     -0.344488

  @DF-RHF Final Energy:  -305.19955469218172

   => Energetics <=

    Nuclear Repulsion Energy =            339.8365271128531617
    One-Electron Energy =               -1086.8559141998857740
    Two-Electron Energy =                 441.8198323948512325
    DFT Exchange-Correlation Energy =       0.0000000000000000
    Empirical Dispersion Energy =           0.0000000000000000
    PCM Polarization Energy =               0.0000000000000000
    EFP Energy =                            0.0000000000000000
    Total Energy =                       -305.1995546921813229
    Molecular point group: c1
  Basis Set: 6-31G*
  Basis Set:

  -Total Gradient:
     Atom            X                  Y                   Z
    ------   -----------------  -----------------  -----------------
       1        0.000012528836    -0.000000006567     0.000009262998
       2        0.000034790245    -0.000012755767     0.000018739235
       3       -0.000029174700     0.000117100377     0.000005943790
       4       -0.000032574332    -0.000015630525    -0.000016978636
       5       -0.000040460620     0.000012546571     0.000002172497
       6        0.000014209988    -0.000000285678    -0.000015482447
       7       -0.000055393571     0.000087752146    -0.001051193969
       8       -0.000003252111    -0.000004311067     0.000001325086
       9        0.000001375445    -0.000004448513    -0.000002319051
      10       -0.000042535641     0.000028179455     0.000039158443
      11        0.000005064115     0.000028193901     0.000000313221
      12       -0.000017812757     0.000006917020    -0.000011475356
      13        0.000001944170    -0.000245562574     0.001038839233
      14       -0.000001398902     0.000009032409     0.000005254789
      15        0.000011081749    -0.000000799340    -0.000018886903
      16        0.000004051163     0.000022352577     0.001429999673
      17        0.000060071219    -0.000020087725    -0.000013382929
      18        0.000021943056    -0.000011406977     0.000003983003
      19        0.000055542648     0.000003220274    -0.001425272676

  **** Optimization is complete! (in 4 steps) ****
    Final optimized geometry and variables:
    Molecular point group: c1

    Geometry (in Angstrom), charge = 0, multiplicity = 1:

    H            2.572613314548    -0.866199581287     0.491078557579
    N            1.587049232985    -0.694406009443     0.513272038532
    C            0.961177895353    -1.170858076061    -0.706628211575
    C            1.322377871746     0.716151072178     0.730217056921
    H            1.171725217255    -2.228942358084    -0.820353012900
    H            1.333005065048    -0.655536942007    -1.595393825260
    C           -0.542211794908    -0.957324668254    -0.612989335721
    H            1.792899610305     1.024116646169     1.657905245231
    H            1.717052802007     1.343363122129    -0.072566756984
    C           -0.180584382924     0.931934600366     0.823883449406
    H           -0.943677580764    -1.594226662750     0.180995885625
    H           -1.009838484646    -1.256058944696    -1.545325666883
    N           -0.835370205744     0.444370929878    -0.375809402905
    H           -0.390440819598     1.991773208836     0.926667717208
    H           -0.558004501881     0.429423741269     1.719481636782
    C           -2.252321318850     0.721902171771    -0.375722171987
    H           -2.701685100050     0.325456939170    -1.279416027357
    H           -2.776025283679     0.287814333400     0.480984340139
    H           -2.417408894047     1.793959572149    -0.372300989298

  Mulliken Charges: (a.u.)
   Center  Symbol    Alpha    Beta     Spin     Total
       1     H     0.32945  0.32945  0.00000  0.34110
       2     N     3.85427  3.85427  0.00000 -0.70855
       3     C     3.06366  3.06366  0.00000 -0.12732
       4     C     3.06352  3.06352  0.00000 -0.12704
       5     H     0.41763  0.41763  0.00000  0.16474
       6     H     0.42772  0.42772  0.00000  0.14456
       7     C     3.05410  3.05410  0.00000 -0.10821
       8     H     0.41761  0.41761  0.00000  0.16478
       9     H     0.42773  0.42773  0.00000  0.14454
      10     C     3.05418  3.05418  0.00000 -0.10836
      11     H     0.42824  0.42824  0.00000  0.14352
      12     H     0.41876  0.41876  0.00000  0.16248
      13     N     3.78892  3.78892  0.00000 -0.57785
      14     H     0.41879  0.41879  0.00000  0.16242
      15     H     0.42801  0.42801  0.00000  0.14398
      16     C     3.13965  3.13965  0.00000 -0.27929
      17     H     0.41781  0.41781  0.00000  0.16439
      18     H     0.43317  0.43317  0.00000  0.13366
      19     H     0.41678  0.41678  0.00000  0.16644

   Total alpha = 28.00000, Total beta = 28.00000, Total charge = -0.00000
