  ==> Input File <==

--------------------------------------------------------------------------
set {
	reference rhf
	basis 6-31G*
}

set_num_threads( 1 )
memory 2 gb

molecule MOL {
0 1

H	 -3.334379	 -0.949004	 -0.284539
O	 -2.506864	 -0.600989	 -0.584339
C	 -2.026376	 0.340750	 0.341611
C	 -0.673256	 0.843270	 -0.132153
H	 -2.718907	 1.176269	 0.426733
H	 -1.931112	 -0.108683	 1.329330
C	 0.486613	 -0.083066	 0.235839
H	 -0.715586	 0.970948	 -1.210718
H	 -0.508072	 1.829858	 0.297090
C	 1.840406	 0.433480	 -0.254303
H	 0.300215	 -1.068318	 -0.178947
H	 0.519509	 -0.203625	 1.318070
C	 3.000220	 -0.489290	 0.118523
H	 1.809207	 0.553576	 -1.335192
H	 2.021860	 1.424500	 0.157276
H	 2.864959	 -1.479103	 -0.307933
H	 3.946603	 -0.099227	 -0.243630
H	 3.080049	 -0.602997	 1.196117

	symmetry c1
}
set optking {
	frozen_dihedral = ("
		14 10 7 11,
		10 7 4 8,
		1 2 3 4
	")
}

ee = energy('scf')
oeprop('DIPOLE', 'QUADRUPOLE', 'MULLIKEN_CHARGES')
f=open( 'psi4out.xyz', 'w' )
f.write( "18  " )
f.write( str(ee) + "\n" )
f.write( MOL.save_string_xyz() )
f.close()
--------------------------------------------------------------------------

    Molecular point group: c1

    Geometry (in Angstrom), charge = 0, multiplicity = 1:

       Center              X                  Y                   Z               Mass
    ------------   -----------------  -----------------  -----------------  -----------------
           H         -3.298168906651    -0.998777119571    -0.233914119187     1.007825032070
           O         -2.470653906651    -0.650762119571    -0.533714119187    15.994914619560
           C         -1.990165906651     0.290976880429     0.392235880813    12.000000000000
           C         -0.637045906651     0.793496880429    -0.081528119187    12.000000000000
           H         -2.682696906651     1.126495880429     0.477357880813     1.007825032070
           H         -1.894901906651    -0.158456119571     1.379954880813     1.007825032070
           C          0.522823093349    -0.132839119571     0.286463880813    12.000000000000
           H         -0.679375906651     0.921174880429    -1.160093119187     1.007825032070
           H         -0.471861906651     1.780084880429     0.347714880813     1.007825032070
           C          1.876616093349     0.383706880429    -0.203678119187    12.000000000000
           H          0.336425093349    -1.118091119571    -0.128322119187     1.007825032070
           H          0.555719093349    -0.253398119571     1.368694880813     1.007825032070
           C          3.036430093349    -0.539063119571     0.169147880813    12.000000000000
           H          1.845417093349     0.503802880429    -1.284567119187     1.007825032070
           H          2.058070093349     1.374726880429     0.207900880813     1.007825032070
           H          2.901169093349    -1.528876119571    -0.257308119187     1.007825032070
           H          3.982813093349    -0.149000119571    -0.193005119187     1.007825032070
           H          3.116259093349    -0.652770119571     1.246741880813     1.007825032070

  Charge       = 0
  Multiplicity = 1
  Basis Set: 6-31G*
  Basis Set:

    Orbital Energies (a.u.)
    -----------------------

    Doubly Occupied:

       1A    -20.552282     2A    -11.267302     3A    -11.212086
       4A    -11.211309     5A    -11.209187     6A    -11.205732
       7A     -1.358941     8A     -1.076442     9A     -1.009349
      10A     -0.913208    11A     -0.818135    12A     -0.786617
      13A     -0.704983    14A     -0.636401    15A     -0.631091
      16A     -0.578932    17A     -0.571007    18A     -0.559987
      19A     -0.523706    20A     -0.499241    21A     -0.488670
      22A     -0.468830    23A     -0.461043    24A     -0.450590
      25A     -0.426481

  @DF-RHF Final Energy:  -271.17829587681001

   => Energetics <=

    Nuclear Repulsion Energy =            247.9842968831342205
    One-Electron Energy =                -859.0821506089903323
    Two-Electron Energy =                 339.9195578490461571
    DFT Exchange-Correlation Energy =       0.0000000000000000
    Empirical Dispersion Energy =           0.0000000000000000
    PCM Polarization Energy =               0.0000000000000000
    EFP Energy =                            0.0000000000000000
    Total Energy =                       -271.1782958768099547

  Mulliken Charges: (a.u.)
   Center  Symbol    Alpha    Beta     Spin     Total
       1     H     0.28112  0.28112  0.00000  0.43776
       2     O     4.37030  4.37030  0.00000 -0.74060
       3     C     2.99683  2.99683  0.00000  0.00633
       4     C     3.16037  3.16037  0.00000 -0.32074
       5     H     0.42985  0.42985  0.00000  0.14030
       6     H     0.43219  0.43219  0.00000  0.13563
       7     C     3.15449  3.15449  0.00000 -0.30898
       8     H     0.41034  0.41034  0.00000  0.17932
       9     H     0.42397  0.42397  0.00000  0.15205
      10     C     3.15202  3.15202  0.00000 -0.30403
      11     H     0.41263  0.41263  0.00000  0.17473
      12     H     0.42695  0.42695  0.00000  0.14611
      13     C     3.23910  3.23910  0.00000 -0.47821
      14     H     0.42171  0.42171  0.00000  0.15658
      15     H     0.42452  0.42452  0.00000  0.15096
      16     H     0.42097  0.42097  0.00000  0.15806
      17     H     0.41994  0.41994  0.00000  0.16011
      18     H     0.42269  0.42269  0.00000  0.15462

   Total alpha = 25.00000, Total beta = 25.00000, Total charge = -0.00000
