  ==> Input File <==

--------------------------------------------------------------------------
set {
	reference rhf
	basis 6-31G*
}

set_num_threads( 4 )
memory 2 gb

molecule MOL {
0 1

H	 -3.301617	 0.570527	 0.000000
C	 -2.250981	 0.344174	 0.000000
C	 -1.813665	 -0.976045	 0.000000
C	 -1.315303	 1.358057	 0.000000
H	 -2.528860	 -1.779366	 0.000000
C	 -0.467298	 -1.270142	 0.000000
H	 -1.635074	 2.385107	 0.000000
C	 0.047081	 1.078114	 0.000000
H	 -0.115948	 -2.285222	 0.000000
C	 0.472063	 -0.241155	 0.000000
H	 0.749976	 1.888426	 0.000000
O	 1.765256	 -0.628444	 0.000000
C	 2.311091	 -1.225268	 -1.140586
H	 1.799674	 -2.149496	 -1.388754
H	 3.341542	 -1.443767	 -0.903435
H	 2.276838	 -0.556202	 -1.994113

	symmetry c1
}
set optking {
	frozen_dihedral = ("
		13 12 10 8
	")
}

ee = optimize('scf')
oeprop('DIPOLE', 'QUADRUPOLE', 'MULLIKEN_CHARGES')
f=open( 'psi4out.xyz', 'w' )
f.write( "16  " )
f.write( str(ee) + "\n" )
f.write( MOL.save_string_xyz() )
f.close()
--------------------------------------------------------------------------

    Molecular point group: c1
  Charge       = 0
  Multiplicity = 1
  Basis Set: 6-31G*
  Basis Set:
  @DF-RHF Final Energy:  -344.57715782697397
    Total Energy =                       -344.5771578269738029
    Molecular point group: c1
  Basis Set: 6-31G*
  Basis Set:
  Basis Set: 6-31G*
  Basis Set:
  @DF-RHF Final Energy:  -344.58008698896799
    Total Energy =                       -344.5800869889681053
  Basis Set: 6-31G*
  Basis Set:
  Basis Set: 6-31G*
  Basis Set:
  @DF-RHF Final Energy:  -344.58036814880046
    Total Energy =                       -344.5803681488005736
  Basis Set: 6-31G*
  Basis Set:
  Basis Set: 6-31G*
  Basis Set:
  @DF-RHF Final Energy:  -344.58041114698284
    Total Energy =                       -344.5804111469832378
  Basis Set: 6-31G*
  Basis Set:
  Charge       = 0
  Multiplicity = 1
  Basis Set: 6-31G*
  Basis Set:

    Orbital Energies (a.u.)
    -----------------------

    Doubly Occupied:

       1A    -20.572445     2A    -11.286184     3A    -11.275484
       4A    -11.233652     5A    -11.232903     6A    -11.226301
       7A    -11.225857     8A    -11.224201     9A     -1.400659
      10A     -1.147564    11A     -1.017469    12A     -1.014721
      13A     -0.933653    14A     -0.834342    15A     -0.806225
      16A     -0.714274    17A     -0.666241    18A     -0.662460
      19A     -0.636376    20A     -0.612549    21A     -0.596571
      22A     -0.584675    23A     -0.529946    24A     -0.506612
      25A     -0.504724    26A     -0.483085    27A     -0.437828
      28A     -0.335148    29A     -0.319550

  @DF-RHF Final Energy:  -344.58041694619391

   => Energetics <=

    Nuclear Repulsion Energy =            348.0143032442921935
    One-Electron Energy =               -1157.1460442652994516
    Two-Electron Energy =                 464.5513240748132375
    DFT Exchange-Correlation Energy =       0.0000000000000000
    Empirical Dispersion Energy =           0.0000000000000000
    PCM Polarization Energy =               0.0000000000000000
    EFP Energy =                            0.0000000000000000
    Total Energy =                       -344.5804169461939637
    Molecular point group: c1
  Basis Set: 6-31G*
  Basis Set:

  -Total Gradient:
     Atom            X                  Y                   Z
    ------   -----------------  -----------------  -----------------
       1       -0.000035542879    -0.000100243724     0.000011019826
       2        0.000117222565     0.000282311392     0.000071906283
       3        0.000252570267    -0.000150116654    -0.000091562754
       4       -0.000340116352    -0.000065042160    -0.000078347234
       5       -0.000056716231     0.000027758908     0.000016061929
       6       -0.000168302390    -0.000160915461     0.000041265821
       7        0.000038159141    -0.000037181100     0.000008471138
       8        0.000156900302    -0.000148411678     0.000421180589
       9       -0.000042646166     0.000017367153     0.000009385396
      10       -0.000195975229     0.000399868132    -0.000581057005
      11        0.000047933404    -0.000055555938     0.000017786506
      12        0.000270843437     0.000367595395     0.000137629480
      13       -0.000062332445    -0.000376108017    -0.000025589076
      14        0.000005857693     0.000001104246     0.000033406589
      15        0.000003714504    -0.000004393001     0.000007375897
      16        0.000008430377     0.000001962510     0.000001066615

  **** Optimization is complete! (in 5 steps) ****
    Final optimized geometry and variables:
    Molecular point group: c1

    Geometry (in Angstrom), charge = 0, multiplicity = 1:

    H           -3.219924208411     0.840409037081     0.154345031251
    C           -2.175225847389     0.586680816830     0.154787348991
    C           -1.781046616549    -0.742571048102     0.172436303564
    C           -1.213645544691     1.583515880744     0.145384359602
    H           -2.521522296694    -1.522402699200     0.190536317219
    C           -0.437392081592    -1.076180326468     0.178493315324
    H           -1.509502173282     2.617413059765     0.138233735612
    C            0.133618232067     1.257839570488     0.145314192554
    H           -0.127709953294    -2.104903785679     0.213560711415
    C            0.519327423441    -0.071792307509     0.158815723173
    H            0.891729435595     2.019344416172     0.143859635156
    O            1.848416926016    -0.370309038043     0.198135659882
    C            2.392924741856    -0.928817552986    -0.970378144576
    H            1.929155123226    -1.879019833792    -1.212129098558
    H            3.444611843425    -1.086177521210    -0.779296880035
    H            2.276067856910    -0.254978854691    -1.813314598199

  Mulliken Charges: (a.u.)
   Center  Symbol    Alpha    Beta     Spin     Total
       1     H     0.39996  0.39996  0.00000  0.20008
       2     C     3.10623  3.10623  0.00000 -0.21247
       3     C     3.09629  3.09629  0.00000 -0.19259
       4     C     3.09661  3.09661  0.00000 -0.19321
       5     H     0.39857  0.39857  0.00000  0.20286
       6     C     3.12260  3.12260  0.00000 -0.24520
       7     H     0.39832  0.39832  0.00000  0.20337
       8     C     3.12111  3.12111  0.00000 -0.24222
       9     H     0.39595  0.39595  0.00000  0.20809
      10     C     2.79978  2.79978  0.00000  0.40044
      11     H     0.39366  0.39366  0.00000  0.21269
      12     O     4.33208  4.33208  0.00000 -0.66416
      13     C     3.08277  3.08277  0.00000 -0.16553
      14     H     0.42412  0.42412  0.00000  0.15177
      15     H     0.40997  0.40997  0.00000  0.18006
      16     H     0.42199  0.42199  0.00000  0.15602

   Total alpha = 29.00000, Total beta = 29.00000, Total charge =  0.00000
