  ==> Input File <==

--------------------------------------------------------------------------
set {
	reference rhf
	basis cc-pvtz
}

set_num_threads( 4 )
memory 2 gb

molecule MOL {
0 1

O	 -0.294688	 1.318815	 -0.000872
C	 -0.448732	 0.145721	 -0.000187
C	 -1.780748	 -0.548101	 0.000195
O	 0.550743	 -0.719877	 0.000412
H	 -1.859389	 -1.183260	 -0.872613
H	 -2.570236	 0.185547	 -0.001342
H	 -1.860233	 -1.180337	 0.875064
C	 0.511552	 -1.754070	 0.963726
H	 0.511526	 -1.343918	 1.962628
H	 1.399256	 -2.343852	 0.803032
H	 -0.370314	 -2.363256	 0.832474

	symmetry c1
}
set optking {
	frozen_dihedral = ("
		8 4 2 1
	")
}

ee = optimize('scf')
oeprop('DIPOLE', 'QUADRUPOLE', 'MULLIKEN_CHARGES')
f=open( 'psi4out.xyz', 'w' )
f.write( "11  " )
f.write( str(ee) + "\n" )
f.write( MOL.save_string_xyz() )
f.close()
--------------------------------------------------------------------------

    Molecular point group: c1
  Charge       = 0
  Multiplicity = 1
  Basis Set: CC-PVTZ
  Basis Set:
  @DF-RHF Final Energy:  -266.91551925128113
    Total Energy =                       -266.9155192512812960
    Molecular point group: c1
  Basis Set: CC-PVTZ
  Basis Set:
  Basis Set: CC-PVTZ
  Basis Set:
  @DF-RHF Final Energy:  -266.91629811710891
    Total Energy =                       -266.9162981171089086
  Basis Set: CC-PVTZ
  Basis Set:
  Basis Set: CC-PVTZ
  Basis Set:
  @DF-RHF Final Energy:  -266.91983335836017
    Total Energy =                       -266.9198333583600515
  Basis Set: CC-PVTZ
  Basis Set:
  Basis Set: CC-PVTZ
  Basis Set:
  @DF-RHF Final Energy:  -266.92067669379747
    Total Energy =                       -266.9206766937972475
  Basis Set: CC-PVTZ
  Basis Set:
  @DF-RHF Final Energy:  -266.92073777910605
    Total Energy =                       -266.9207377791062186
  @DF-RHF Final Energy:  -266.92089179270295
    Total Energy =                       -266.9208917927028892
  @DF-RHF Final Energy:  -266.92091894732465
    Total Energy =                       -266.9209189473247079
  @DF-RHF Final Energy:  -266.92093216219234
    Total Energy =                       -266.9209321621921731
  @DF-RHF Final Energy:  -266.92094357573467
    Total Energy =                       -266.9209435757348388
  @DF-RHF Final Energy:  -266.92094597350570
    Total Energy =                       -266.9209459735056953
  @DF-RHF Final Energy:  -266.92095118991654
    Total Energy =                       -266.9209511899164227
  @DF-RHF Final Energy:  -266.92095996603985
    Total Energy =                       -266.9209599660399590
  @DF-RHF Final Energy:  -266.92096106945098
    Total Energy =                       -266.9209610694510388
  @DF-RHF Final Energy:  -266.92096187500556
    Total Energy =                       -266.9209618750055597
  @DF-RHF Final Energy:  -266.92096273975409
    Total Energy =                       -266.9209627397542022
  @DF-RHF Final Energy:  -266.92096360315583
    Total Energy =                       -266.9209636031555988
  Basis Set: CC-PVTZ
  Basis Set:
  @DF-RHF Final Energy:  -266.92096401424413
    Total Energy =                       -266.9209640142440776
  Basis Set: CC-PVTZ
  Basis Set:
  Basis Set: CC-PVTZ
  Basis Set:
  @DF-RHF Final Energy:  -266.92096373924289
    Total Energy =                       -266.9209637392427794
  Basis Set: CC-PVTZ
  Basis Set:
  Basis Set: CC-PVTZ
  Basis Set:
  @DF-RHF Final Energy:  -266.92096418882170
    Total Energy =                       -266.9209641888212445
  Basis Set: CC-PVTZ
  Basis Set:
  Charge       = 0
  Multiplicity = 1
  Basis Set: CC-PVTZ
  Basis Set:

    Orbital Energies (a.u.)
    -----------------------

    Doubly Occupied:

       1A    -20.587776     2A    -20.540209     3A    -11.371590
       4A    -11.294484     5A    -11.240721     6A     -1.465512
       7A     -1.372499     8A     -1.023699     9A     -0.977662
      10A     -0.783159    11A     -0.698521    12A     -0.687055
      13A     -0.678158    14A     -0.614881    15A     -0.591945
      16A     -0.580223    17A     -0.546756    18A     -0.502525
      19A     -0.462187    20A     -0.442479

  @DF-RHF Final Energy:  -266.92096446100436

   => Energetics <=

    Nuclear Repulsion Energy =            183.0662754347987402
    One-Electron Energy =                -727.0504016669810881
    Two-Electron Energy =                 277.0631617711777608
    DFT Exchange-Correlation Energy =       0.0000000000000000
    Empirical Dispersion Energy =           0.0000000000000000
    PCM Polarization Energy =               0.0000000000000000
    EFP Energy =                            0.0000000000000000
    Total Energy =                       -266.9209644610045871
    Molecular point group: c1
  Basis Set: CC-PVTZ
  Basis Set:

  -Total Gradient:
     Atom            X                  Y                   Z
    ------   -----------------  -----------------  -----------------
       1        0.000173637184     0.000074947069     0.003776460363
       2        0.000881205430     0.001181349697    -0.004078235864
       3        0.000164561733    -0.000478478131    -0.000515810396
       4       -0.002839321115    -0.002945133377    -0.001685567815
       5       -0.000141393917     0.000081486197    -0.000055007198
       6        0.000007327606     0.000024600752     0.000247308298
       7        0.000066060006     0.000113189399     0.000042128033
       8        0.001631806440     0.001983426783     0.002265761432
       9       -0.000030705239    -0.000010417274    -0.000019273391
      10        0.000016091482    -0.000013823340     0.000050064070
      11        0.000070730390    -0.000011147773    -0.000027827533

  **** Optimization is complete! (in 20 steps) ****
    Final optimized geometry and variables:
    Molecular point group: c1

    Geometry (in Angstrom), charge = 0, multiplicity = 1:

    O            0.009986633342     1.624027549740    -0.193667081029
    C           -0.188236144763     0.464761329651    -0.192010906857
    C           -1.567792240682    -0.143235263845    -0.213266084989
    O            0.838411040344    -0.397529793499    -0.198938558758
    H           -1.637583991219    -0.893534409780    -0.990320584808
    H           -2.290442995932     0.638034559784    -0.381768107743
    H           -1.783688965743    -0.621311903388     0.734423839064
    C            0.875946746935    -1.448396812156     0.736494968563
    H            0.754397317081    -1.073599183002     1.745512739109
    H            1.850360308754    -1.899592280666     0.645786590521
    H            0.121252876031    -2.197949296513     0.533546228441

  Mulliken Charges: (a.u.)
   Center  Symbol    Alpha    Beta     Spin     Total
       1     O     4.16950  4.16950  0.00000 -0.33899
       2     C     2.80773  2.80773  0.00000  0.38454
       3     C     3.16019  3.16019  0.00000 -0.32038
       4     O     4.14423  4.14423  0.00000 -0.28845
       5     H     0.44203  0.44203  0.00000  0.11594
       6     H     0.42964  0.42964  0.00000  0.14072
       7     H     0.44964  0.44964  0.00000  0.10073
       8     C     3.04233  3.04233  0.00000 -0.08466
       9     H     0.45749  0.45749  0.00000  0.08501
      10     H     0.43579  0.43579  0.00000  0.12842
      11     H     0.46144  0.46144  0.00000  0.07712

   Total alpha = 20.00000, Total beta = 20.00000, Total charge = -0.00000
