  ==> Input File <==

--------------------------------------------------------------------------
set {
	reference rhf
	basis cc-pvtz
}

set_num_threads( 4 )
memory 2 gb

molecule MOL {
0 1

O	 -1.510770	 1.240811	 -0.054933
C	 -1.081510	 0.147522	 0.122720
C	 0.327029	 -0.064006	 0.641890
C	 -1.903028	 -1.084121	 -0.174656
C	 1.349460	 -0.017068	 -0.500215
H	 0.399029	 -1.014606	 1.159950
H	 0.538021	 0.726928	 1.350471
C	 1.479674	 1.374832	 -1.108000
H	 2.319804	 -0.343480	 -0.137275
H	 1.048622	 -0.725207	 -1.263342
H	 2.198652	 1.377726	 -1.918612
H	 1.809708	 2.097381	 -0.369249
H	 0.530271	 1.716709	 -1.505019
H	 -1.341891	 -1.779207	 -0.789259
H	 -2.820449	 -0.808163	 -0.671328
H	 -2.133314	 -1.593056	 0.755831

	symmetry c1
}
set optking {
	frozen_dihedral = ("
		9 5 3 2
	")
}

ee = optimize('scf')
oeprop('DIPOLE', 'QUADRUPOLE', 'MULLIKEN_CHARGES')
f=open( 'psi4out.xyz', 'w' )
f.write( "16  " )
f.write( str(ee) + "\n" )
f.write( MOL.save_string_xyz() )
f.close()
--------------------------------------------------------------------------

    Molecular point group: c1
  Charge       = 0
  Multiplicity = 1
  Basis Set: CC-PVTZ
  Basis Set:
  @DF-RHF Final Energy:  -270.12744088564000
    Total Energy =                       -270.1274408856400555
    Molecular point group: c1
  Basis Set: CC-PVTZ
  Basis Set:
  Basis Set: CC-PVTZ
  Basis Set:
  @DF-RHF Final Energy:  -270.12799068963869
    Total Energy =                       -270.1279906896386933
  Basis Set: CC-PVTZ
  Basis Set:
  Basis Set: CC-PVTZ
  Basis Set:
  @DF-RHF Final Energy:  -270.12774523046278
    Total Energy =                       -270.1277452304626649
  Basis Set: CC-PVTZ
  Basis Set:
  Basis Set: CC-PVTZ
  Basis Set:
  @DF-RHF Final Energy:  -270.12818676381312
    Total Energy =                       -270.1281867638131189
  Basis Set: CC-PVTZ
  Basis Set:
  Basis Set: CC-PVTZ
  Basis Set:
  @DF-RHF Final Energy:  -270.12824959601585
    Total Energy =                       -270.1282495960157348
  Basis Set: CC-PVTZ
  Basis Set:
  Basis Set: CC-PVTZ
  Basis Set:
  @DF-RHF Final Energy:  -270.12826710612887
    Total Energy =                       -270.1282671061291580
  Basis Set: CC-PVTZ
  Basis Set:
  Basis Set: CC-PVTZ
  Basis Set:
  @DF-RHF Final Energy:  -270.12826827044154
    Total Energy =                       -270.1282682704419358
  Basis Set: CC-PVTZ
  Basis Set:
  Charge       = 0
  Multiplicity = 1
  Basis Set: CC-PVTZ
  Basis Set:

    Orbital Energies (a.u.)
    -----------------------

    Doubly Occupied:

       1A    -20.537992     2A    -11.319933     3A    -11.232892
       4A    -11.228969     5A    -11.227048     6A    -11.211028
       7A     -1.397768     8A     -1.082927     9A     -1.011866
      10A     -0.948792    11A     -0.832964    12A     -0.732924
      13A     -0.658777    14A     -0.647401    15A     -0.621693
      16A     -0.595240    17A     -0.586172    18A     -0.562833
      19A     -0.537881    20A     -0.510325    21A     -0.500806
      22A     -0.487756    23A     -0.474223    24A     -0.400094

  @DF-RHF Final Energy:  -270.12826853481363

   => Energetics <=

    Nuclear Repulsion Energy =            241.8669804982787070
    One-Electron Energy =                -845.2938903296308126
    Two-Electron Energy =                 333.2986412965383920
    DFT Exchange-Correlation Energy =       0.0000000000000000
    Empirical Dispersion Energy =           0.0000000000000000
    PCM Polarization Energy =               0.0000000000000000
    EFP Energy =                            0.0000000000000000
    Total Energy =                       -270.1282685348136852
    Molecular point group: c1
  Basis Set: CC-PVTZ
  Basis Set:

  -Total Gradient:
     Atom            X                  Y                   Z
    ------   -----------------  -----------------  -----------------
       1       -0.000005627377     0.000005688904     0.000005439187
       2       -0.000041168683    -0.000365434191    -0.000067198307
       3        0.000033186930     0.000396463222     0.000010433226
       4       -0.000020263378    -0.000001891918     0.000051386681
       5        0.000134737104     0.000444926607     0.000118678087
       6       -0.000006048584    -0.000000627398     0.000000987514
       7        0.000007028010    -0.000001450841    -0.000002991021
       8       -0.000020022454     0.000006907128    -0.000006740024
       9       -0.000115979071    -0.000468827533    -0.000094615164
      10       -0.000001833068    -0.000001640870     0.000004159236
      11        0.000005976592    -0.000005725977    -0.000005102851
      12        0.000001541223    -0.000004044453     0.000005566632
      13        0.000008705154    -0.000005788177     0.000006755168
      14        0.000008145831     0.000006268272    -0.000011666838
      15        0.000004406993     0.000008675983    -0.000003182885
      16        0.000007214779    -0.000013498759    -0.000011908642

  **** Optimization is complete! (in 8 steps) ****
    Final optimized geometry and variables:
    Molecular point group: c1

    Geometry (in Angstrom), charge = 0, multiplicity = 1:

    O           -1.382868594169     0.956093188997     0.373532719499
    C           -0.861718832664    -0.111702505714     0.361851416481
    C            0.570225173374    -0.300455022086     0.821885527832
    C           -1.604129383128    -1.342495356647    -0.106250854357
    C            1.574655597301    -0.302358154122    -0.342141867524
    H            0.647837197807    -1.241044185643     1.357352185542
    H            0.804401430434     0.502318033013     1.508708243145
    C            1.725103589908     1.049768233510    -1.032128130423
    H            2.535608267780    -0.617162181843     0.049152279133
    H            1.289589388678    -1.054808449695    -1.071180198057
    H            2.453347021726     0.988447837655    -1.832465853361
    H            2.061154147891     1.806230694121    -0.332000539690
    H            0.789004389976     1.390871340849    -1.455647181353
    H           -1.005566079656    -1.924725655261    -0.796406710146
    H           -2.534086204831    -1.056195681792    -0.572904490402
    H           -1.812969971939    -1.974756957800     0.750912089235

  Mulliken Charges: (a.u.)
   Center  Symbol    Alpha    Beta     Spin     Total
       1     O     4.17563  4.17563  0.00000 -0.35126
       2     C     2.85729  2.85729  0.00000  0.28543
       3     C     3.10526  3.10526  0.00000 -0.21052
       4     C     3.15463  3.15463  0.00000 -0.30925
       5     C     3.10026  3.10026  0.00000 -0.20052
       6     H     0.44299  0.44299  0.00000  0.11401
       7     H     0.43953  0.43953  0.00000  0.12094
       8     C     3.14117  3.14117  0.00000 -0.28234
       9     H     0.44482  0.44482  0.00000  0.11036
      10     H     0.45210  0.45210  0.00000  0.09581
      11     H     0.44965  0.44965  0.00000  0.10071
      12     H     0.45283  0.45283  0.00000  0.09434
      13     H     0.44808  0.44808  0.00000  0.10384
      14     H     0.45108  0.45108  0.00000  0.09785
      15     H     0.43623  0.43623  0.00000  0.12753
      16     H     0.44846  0.44846  0.00000  0.10308

   Total alpha = 24.00000, Total beta = 24.00000, Total charge = -0.00000
