                              Psi4 1.0.54 Driver

  ==> Input File <==

--------------------------------------------------------------------------
set {
	reference rhf
	basis cc-pvtz
}

set_num_threads( 4 )
memory 2 gb

molecule MOL {
0 1

H	 -3.258660	 -0.290394	 1.471450
C	 -3.307964	 -0.275695	 0.374072
C	 -2.653809	 0.914422	 -0.273689
O	 -3.855140	 -1.148880	 -0.205112
C	 -3.570527	 2.140294	 -0.324096
H	 -1.730879	 1.127546	 0.249869
H	 -2.401047	 0.615320	 -1.288555
C	 -3.878122	 2.732328	 1.049608
H	 -3.099844	 2.895086	 -0.944648
H	 -4.499008	 1.874992	 -0.823829
C	 -4.783486	 3.959352	 0.982453
H	 -2.944560	 2.998009	 1.538466
H	 -4.342686	 1.978325	 1.679755
C	 -5.079592	 4.556449	 2.356878
H	 -4.318378	 4.705039	 0.345295
H	 -5.720645	 3.687758	 0.501549
C	 -6.049280	 5.739463	 2.347716
H	 -4.146235	 4.863018	 2.823402
H	 -5.492856	 3.777646	 2.991688
C	 -5.522358	 6.991788	 1.651211
H	 -6.292447	 5.990118	 3.375546
H	 -6.982896	 5.434100	 1.882505
H	 -4.585067	 7.316871	 2.091442
H	 -5.351711	 6.827481	 0.594060
H	 -6.229447	 7.808261	 1.742653

	symmetry c1
}
set optking {
	frozen_dihedral = ("
		6 3 2 4
	")
}

ee,wfn = optimize('scf', return_wfn=True)
oeprop( wfn, 'DIPOLE', 'QUADRUPOLE', 'MULLIKEN_CHARGES')
f=open( 'psi4out.xyz', 'w' )
f.write( "25  " )
f.write( str(ee) + "\n" )
f.write( MOL.save_string_xyz() )
f.close()
--------------------------------------------------------------------------

    Molecular point group: c1
  Charge       = 0
  Multiplicity = 1
  Basis Set: CC-PVTZ
  Basis Set:
  @DF-RHF Final Energy:  -387.25817009853790
    Total Energy =                       -387.2581700985379030
    Molecular point group: c1
  Basis Set: CC-PVTZ
  Basis Set:
  Basis Set: CC-PVTZ
  Basis Set:
  @DF-RHF Final Energy:  -387.25856899259901
    Total Energy =                       -387.2585689925990664
  Basis Set: CC-PVTZ
  Basis Set:
  Basis Set: CC-PVTZ
  Basis Set:
  @DF-RHF Final Energy:  -387.25850616504283
    Total Energy =                       -387.2585061650427178
  Basis Set: CC-PVTZ
  Basis Set:
  Basis Set: CC-PVTZ
  Basis Set:
  @DF-RHF Final Energy:  -387.25861967506540
    Total Energy =                       -387.2586196750654608
  Basis Set: CC-PVTZ
  Basis Set:
  Basis Set: CC-PVTZ
  Basis Set:
  @DF-RHF Final Energy:  -387.25862142024641
    Total Energy =                       -387.2586214202459587
  Basis Set: CC-PVTZ
  Basis Set:
  Charge       = 0
  Multiplicity = 1
  Basis Set: CC-PVTZ
  Basis Set:

    Orbital Energies (a.u.)
    -----------------------

    Doubly Occupied:

       1A    -20.551174     2A    -11.319866     3A    -11.233072
       4A    -11.232477     5A    -11.224687     6A    -11.218902
       7A    -11.217486     8A    -11.216792     9A    -11.209738
      10A     -1.405638    11A     -1.105374    12A     -1.070484
      13A     -1.014609    14A     -0.943969    15A     -0.877741
      16A     -0.828046    17A     -0.783941    18A     -0.776151
      19A     -0.684298    20A     -0.659455    21A     -0.634895
      22A     -0.621883    23A     -0.599464    24A     -0.594030
      25A     -0.579795    26A     -0.553933    27A     -0.541567
      28A     -0.523375    29A     -0.511238    30A     -0.500014
      31A     -0.490158    32A     -0.480515    33A     -0.466693
      34A     -0.460890    35A     -0.444130    36A     -0.409951

  @DF-RHF Final Energy:  -387.25862163261985

   => Energetics <=

    Nuclear Repulsion Energy =            438.8797990383964702
    One-Electron Energy =               -1394.3039692047480003
    Two-Electron Energy =                 568.1655485337314531
    DFT Exchange-Correlation Energy =       0.0000000000000000
    Empirical Dispersion Energy =           0.0000000000000000
    PCM Polarization Energy =               0.0000000000000000
    EFP Energy =                            0.0000000000000000
    Total Energy =                       -387.2586216326201338
    Molecular point group: c1
  Basis Set: CC-PVTZ
  Basis Set:

  -Total Gradient:
     Atom            X                  Y                   Z
    ------   -----------------  -----------------  -----------------
       1       -0.000006788647    -0.000009688233    -0.000078374783
       2        0.000326409635    -0.000145653350     0.000127784735
       3        0.000061058540    -0.000150430417    -0.000178910094
       4       -0.000239456220     0.000147164728     0.000015155671
       5        0.000029717045    -0.000006136805    -0.000013407393
       6       -0.000173431518     0.000157838999     0.000163856663
       7        0.000016442564     0.000001478787    -0.000056935052
       8        0.000011268344    -0.000007838275    -0.000001114055
       9       -0.000001584134    -0.000002027810    -0.000015746874
      10        0.000000011986    -0.000003739602     0.000003527533
      11       -0.000001660949     0.000011320036     0.000012259462
      12       -0.000009602777     0.000003497520     0.000009353535
      13        0.000001502574    -0.000007197504     0.000005510686
      14       -0.000011586569     0.000011869591     0.000005633485
      15        0.000002422894    -0.000003740223     0.000002203248
      16       -0.000003892536    -0.000002975451    -0.000001207421
      17       -0.000001818203     0.000000032584     0.000004170298
      18        0.000003980645    -0.000002292055    -0.000000081852
      19       -0.000000334954     0.000000639458    -0.000001257012
      20        0.000000711924     0.000002896771    -0.000002323786
      21       -0.000001345053    -0.000001063973     0.000000673215
      22       -0.000004390533    -0.000000803136     0.000000502742
      23        0.000002740900     0.000001977873    -0.000000507606
      24       -0.000000026523     0.000002499927     0.000000118924
      25       -0.000000348434     0.000002370550    -0.000000884273

  **** Optimization is complete! (in 6 steps) ****
    Final optimized geometry and variables:
    Molecular point group: c1

    Geometry (in Angstrom), charge = 0, multiplicity = 1:

    H            1.097736974760    -3.113013036997     0.607442406643
    C            1.043952254350    -3.119984272444    -0.486941330554
    C            1.640060037653    -1.929174780042    -1.191446160391
    O            0.524564377804    -4.025247449522    -1.044333394952
    C            0.692344075665    -0.719337774315    -1.205934759363
    H            2.567160876527    -1.657884258814    -0.694540274918
    H            1.866648944464    -2.227825762412    -2.206374489378
    C            0.383497089948    -0.129456603173     0.169331581300
    H            1.144893017366     0.046857286444    -1.826519162657
    H           -0.231805074027    -1.006228778162    -1.697584903401
    C           -0.494727882419     1.117126800215     0.093663391626
    H            1.315661523306     0.118029342489     0.671851799082
    H           -0.110995672893    -0.870763363857     0.790776598914
    C           -0.806313006237     1.711052025148     1.466007278067
    H           -0.000951959540     1.856657788492    -0.528652120205
    H           -1.426690130986     0.867550715937    -0.408012545060
    C           -1.749723855099     2.915001168803     1.445123353315
    H            0.123450154165     1.994425182763     1.954315057086
    H           -1.250285490573     0.937357720035     2.086390815925
    C           -1.181151279165     4.160010907790     0.768559957450
    H           -2.008947303675     3.164028837384     2.469440420016
    H           -2.679519446511     2.632896807672     0.958353035300
    H           -0.245971232915     4.461194034815     1.229881062911
    H           -0.993070258854     3.999376503979    -0.286144030573
    H           -1.871764170310     4.991262637846     0.851954527715

  Mulliken Charges: (a.u.)
   Center  Symbol    Alpha    Beta     Spin     Total
       1     H     0.46066  0.46066  0.00000  0.07868
       2     C     2.90647  2.90647  0.00000  0.18705
       3     C     3.08984  3.08984  0.00000 -0.17968
       4     O     4.16754  4.16754  0.00000 -0.33507
       5     C     3.10476  3.10476  0.00000 -0.20952
       6     H     0.45014  0.45014  0.00000  0.09973
       7     H     0.43739  0.43739  0.00000  0.12523
       8     C     3.09624  3.09624  0.00000 -0.19247
       9     H     0.44625  0.44625  0.00000  0.10750
      10     H     0.44381  0.44381  0.00000  0.11237
      11     C     3.09232  3.09232  0.00000 -0.18464
      12     H     0.45294  0.45294  0.00000  0.09412
      13     H     0.45076  0.45076  0.00000  0.09849
      14     C     3.09548  3.09548  0.00000 -0.19096
      15     H     0.45104  0.45104  0.00000  0.09793
      16     H     0.45198  0.45198  0.00000  0.09605
      17     C     3.09077  3.09077  0.00000 -0.18155
      18     H     0.45396  0.45396  0.00000  0.09209
      19     H     0.44878  0.44878  0.00000  0.10244
      20     C     3.15275  3.15275  0.00000 -0.30550
      21     H     0.44783  0.44783  0.00000  0.10433
      22     H     0.45388  0.45388  0.00000  0.09225
      23     H     0.45492  0.45492  0.00000  0.09017
      24     H     0.45390  0.45390  0.00000  0.09220
      25     H     0.44561  0.44561  0.00000  0.10878

   Total alpha = 36.00000, Total beta = 36.00000, Total charge = -0.00000

*** Psi4 exiting successfully. Buy a developer a beer!
