                              Psi4 1.0.54 Driver

  ==> Input File <==

--------------------------------------------------------------------------
set {
	reference rhf
	basis cc-pvtz
}

set_num_threads( 4 )
memory 2 gb

molecule MOL {
0 1

H	 2.166533	 -2.452830	 1.015816
C	 1.723571	 -1.774850	 0.294073
C	 0.655275	 -0.919924	 0.962167
H	 1.288741	 -2.360590	 -0.506397
H	 2.523047	 -1.177879	 -0.126874
N	 0.000297	 0.000045	 0.046090
H	 -0.093469	 -1.582045	 1.374590
H	 1.086361	 -0.384189	 1.812510
C	 -1.359159	 0.315706	 0.454404
C	 0.794591	 1.191700	 -0.206060
C	 -2.416729	 -0.286720	 -0.460525
H	 -1.478729	 1.390261	 0.442008
H	 -1.539692	 0.003361	 1.486761
C	 0.528208	 1.813974	 -1.569971
H	 1.840463	 0.921345	 -0.160018
H	 0.640325	 1.937455	 0.578774
H	 -2.285276	 0.073129	 -1.473515
H	 -2.371743	 -1.368476	 -0.483209
H	 -3.408658	 -0.007405	 -0.121593
H	 0.745602	 1.101522	 -2.356139
H	 -0.501411	 2.130096	 -1.682789
H	 1.156132	 2.686984	 -1.712719

	symmetry c1
}
set optking {
	frozen_dihedral = ("
		3 6 9 11
	")
}

ee,wfn = optimize('scf', return_wfn=True)
oeprop( wfn, 'DIPOLE', 'QUADRUPOLE', 'MULLIKEN_CHARGES')
f=open( 'psi4out.xyz', 'w' )
f.write( "22  " )
f.write( str(ee) + "\n" )
f.write( MOL.save_string_xyz() )
f.close()
--------------------------------------------------------------------------

    Molecular point group: c1
  Charge       = 0
  Multiplicity = 1
  Basis Set: CC-PVTZ
  Basis Set:
  @DF-RHF Final Energy:  -290.47360182138408
    Total Energy =                       -290.4736018213843636
    Molecular point group: c1
  Basis Set: CC-PVTZ
  Basis Set:
  Basis Set: CC-PVTZ
  Basis Set:
  @DF-RHF Final Energy:  -290.47394958110033
    Total Energy =                       -290.4739495811003849
  Basis Set: CC-PVTZ
  Basis Set:
  Basis Set: CC-PVTZ
  Basis Set:
  @DF-RHF Final Energy:  -290.47431822925000
    Total Energy =                       -290.4743182292497750
  Basis Set: CC-PVTZ
  Basis Set:
  Basis Set: CC-PVTZ
  Basis Set:
  @DF-RHF Final Energy:  -290.47435131220544
    Total Energy =                       -290.4743513122051581
  Basis Set: CC-PVTZ
  Basis Set:
  Basis Set: CC-PVTZ
  Basis Set:
  @DF-RHF Final Energy:  -290.47436842160636
    Total Energy =                       -290.4743684216065276
  Basis Set: CC-PVTZ
  Basis Set:
  Basis Set: CC-PVTZ
  Basis Set:
  @DF-RHF Final Energy:  -290.47436976616115
    Total Energy =                       -290.4743697661608053
  Basis Set: CC-PVTZ
  Basis Set:
  Charge       = 0
  Multiplicity = 1
  Basis Set: CC-PVTZ
  Basis Set:

    Orbital Energies (a.u.)
    -----------------------

    Doubly Occupied:

       1A    -15.531946     2A    -11.239950     3A    -11.238404
       4A    -11.237988     5A    -11.204256     6A    -11.204025
       7A    -11.201350     8A     -1.224184     9A     -1.026395
      10A     -1.022116    11A     -0.957056    12A     -0.851905
      13A     -0.839672    14A     -0.774131    15A     -0.655390
      16A     -0.639882    17A     -0.617541    18A     -0.597325
      19A     -0.580860    20A     -0.554893    21A     -0.535976
      22A     -0.523182    23A     -0.516426    24A     -0.499178
      25A     -0.492699    26A     -0.482854    27A     -0.464846
      28A     -0.460233    29A     -0.341405

  @DF-RHF Final Energy:  -290.47436987701673

   => Energetics <=

    Nuclear Repulsion Energy =            337.9288485271165996
    One-Electron Energy =               -1061.7742972039650340
    Two-Electron Energy =                 433.3710787998320484
    DFT Exchange-Correlation Energy =       0.0000000000000000
    Empirical Dispersion Energy =           0.0000000000000000
    PCM Polarization Energy =               0.0000000000000000
    EFP Energy =                            0.0000000000000000
    Total Energy =                       -290.4743698770164428
    Molecular point group: c1
  Basis Set: CC-PVTZ
  Basis Set:

  -Total Gradient:
     Atom            X                  Y                   Z
    ------   -----------------  -----------------  -----------------
       1        0.000000310425     0.000003127237     0.000000567771
       2       -0.000004252284    -0.000006707811    -0.000018413782
       3        0.000572255425     0.001274942335     0.000871047856
       4        0.000002524702    -0.000001432407     0.000001893477
       5       -0.000004074675     0.000001399318     0.000003747621
       6       -0.000758441110    -0.001248976525    -0.001556244632
       7       -0.000000053195     0.000008960827    -0.000004201042
       8       -0.000001178771     0.000001285389     0.000009174108
       9        0.000131491061    -0.001294797564     0.001562530892
      10       -0.000020731276    -0.000017138952     0.000005191858
      11        0.000076088884     0.001287386652    -0.000888172054
      12       -0.000000934918    -0.000009605501     0.000005519232
      13       -0.000002875589    -0.000005734314     0.000009779832
      14       -0.000002035899    -0.000003872209     0.000003887805
      15        0.000004024772     0.000005519547    -0.000003460243
      16        0.000002576381     0.000004204344     0.000003191460
      17       -0.000001669216    -0.000000537283     0.000000396198
      18        0.000000120802     0.000000924728     0.000003523948
      19       -0.000000251183    -0.000002378483    -0.000003456821
      20        0.000001068538    -0.000004187225    -0.000003746262
      21        0.000001038926     0.000000722502     0.000001389915
      22        0.000004998199     0.000006895396    -0.000004147137

  **** Optimization is complete! (in 7 steps) ****
    Final optimized geometry and variables:
    Molecular point group: c1

    Geometry (in Angstrom), charge = 0, multiplicity = 1:

    H            2.143377567542    -2.535593070526     1.137671453375
    C            1.773164237861    -1.811505678654     0.419855122240
    C            0.652508978580    -0.990773329211     1.045008622528
    H            1.407281046704    -2.345130456905    -0.448790172890
    H            2.614301157423    -1.204227526916     0.111258513595
    N            0.019090998503    -0.063749126820     0.122485174812
    H           -0.107112722754    -1.682204604739     1.387219265407
    H            1.025145423790    -0.476325645093     1.936297026032
    C           -1.344495975374     0.283073214762     0.515799256162
    C            0.841773199483     1.095883388669    -0.171981761459
    C           -2.392656508665    -0.310003724252    -0.416486820607
    H           -1.458910479271     1.361428356426     0.532272300771
    H           -1.537133618199    -0.045742010242     1.532875646139
    C            0.456043882782     1.792037981130    -1.469853516563
    H            1.869202411476     0.772846085552    -0.259500700522
    H            0.816126509799     1.816207225013     0.651372179545
    H           -2.251199522349     0.046849628375    -1.428945110494
    H           -2.323428185949    -1.391717300626    -0.435367088554
    H           -3.393436511580    -0.040522751483    -0.093360915584
    H            0.529968073325     1.104074412309    -2.303242765498
    H           -0.556101762675     2.176797310178    -1.441857750507
    H            1.119336892773     2.629941077271    -1.655080230296

  Mulliken Charges: (a.u.)
   Center  Symbol    Alpha    Beta     Spin     Total
       1     H     0.45214  0.45214  0.00000  0.09573
       2     C     3.14430  3.14430  0.00000 -0.28859
       3     C     3.03941  3.03941  0.00000 -0.07882
       4     H     0.45118  0.45118  0.00000  0.09765
       5     H     0.45592  0.45592  0.00000  0.08817
       6     N     3.61915  3.61915  0.00000 -0.23829
       7     H     0.45294  0.45294  0.00000  0.09411
       8     H     0.46593  0.46593  0.00000  0.06814
       9     C     3.05627  3.05627  0.00000 -0.11253
      10     C     3.04327  3.04327  0.00000 -0.08654
      11     C     3.12862  3.12862  0.00000 -0.25723
      12     H     0.45308  0.45308  0.00000  0.09384
      13     H     0.45356  0.45356  0.00000  0.09288
      14     C     3.14800  3.14800  0.00000 -0.29600
      15     H     0.45078  0.45078  0.00000  0.09843
      16     H     0.46537  0.46537  0.00000  0.06926
      17     H     0.45286  0.45286  0.00000  0.09428
      18     H     0.45536  0.45536  0.00000  0.08928
      19     H     0.45730  0.45730  0.00000  0.08541
      20     H     0.45058  0.45058  0.00000  0.09884
      21     H     0.45450  0.45450  0.00000  0.09099
      22     H     0.44950  0.44950  0.00000  0.10101

   Total alpha = 29.00000, Total beta = 29.00000, Total charge = -0.00000

*** Psi4 exiting successfully. Buy a developer a beer!
