  ==> Input File <==

--------------------------------------------------------------------------
set {
	reference rhf
	basis 6-31G*
}

set_num_threads( 1 )
memory 2 gb

molecule MOL {
0 1

H	 -0.606252	 3.668397	 2.831104
O	 0.076668	 3.075932	 2.550904
C	 -0.456792	 2.125384	 1.665202
C	 0.663849	 1.194467	 1.237062
H	 -1.250879	 1.556302	 2.146739
H	 -0.888885	 2.614368	 0.793117
C	 0.198102	 0.111031	 0.262842
H	 1.089369	 0.739590	 2.127425
H	 1.450855	 1.791973	 0.785304
C	 1.331804	 -0.827780	 -0.158768
H	 -0.604831	 -0.460839	 0.721575
H	 -0.226265	 0.578356	 -0.624873
C	 2.723619	 -0.410569	 0.329459
H	 1.342964	 -0.912588	 -1.244120
H	 1.116806	 -1.824343	 0.220779
C	 3.243875	 0.895854	 -0.272975
H	 3.424222	 -1.207124	 0.091250
H	 2.714788	 -0.329854	 1.414619
H	 3.251977	 0.848779	 -1.358681
H	 2.637085	 1.747371	 0.016682
H	 4.259473	 1.094070	 0.055697

	symmetry c1
}
set optking {
	frozen_dihedral = ("
		2 3 4 8,
		8 4 7 10,
		16 13 10 14,
		1 2 3 5
	")
}

ee = energy('scf')
oeprop('DIPOLE', 'QUADRUPOLE', 'MULLIKEN_CHARGES')
f=open( 'psi4out.xyz', 'w' )
f.write( "21  " )
f.write( str(ee) + "\n" )
f.write( MOL.save_string_xyz() )
f.close()
--------------------------------------------------------------------------

    Molecular point group: c1

    Geometry (in Angstrom), charge = 0, multiplicity = 1:

       Center              X                  Y                   Z               Mass
    ------------   -----------------  -----------------  -----------------  -----------------
           H         -1.698552847945     2.725814573732     1.992801875709     1.007825032070
           O         -1.015632847945     2.133349573732     1.712601875709    15.994914619560
           C         -1.549092847945     1.182801573732     0.826899875709    12.000000000000
           C         -0.428451847945     0.251884573732     0.398759875709    12.000000000000
           H         -2.343179847945     0.613719573732     1.308436875709     1.007825032070
           H         -1.981185847945     1.671785573732    -0.045185124291     1.007825032070
           C         -0.894198847945    -0.831551426268    -0.575460124291    12.000000000000
           H         -0.002931847945    -0.202992426268     1.289122875709     1.007825032070
           H          0.358554152055     0.849390573732    -0.052998124291     1.007825032070
           C          0.239503152055    -1.770362426268    -0.997070124291    12.000000000000
           H         -1.697131847945    -1.403421426268    -0.116727124291     1.007825032070
           H         -1.318565847945    -0.364226426268    -1.463175124291     1.007825032070
           C          1.631318152055    -1.353151426268    -0.508843124291    12.000000000000
           H          0.250663152055    -1.855170426268    -2.082422124291     1.007825032070
           H          0.024505152055    -2.766925426268    -0.617523124291     1.007825032070
           C          2.151574152055    -0.046728426268    -1.111277124291    12.000000000000
           H          2.331921152055    -2.149706426268    -0.747052124291     1.007825032070
           H          1.622487152055    -1.272436426268     0.576316875709     1.007825032070
           H          2.159676152055    -0.093803426268    -2.196983124291     1.007825032070
           H          1.544784152055     0.804788573732    -0.821620124291     1.007825032070
           H          3.167172152055     0.151487573732    -0.782605124291     1.007825032070

  Charge       = 0
  Multiplicity = 1
  Basis Set: 6-31G*
  Basis Set:

    Orbital Energies (a.u.)
    -----------------------

    Doubly Occupied:

       1A    -20.550878     2A    -11.264570     3A    -11.214131
       4A    -11.212590     5A    -11.211882     6A    -11.204471
       7A    -11.202436     8A     -1.357495     9A     -1.091742
      10A     -1.022095    11A     -0.959854    12A     -0.875783
      13A     -0.817944    14A     -0.765729    15A     -0.688181
      16A     -0.662555    17A     -0.634329    18A     -0.615862
      19A     -0.576775    20A     -0.559203    21A     -0.545796
      22A     -0.531954    23A     -0.500448    24A     -0.491187
      25A     -0.480477    26A     -0.448700    27A     -0.444575
      28A     -0.440200    29A     -0.425722

  @DF-RHF Final Energy:  -310.18389129365556

   => Energetics <=

    Nuclear Repulsion Energy =            326.8199134480999533
    One-Electron Energy =               -1068.4122826899429128
    Two-Electron Energy =                 431.4084779481879650
    DFT Exchange-Correlation Energy =       0.0000000000000000
    Empirical Dispersion Energy =           0.0000000000000000
    PCM Polarization Energy =               0.0000000000000000
    EFP Energy =                            0.0000000000000000
    Total Energy =                       -310.1838912936550514

  Mulliken Charges: (a.u.)
   Center  Symbol    Alpha    Beta     Spin     Total
       1     H     0.28130  0.28130  0.00000  0.43740
       2     O     4.37238  4.37238  0.00000 -0.74476
       3     C     2.98614  2.98614  0.00000  0.02772
       4     C     3.16838  3.16838  0.00000 -0.33675
       5     H     0.43381  0.43381  0.00000  0.13239
       6     H     0.43419  0.43419  0.00000  0.13161
       7     C     3.16241  3.16241  0.00000 -0.32483
       8     H     0.41328  0.41328  0.00000  0.17344
       9     H     0.41479  0.41479  0.00000  0.17043
      10     C     3.15449  3.15449  0.00000 -0.30897
      11     H     0.41977  0.41977  0.00000  0.16046
      12     H     0.42149  0.42149  0.00000  0.15701
      13     C     3.16187  3.16187  0.00000 -0.32374
      14     H     0.42118  0.42118  0.00000  0.15764
      15     H     0.41975  0.41975  0.00000  0.16051
      16     C     3.24146  3.24146  0.00000 -0.48293
      17     H     0.41822  0.41822  0.00000  0.16357
      18     H     0.41850  0.41850  0.00000  0.16300
      19     H     0.42315  0.42315  0.00000  0.15370
      20     H     0.41476  0.41476  0.00000  0.17048
      21     H     0.41870  0.41870  0.00000  0.16261

   Total alpha = 29.00000, Total beta = 29.00000, Total charge = -0.00000
