  ==> Input File <==

--------------------------------------------------------------------------
set {
	reference rhf
	basis cc-pvtz
}

set_num_threads( 4 )
memory 2 gb

molecule MOL {
0 1

H	 -2.681610	 2.419562	 0.039736
O	 -1.995938	 1.825289	 -0.202932
C	 -2.302264	 0.528872	 0.237390
C	 -1.175688	 -0.398187	 -0.171891
H	 -2.421425	 0.512322	 1.318732
H	 -3.238729	 0.189471	 -0.200413
C	 0.196029	 0.106276	 0.266738
H	 -1.201873	 -0.515469	 -1.250677
H	 -1.365975	 -1.378728	 0.252664
C	 1.330220	 -0.826136	 -0.155230
H	 0.359542	 1.097229	 -0.145561
H	 0.212134	 0.218135	 1.348778
C	 2.719700	 -0.407669	 0.328325
H	 1.339388	 -0.911200	 -1.239363
H	 1.119001	 -1.821953	 0.224128
C	 3.241564	 0.893452	 -0.276737
H	 3.418299	 -1.204729	 0.093035
H	 2.711776	 -0.323368	 1.411960
H	 3.254204	 0.841071	 -1.360784
H	 2.634460	 1.745075	 0.005842
H	 4.254264	 1.092401	 0.054971

	symmetry c1
}
set optking {
	frozen_dihedral = ("
		2 3 4 8
	")
}

ee = optimize('scf')
oeprop('DIPOLE', 'QUADRUPOLE', 'MULLIKEN_CHARGES')
f=open( 'psi4out.xyz', 'w' )
f.write( "21  " )
f.write( str(ee) + "\n" )
f.write( MOL.save_string_xyz() )
f.close()
--------------------------------------------------------------------------

    Molecular point group: c1
  Charge       = 0
  Multiplicity = 1
  Basis Set: CC-PVTZ
  Basis Set:
  @DF-RHF Final Energy:  -310.33212045246302
    Total Energy =                       -310.3321204524631298
    Molecular point group: c1
  Basis Set: CC-PVTZ
  Basis Set:
  Basis Set: CC-PVTZ
  Basis Set:
  @DF-RHF Final Energy:  -310.33239274631222
    Total Energy =                       -310.3323927463120526
  Basis Set: CC-PVTZ
  Basis Set:
  Basis Set: CC-PVTZ
  Basis Set:
  @DF-RHF Final Energy:  -310.33247098089254
    Total Energy =                       -310.3324709808927651
  Basis Set: CC-PVTZ
  Basis Set:
  Basis Set: CC-PVTZ
  Basis Set:
  @DF-RHF Final Energy:  -310.33247205117760
    Total Energy =                       -310.3324720511776604
  Basis Set: CC-PVTZ
  Basis Set:
  Basis Set: CC-PVTZ
  Basis Set:
  @DF-RHF Final Energy:  -310.33247327719187
    Total Energy =                       -310.3324732771924914
  Basis Set: CC-PVTZ
  Basis Set:
  Charge       = 0
  Multiplicity = 1
  Basis Set: CC-PVTZ
  Basis Set:

    Orbital Energies (a.u.)
    -----------------------

    Doubly Occupied:

       1A    -20.546271     2A    -11.266087     3A    -11.210601
       4A    -11.208768     5A    -11.206562     6A    -11.203531
       7A    -11.200933     8A     -1.364261     9A     -1.081877
      10A     -1.030730    11A     -0.954044    12A     -0.875853
      13A     -0.801516    14A     -0.773389    15A     -0.706674
      16A     -0.646086    17A     -0.625225    18A     -0.601921
      19A     -0.588335    20A     -0.563671    21A     -0.540402
      22A     -0.519394    23A     -0.501031    24A     -0.495891
      25A     -0.477197    26A     -0.456613    27A     -0.451363
      28A     -0.441323    29A     -0.430972

  @DF-RHF Final Energy:  -310.33247373548238

   => Energetics <=

    Nuclear Repulsion Energy =            318.0774091983769267
    One-Electron Energy =               -1051.2787306543061732
    Two-Electron Energy =                 422.8688477204462970
    DFT Exchange-Correlation Energy =       0.0000000000000000
    Empirical Dispersion Energy =           0.0000000000000000
    PCM Polarization Energy =               0.0000000000000000
    EFP Energy =                            0.0000000000000000
    Total Energy =                       -310.3324737354829495
    Molecular point group: c1
  Basis Set: CC-PVTZ
  Basis Set:

  -Total Gradient:
     Atom            X                  Y                   Z
    ------   -----------------  -----------------  -----------------
       1        0.000000471863     0.000006760383     0.000000132009
       2        0.001049996076     0.000424412403     0.001944233211
       3       -0.001768810978    -0.001113742551    -0.002474753869
       4        0.002417678809     0.003014594710     0.000217399812
       5       -0.000004174767     0.000004159089    -0.000001808793
       6       -0.000005086425     0.000008061729    -0.000000436612
       7       -0.000016348176    -0.000017832327     0.000015721674
       8       -0.001697786757    -0.002335964209     0.000301452249
       9        0.000009683115    -0.000000742656     0.000000339418
      10        0.000011065270    -0.000001007234     0.000006688831
      11       -0.000001729687     0.000009646616    -0.000004536900
      12        0.000005701678     0.000002726730     0.000002924907
      13        0.000002223868    -0.000001130939    -0.000010964505
      14       -0.000000666855     0.000002622481     0.000003407600
      15        0.000006278578     0.000001113793     0.000001032296
      16       -0.000001791255    -0.000003149111     0.000000828542
      17        0.000002136926    -0.000002301405     0.000000251481
      18       -0.000006347579     0.000000950274    -0.000002992483
      19       -0.000001756728     0.000000284340    -0.000000169167
      20       -0.000001215343     0.000002872984     0.000001446019
      21        0.000000478367    -0.000002335100    -0.000000195720

  **** Optimization is complete! (in 6 steps) ****
    Final optimized geometry and variables:
    Molecular point group: c1

    Geometry (in Angstrom), charge = 0, multiplicity = 1:

    H           -3.026460755601     2.099385013442     0.055169021959
    O           -2.310003207062     1.544659133950    -0.191413734373
    C           -2.548692690537     0.229603160403     0.238468664373
    C           -1.397317649836    -0.662114820952    -0.188891910983
    H           -2.645036141770     0.204793825911     1.322401719333
    H           -3.476581446108    -0.148334281706    -0.182689212402
    C           -0.024379366720    -0.172390239670     0.260400858805
    H           -1.424890967381    -0.783276283731    -1.267889092481
    H           -1.584490268836    -1.650127788262     0.225786763428
    C            1.098671967593    -1.122036013062    -0.151849870651
    H            0.146765091654     0.814406946971    -0.147107625440
    H           -0.021930712145    -0.064006659315     1.343342346659
    C            2.491033770399    -0.714856468770     0.333499211553
    H            1.111859344418    -1.212616422241    -1.235794000773
    H            0.877802648524    -2.114856150774     0.231633051676
    C            3.028567266480     0.574703416296    -0.282259075327
    H            3.182481176453    -1.521588703279     0.109425570439
    H            2.479017219952    -0.619280725193     1.416196289914
    H            3.048192527753     0.509538256466    -1.365482781227
    H            2.426004154140     1.433871304514    -0.014440184617
    H            4.040802556718     0.768362546009     0.054415551072

  Mulliken Charges: (a.u.)
   Center  Symbol    Alpha    Beta     Spin     Total
       1     H     0.39609  0.39609  0.00000  0.20782
       2     O     4.19726  4.19726  0.00000 -0.39453
       3     C     2.97463  2.97463  0.00000  0.05075
       4     C     3.09198  3.09198  0.00000 -0.18395
       5     H     0.47315  0.47315  0.00000  0.05370
       6     H     0.46554  0.46554  0.00000  0.06892
       7     C     3.09093  3.09093  0.00000 -0.18186
       8     H     0.45277  0.45277  0.00000  0.09445
       9     H     0.45549  0.45549  0.00000  0.08901
      10     C     3.09462  3.09462  0.00000 -0.18924
      11     H     0.44015  0.44015  0.00000  0.11971
      12     H     0.45887  0.45887  0.00000  0.08226
      13     C     3.08956  3.08956  0.00000 -0.17911
      14     H     0.45445  0.45445  0.00000  0.09111
      15     H     0.45177  0.45177  0.00000  0.09647
      16     C     3.15194  3.15194  0.00000 -0.30388
      17     H     0.44963  0.44963  0.00000  0.10073
      18     H     0.45573  0.45573  0.00000  0.08853
      19     H     0.45529  0.45529  0.00000  0.08942
      20     H     0.45229  0.45229  0.00000  0.09541
      21     H     0.44786  0.44786  0.00000  0.10427

   Total alpha = 29.00000, Total beta = 29.00000, Total charge = -0.00000
