  ==> Input File <==

--------------------------------------------------------------------------
set {
	reference rhf
	basis 6-31G*
}

set_num_threads( 4 )
memory 2 gb

molecule MOL {
0 1

H	 -4.236494	 0.538104	 0.039757
O	 -3.517110	 -0.026191	 -0.205115
C	 -2.306886	 0.532354	 0.237577
C	 -1.177863	 -0.397191	 -0.171080
H	 -2.156308	 1.517575	 -0.201710
H	 -2.315015	 0.655684	 1.319734
C	 0.198102	 0.111031	 0.262842
H	 -1.208843	 -0.518759	 -1.250427
H	 -1.368741	 -1.376554	 0.258909
C	 1.331804	 -0.827780	 -0.158768
H	 0.361943	 1.100838	 -0.156218
H	 0.217265	 0.229072	 1.345532
C	 2.723619	 -0.410569	 0.329459
H	 1.342964	 -0.912588	 -1.244120
H	 1.116806	 -1.824343	 0.220779
C	 2.748573	 0.204122	 1.730126
H	 3.132756	 0.310075	 -0.374364
H	 3.387872	 -1.272033	 0.300955
H	 2.083136	 1.061099	 1.791961
H	 2.444509	 -0.506405	 2.491619
H	 3.747955	 0.544147	 1.983843

	symmetry c1
}
set optking {
	frozen_dihedral = ("
		16 13 10 14
	")
}

ee = optimize('scf')
oeprop('DIPOLE', 'QUADRUPOLE', 'MULLIKEN_CHARGES')
f=open( 'psi4out.xyz', 'w' )
f.write( "21  " )
f.write( str(ee) + "\n" )
f.write( MOL.save_string_xyz() )
f.close()
--------------------------------------------------------------------------

    Molecular point group: c1
  Charge       = 0
  Multiplicity = 1
  Basis Set: 6-31G*
  Basis Set:
  @DF-RHF Final Energy:  -310.20837464260177
    Total Energy =                       -310.2083746426019957
    Molecular point group: c1
  Basis Set: 6-31G*
  Basis Set:
  Basis Set: 6-31G*
  Basis Set:
  @DF-RHF Final Energy:  -310.20925798487849
    Total Energy =                       -310.2092579848781497
  Basis Set: 6-31G*
  Basis Set:
  Basis Set: 6-31G*
  Basis Set:
  @DF-RHF Final Energy:  -310.21014944379147
    Total Energy =                       -310.2101494437915790
  Basis Set: 6-31G*
  Basis Set:
  Basis Set: 6-31G*
  Basis Set:
  @DF-RHF Final Energy:  -310.21020790811048
    Total Energy =                       -310.2102079081101920
  Basis Set: 6-31G*
  Basis Set:
  Basis Set: 6-31G*
  Basis Set:
  @DF-RHF Final Energy:  -310.21021100405380
    Total Energy =                       -310.2102110040533489
  Basis Set: 6-31G*
  Basis Set:
  Basis Set: 6-31G*
  Basis Set:
  @DF-RHF Final Energy:  -310.21021222054367
    Total Energy =                       -310.2102122205440082
  Basis Set: 6-31G*
  Basis Set:
  Charge       = 0
  Multiplicity = 1
  Basis Set: 6-31G*
  Basis Set:

    Orbital Energies (a.u.)
    -----------------------

    Doubly Occupied:

       1A    -20.551783     2A    -11.266972     3A    -11.215514
       4A    -11.215348     5A    -11.213829     6A    -11.210527
       7A    -11.208281     8A     -1.358593     9A     -1.085750
      10A     -1.032143    11A     -0.953728    12A     -0.878141
      13A     -0.808676    14A     -0.773948    15A     -0.692032
      16A     -0.662566    17A     -0.627656    18A     -0.600845
      19A     -0.585071    20A     -0.572680    21A     -0.534980
      22A     -0.523707    23A     -0.508060    24A     -0.485927
      25A     -0.482316    26A     -0.457239    27A     -0.454143
      28A     -0.443530    29A     -0.433907

  @DF-RHF Final Energy:  -310.21021238919542

   => Energetics <=

    Nuclear Repulsion Energy =            313.3355393019673443
    One-Electron Energy =               -1041.4157232022896551
    Two-Electron Energy =                 417.8699715111268347
    DFT Exchange-Correlation Energy =       0.0000000000000000
    Empirical Dispersion Energy =           0.0000000000000000
    PCM Polarization Energy =               0.0000000000000000
    EFP Energy =                            0.0000000000000000
    Total Energy =                       -310.2102123891954193
    Molecular point group: c1
  Basis Set: 6-31G*
  Basis Set:

  -Total Gradient:
     Atom            X                  Y                   Z
    ------   -----------------  -----------------  -----------------
       1       -0.000003255687    -0.000000128353    -0.000001663892
       2       -0.000003384307     0.000002097602     0.000004453393
       3        0.000008564621     0.000002033745    -0.000019274980
       4        0.000003358066     0.000015801402    -0.000000030107
       5       -0.000001195014     0.000003976170     0.000004004135
       6        0.000000071526    -0.000005016912    -0.000003422681
       7       -0.000029843528    -0.000002024107     0.000074528437
       8       -0.000006933781    -0.000004316702    -0.000005855645
       9        0.000000732694     0.000002103168     0.000002123722
      10        0.001688488253    -0.004613574661    -0.000334060409
      11        0.000003750852    -0.000013327428     0.000003324477
      12       -0.000012741945    -0.000000631945     0.000008678743
      13        0.000765343732    -0.004078083076     0.002192225825
      14       -0.001636431122     0.005076697786    -0.000361259168
      15        0.000033781971     0.000025785133     0.000004859762
      16       -0.000793043633     0.003597865318    -0.001557568582
      17       -0.000010522723    -0.000018094237    -0.000030570104
      18       -0.000006776706    -0.000001081743     0.000018722418
      19       -0.000009740054    -0.000000849979    -0.000015059900
      20        0.000016116391     0.000008502474     0.000010470214
      21       -0.000006339602     0.000002266345     0.000005374344

  **** Optimization is complete! (in 7 steps) ****
    Final optimized geometry and variables:
    Molecular point group: c1

    Geometry (in Angstrom), charge = 0, multiplicity = 1:

    H           -4.174109140709     0.664239020970    -0.367696019320
    O           -3.447327046733     0.110344578871    -0.614486800763
    C           -2.258447311799     0.618868965908    -0.066166414990
    C           -1.116822548791    -0.292307751604    -0.481197260071
    H           -2.075105776338     1.631906280454    -0.421858986592
    H           -2.325326685770     0.661847946305     1.020081217944
    C            0.238288867345     0.168099590042     0.058887189624
    H           -1.093395686838    -0.337779026671    -1.566488740026
    H           -1.337290326604    -1.297367957452    -0.131691445188
    C            1.378222288939    -0.770240725606    -0.354449189486
    H            0.449543426967     1.173499232807    -0.303481058614
    H            0.186486348915     0.236997445132     1.142367780548
    C            2.789755652709    -0.292980719648     0.030729470487
    H            1.336493133590    -0.859876850193    -1.437245999537
    H            1.192084795422    -1.757605371328     0.061121845436
    C            2.921736528921     0.342650445046     1.416410372393
    H            3.122235972929     0.436427155051    -0.705123275797
    H            3.475713600232    -1.131794198295    -0.049528768744
    H            2.356906816513     1.265085846840     1.490873126784
    H            2.572311147363    -0.324974181449     2.199930142076
    H            3.960513922778     0.578020116093     1.626817045107

  Mulliken Charges: (a.u.)
   Center  Symbol    Alpha    Beta     Spin     Total
       1     H     0.28119  0.28119  0.00000  0.43763
       2     O     4.37183  4.37183  0.00000 -0.74367
       3     C     2.98958  2.98958  0.00000  0.02084
       4     C     3.15894  3.15894  0.00000 -0.31788
       5     H     0.43298  0.43298  0.00000  0.13405
       6     H     0.43289  0.43289  0.00000  0.13422
       7     C     3.16394  3.16394  0.00000 -0.32788
       8     H     0.41494  0.41494  0.00000  0.17012
       9     H     0.41492  0.41492  0.00000  0.17015
      10     C     3.15152  3.15152  0.00000 -0.30303
      11     H     0.42422  0.42422  0.00000  0.15156
      12     H     0.42079  0.42079  0.00000  0.15842
      13     C     3.15226  3.15226  0.00000 -0.30453
      14     H     0.42090  0.42090  0.00000  0.15820
      15     H     0.42183  0.42183  0.00000  0.15633
      16     C     3.24263  3.24263  0.00000 -0.48525
      17     H     0.42327  0.42327  0.00000  0.15346
      18     H     0.42013  0.42013  0.00000  0.15973
      19     H     0.41963  0.41963  0.00000  0.16074
      20     H     0.42241  0.42241  0.00000  0.15518
      21     H     0.41919  0.41919  0.00000  0.16162

   Total alpha = 29.00000, Total beta = 29.00000, Total charge = -0.00000
