  ==> Input File <==

--------------------------------------------------------------------------
set {
	reference rhf
	basis cc-pvtz
}

set_num_threads( 4 )
memory 2 gb

molecule MOL {
0 1

H	 -3.162190	 0.493205	 -0.000107
C	 -2.363908	 -0.234727	 0.000005
O	 -1.158738	 0.454634	 -0.000087
H	 -2.464314	 -0.863616	 -0.882153
H	 -2.464327	 -0.863359	 0.882345
C	 -0.028611	 -0.359694	 0.000037
C	 0.781157	 -0.089597	 1.252122
H	 0.574080	 -0.162938	 -0.886917
H	 -0.323592	 -1.408602	 -0.037668
C	 2.040348	 -0.945836	 1.327224
H	 1.042979	 0.962497	 1.273893
H	 0.152460	 -0.273315	 2.116378
H	 2.696015	 -0.759644	 0.483115
H	 2.599109	 -0.732682	 2.230204
H	 1.799538	 -2.003693	 1.331533

	symmetry c1
}
set optking {
	frozen_dihedral = ("
		8 6 3 2
	")
}

ee = optimize('scf')
oeprop('DIPOLE', 'QUADRUPOLE', 'MULLIKEN_CHARGES')
f=open( 'psi4out.xyz', 'w' )
f.write( "15  " )
f.write( str(ee) + "\n" )
f.write( MOL.save_string_xyz() )
f.close()
--------------------------------------------------------------------------

    Molecular point group: c1
  Charge       = 0
  Multiplicity = 1
  Basis Set: CC-PVTZ
  Basis Set:
  @DF-RHF Final Energy:  -232.22389959260494
    Total Energy =                       -232.2238995926048233
    Molecular point group: c1
  Basis Set: CC-PVTZ
  Basis Set:
  Basis Set: CC-PVTZ
  Basis Set:
  @DF-RHF Final Energy:  -232.22430474416078
    Total Energy =                       -232.2243047441606905
  Basis Set: CC-PVTZ
  Basis Set:
  Basis Set: CC-PVTZ
  Basis Set:
  @DF-RHF Final Energy:  -232.22439898032275
    Total Energy =                       -232.2243989803226896
  Basis Set: CC-PVTZ
  Basis Set:
  Basis Set: CC-PVTZ
  Basis Set:
  @DF-RHF Final Energy:  -232.22440031116307
    Total Energy =                       -232.2244003111628672
  Basis Set: CC-PVTZ
  Basis Set:
  Charge       = 0
  Multiplicity = 1
  Basis Set: CC-PVTZ
  Basis Set:

    Orbital Energies (a.u.)
    -----------------------

    Doubly Occupied:

       1A    -20.544080     2A    -11.264022     3A    -11.262523
       4A    -11.212828     5A    -11.211002     6A     -1.376709
       7A     -1.057405     8A     -0.957262     9A     -0.879356
      10A     -0.808592    11A     -0.671304    12A     -0.654659
      13A     -0.637042    14A     -0.601100    15A     -0.568855
      16A     -0.538465    17A     -0.507032    18A     -0.494524
      19A     -0.482210    20A     -0.463150    21A     -0.407056

  @DF-RHF Final Energy:  -232.22440040919426

   => Energetics <=

    Nuclear Repulsion Energy =            190.3412005971896690
    One-Electron Energy =                -691.9328472024990333
    Two-Electron Energy =                 269.3672461961152749
    DFT Exchange-Correlation Energy =       0.0000000000000000
    Empirical Dispersion Energy =           0.0000000000000000
    PCM Polarization Energy =               0.0000000000000000
    EFP Energy =                            0.0000000000000000
    Total Energy =                       -232.2244004091941179
    Molecular point group: c1
  Basis Set: CC-PVTZ
  Basis Set:

  -Total Gradient:
     Atom            X                  Y                   Z
    ------   -----------------  -----------------  -----------------
       1        0.000006768546    -0.000001600292     0.000000923020
       2       -0.000019203792    -0.000016257453     0.000176041868
       3        0.000073486167     0.000040822760    -0.000225180966
       4       -0.000002263800     0.000000129137     0.000002181061
       5       -0.000000641491     0.000002137072    -0.000003774994
       6       -0.000172622905    -0.000159847212    -0.000054178686
       7       -0.000002418376    -0.000013336298    -0.000008200671
       8        0.000110077914     0.000151609180     0.000103591045
       9        0.000000533360    -0.000011098555     0.000001255550
      10        0.000002152777     0.000010693769     0.000003458668
      11        0.000000963564    -0.000002703515     0.000000411515
      12       -0.000002207227     0.000001710566     0.000001173792
      13        0.000000424184    -0.000003391131     0.000000298130
      14        0.000006015671    -0.000003081159     0.000002159091
      15       -0.000001064589     0.000004213132    -0.000000158422

  **** Optimization is complete! (in 5 steps) ****
    Final optimized geometry and variables:
    Molecular point group: c1

    Geometry (in Angstrom), charge = 0, multiplicity = 1:

    H           -2.990879534018     0.784209244247    -0.532292565016
    C           -2.217700761138     0.029208613656    -0.529221453792
    O           -0.990972332539     0.681577108435    -0.522600769744
    H           -2.337900320538    -0.593365398517    -1.412850624203
    H           -2.347368670547    -0.595145917345     0.351969620037
    C            0.143525298957    -0.137058090122    -0.481224588352
    C            0.965259867514     0.142885607614     0.765328218087
    H            0.739355267610     0.058421721134    -1.368177709079
    H           -0.140344149141    -1.186059230869    -0.510710490593
    C            2.244613665615    -0.684836017695     0.819263816364
    H            1.203545513521     1.200647551446     0.787663810318
    H            0.354980748007    -0.056771926451     1.640593827593
    H            2.881420618294    -0.481464257252    -0.035303861331
    H            2.813944895759    -0.462304861125     1.713497280522
    H            2.028133312174    -1.748234316640     0.823406199795

  Mulliken Charges: (a.u.)
   Center  Symbol    Alpha    Beta     Spin     Total
       1     H     0.44945  0.44945  0.00000  0.10110
       2     C     3.03132  3.03132  0.00000 -0.06264
       3     O     4.17988  4.17988  0.00000 -0.35976
       4     H     0.46949  0.46949  0.00000  0.06103
       5     H     0.47300  0.47300  0.00000  0.05400
       6     C     2.96846  2.96846  0.00000  0.06308
       7     C     3.07834  3.07834  0.00000 -0.15668
       8     H     0.45658  0.45658  0.00000  0.08684
       9     H     0.47429  0.47429  0.00000  0.05142
      10     C     3.15499  3.15499  0.00000 -0.30999
      11     H     0.45065  0.45065  0.00000  0.09870
      12     H     0.45596  0.45596  0.00000  0.08808
      13     H     0.45497  0.45497  0.00000  0.09006
      14     H     0.44662  0.44662  0.00000  0.10675
      15     H     0.45600  0.45600  0.00000  0.08800

   Total alpha = 21.00000, Total beta = 21.00000, Total charge = -0.00000
