  ==> Input File <==

--------------------------------------------------------------------------
set {
	reference rhf
	basis cc-pvtz
}

set_num_threads( 4 )
memory 2 gb

molecule MOL {
0 1

H	 1.951532	 1.167921	 -2.499158
C	 1.782550	 0.793532	 -1.495135
C	 0.305381	 0.486335	 -1.289942
H	 2.111074	 1.545051	 -0.787878
H	 2.405977	 -0.082144	 -1.363746
N	 0.000297	 0.000045	 0.046090
H	 -0.252170	 1.397522	 -1.457251
H	 -0.036113	 -0.220987	 -2.050868
C	 -1.359159	 0.315706	 0.454404
C	 0.314976	 -1.410300	 0.208657
C	 -2.416729	 -0.286720	 -0.460525
H	 -1.478729	 1.390261	 0.442008
H	 -1.539692	 0.003361	 1.486761
C	 0.656949	 -1.788219	 1.643463
H	 1.169346	 -1.643528	 -0.411599
H	 -0.503271	 -2.037772	 -0.155574
H	 -2.285276	 0.073129	 -1.473515
H	 -2.371743	 -1.368476	 -0.483209
H	 -3.408658	 -0.007405	 -0.121593
H	 1.511495	 -1.218881	 1.987722
H	 -0.164125	 -1.600360	 2.324142
H	 0.898546	 -2.843960	 1.705545

	symmetry c1
}
set optking {
	frozen_dihedral = ("
		3 6 9 11
	")
}

ee = optimize('scf')
oeprop('DIPOLE', 'QUADRUPOLE', 'MULLIKEN_CHARGES')
f=open( 'psi4out.xyz', 'w' )
f.write( "22  " )
f.write( str(ee) + "\n" )
f.write( MOL.save_string_xyz() )
f.close()
--------------------------------------------------------------------------

    Molecular point group: c1
  Charge       = 0
  Multiplicity = 1
  Basis Set: CC-PVTZ
  Basis Set:
  @DF-RHF Final Energy:  -290.47207014343223
    Total Energy =                       -290.4720701434322336
    Molecular point group: c1
  Basis Set: CC-PVTZ
  Basis Set:
  Basis Set: CC-PVTZ
  Basis Set:
  @DF-RHF Final Energy:  -290.47351347322518
    Total Energy =                       -290.4735134732253528
  Basis Set: CC-PVTZ
  Basis Set:
  Basis Set: CC-PVTZ
  Basis Set:
  @DF-RHF Final Energy:  -290.47469635279077
    Total Energy =                       -290.4746963527908861
  Basis Set: CC-PVTZ
  Basis Set:
  Basis Set: CC-PVTZ
  Basis Set:
  @DF-RHF Final Energy:  -290.47477680643556
    Total Energy =                       -290.4747768064354432
  Basis Set: CC-PVTZ
  Basis Set:
  @DF-RHF Final Energy:  -290.47480030827717
    Total Energy =                       -290.4748003082775085
  Basis Set: CC-PVTZ
  Basis Set:
  @DF-RHF Final Energy:  -290.47480607584862
    Total Energy =                       -290.4748060758486758
  Basis Set: CC-PVTZ
  Basis Set:
  Basis Set: CC-PVTZ
  Basis Set:
  @DF-RHF Final Energy:  -290.47481117501144
    Total Energy =                       -290.4748111750114958
  Basis Set: CC-PVTZ
  Basis Set:
  Basis Set: CC-PVTZ
  Basis Set:
  @DF-RHF Final Energy:  -290.47481664287687
    Total Energy =                       -290.4748166428771583
  Basis Set: CC-PVTZ
  Basis Set:
  Charge       = 0
  Multiplicity = 1
  Basis Set: CC-PVTZ
  Basis Set:

    Orbital Energies (a.u.)
    -----------------------

    Doubly Occupied:

       1A    -15.530991     2A    -11.238495     3A    -11.237814
       4A    -11.237431     5A    -11.204825     6A    -11.203497
       7A    -11.202712     8A     -1.223534     9A     -1.024366
      10A     -1.021565    11A     -0.956458    12A     -0.861522
      13A     -0.844876    14A     -0.758324    15A     -0.660004
      16A     -0.644577    17A     -0.617091    18A     -0.596657
      19A     -0.572920    20A     -0.551580    21A     -0.544170
      22A     -0.519899    23A     -0.513513    24A     -0.507030
      25A     -0.494224    26A     -0.483055    27A     -0.466542
      28A     -0.460657    29A     -0.338034

  @DF-RHF Final Energy:  -290.47481738383249

   => Energetics <=

    Nuclear Repulsion Energy =            338.8301658896011759
    One-Electron Energy =               -1063.5772351241016622
    Two-Electron Energy =                 434.2722518506683400
    DFT Exchange-Correlation Energy =       0.0000000000000000
    Empirical Dispersion Energy =           0.0000000000000000
    PCM Polarization Energy =               0.0000000000000000
    EFP Energy =                            0.0000000000000000
    Total Energy =                       -290.4748173838321463
    Molecular point group: c1
  Basis Set: CC-PVTZ
  Basis Set:

  -Total Gradient:
     Atom            X                  Y                   Z
    ------   -----------------  -----------------  -----------------
       1       -0.000002578699    -0.000001507118    -0.000002298702
       2       -0.000001970953    -0.000003980107     0.000006852030
       3       -0.000392194038    -0.000927055488    -0.000457526310
       4        0.000000570832     0.000001829875     0.000000357197
       5        0.000002024128     0.000006636260    -0.000005614359
       6        0.000612591850     0.001788821840     0.000342060739
       7        0.000008125574     0.000010521474    -0.000002174988
       8       -0.000002977739    -0.000003382061     0.000004377076
       9       -0.000294673622    -0.001711448112     0.000726787897
      10       -0.000026069118    -0.000041589568     0.000009393059
      11        0.000039168806     0.000883934736    -0.000618948278
      12        0.000022480135    -0.000009085999    -0.000013969230
      13        0.000012139314     0.000004250171    -0.000007929950
      14        0.000015374317    -0.000011711285    -0.000003002046
      15       -0.000005080424    -0.000000389788     0.000015130475
      16        0.000011628733     0.000001445153     0.000002924860
      17       -0.000004014851    -0.000001102401     0.000000190981
      18       -0.000003958162     0.000012382978    -0.000000004068
      19        0.000001840197     0.000005690155     0.000007681001
      20       -0.000000442497     0.000001031015    -0.000005945141
      21        0.000011147499     0.000000677284    -0.000006549447
      22       -0.000003131282    -0.000005969015     0.000008207203

  **** Optimization is complete! (in 9 steps) ****
    Final optimized geometry and variables:
    Molecular point group: c1

    Geometry (in Angstrom), charge = 0, multiplicity = 1:

    H            2.075089263177     1.482798926140    -2.362500929164
    C            1.899801534356     1.089228875702    -1.366762686989
    C            0.428755180381     0.730980063235    -1.195515971315
    H            2.189458296475     1.841262411621    -0.643256377487
    H            2.549633085915     0.232927740790    -1.236463307167
    N            0.113019100266     0.245699051657     0.136978435906
    H           -0.155101897412     1.626412985520    -1.371595423073
    H            0.135154405893     0.018005421849    -1.968945053788
    C           -1.232606668063     0.580713430221     0.572761544672
    C            0.490258248268    -1.142075001676     0.343824288799
    C           -2.394431654084     0.049705606783    -0.272390301833
    H           -1.301514194979     1.662595971378     0.609907207044
    H           -1.355069663877     0.241191817230     1.592171296695
    C            0.713990263534    -1.504120383309     1.806598742000
    H            1.417652455026    -1.313527269715    -0.184581990129
    H           -0.234142741348    -1.831627432018    -0.094542028633
    H           -2.354211141217     0.418759907419    -1.290057481936
    H           -2.412177097652    -1.032928044787    -0.310537965267
    H           -3.334791493883     0.376488211549     0.158231003334
    H            1.440002338901    -0.836322419142     2.253940285675
    H           -0.196197709106    -1.451796750220     2.390489303651
    H            1.087906453714    -2.519482526339     1.881940561687

  Mulliken Charges: (a.u.)
   Center  Symbol    Alpha    Beta     Spin     Total
       1     H     0.45348  0.45348  0.00000  0.09305
       2     C     3.14117  3.14117  0.00000 -0.28234
       3     C     3.04130  3.04130  0.00000 -0.08259
       4     H     0.45204  0.45204  0.00000  0.09592
       5     H     0.45648  0.45648  0.00000  0.08704
       6     N     3.61690  3.61690  0.00000 -0.23380
       7     H     0.45245  0.45245  0.00000  0.09510
       8     H     0.46297  0.46297  0.00000  0.07406
       9     C     3.05745  3.05745  0.00000 -0.11490
      10     C     3.04336  3.04336  0.00000 -0.08672
      11     C     3.15332  3.15332  0.00000 -0.30664
      12     H     0.44974  0.44974  0.00000  0.10051
      13     H     0.45028  0.45028  0.00000  0.09944
      14     C     3.14561  3.14561  0.00000 -0.29123
      15     H     0.44887  0.44887  0.00000  0.10227
      16     H     0.46399  0.46399  0.00000  0.07201
      17     H     0.45250  0.45250  0.00000  0.09499
      18     H     0.45286  0.45286  0.00000  0.09427
      19     H     0.44720  0.44720  0.00000  0.10560
      20     H     0.45025  0.45025  0.00000  0.09950
      21     H     0.45594  0.45594  0.00000  0.08813
      22     H     0.45183  0.45183  0.00000  0.09634

   Total alpha = 29.00000, Total beta = 29.00000, Total charge =  0.00000
