  ==> Input File <==

--------------------------------------------------------------------------
set {
	reference rhf
	basis 6-31G*
}

set_num_threads( 4 )
memory 2 gb

molecule MOL {
0 1

H	 1.364643	 1.156293	 1.425799
C	 0.463135	 1.272468	 0.840060
O	 0.000000	 0.000000	 0.521119
H	 -0.268054	 1.827871	 1.425364
H	 0.696071	 1.847898	 -0.054541
C	 -1.165642	 0.000000	 -0.238270
H	 -1.228672	 0.883184	 -0.872070
H	 -2.003012	 0.000000	 0.445920
H	 -1.228672	 -0.883184	 -0.872070

	symmetry c1
}
set optking {
	frozen_dihedral = ("
		2 3 6 7
	")
}

ee = optimize('scf')
oeprop('DIPOLE', 'QUADRUPOLE', 'MULLIKEN_CHARGES')
f=open( 'psi4out.xyz', 'w' )
f.write( "9  " )
f.write( str(ee) + "\n" )
f.write( MOL.save_string_xyz() )
f.close()
--------------------------------------------------------------------------

    Molecular point group: c1
  Charge       = 0
  Multiplicity = 1
  Basis Set: 6-31G*
  Basis Set:
  @DF-RHF Final Energy:  -154.06168149834775
    Total Energy =                       -154.0616814983476957
    Molecular point group: c1
  Basis Set: 6-31G*
  Basis Set:
  Basis Set: 6-31G*
  Basis Set:
  @DF-RHF Final Energy:  -154.06238077035130
    Total Energy =                       -154.0623807703513251
  Basis Set: 6-31G*
  Basis Set:
  Basis Set: 6-31G*
  Basis Set:
  @DF-RHF Final Energy:  -154.06254171403558
    Total Energy =                       -154.0625417140356035
  Basis Set: 6-31G*
  Basis Set:
  Charge       = 0
  Multiplicity = 1
  Basis Set: 6-31G*
  Basis Set:

    Orbital Energies (a.u.)
    -----------------------

    Doubly Occupied:

       1A    -20.554210     2A    -11.265531     3A    -11.264957
       4A     -1.376725     5A     -0.974906     6A     -0.873014
       7A     -0.658865     8A     -0.653885     9A     -0.644198
      10A     -0.555044    11A     -0.529108    12A     -0.474312
      13A     -0.414004

  @DF-RHF Final Energy:  -154.06254289542414

   => Energetics <=

    Nuclear Repulsion Energy =             84.6248392213809524
    One-Electron Energy =                -376.8972429764849039
    Two-Electron Energy =                 138.2098608596797931
    DFT Exchange-Correlation Energy =       0.0000000000000000
    Empirical Dispersion Energy =           0.0000000000000000
    PCM Polarization Energy =               0.0000000000000000
    EFP Energy =                            0.0000000000000000
    Total Energy =                       -154.0625428954241443
    Molecular point group: c1
  Basis Set: 6-31G*
  Basis Set:

  -Total Gradient:
     Atom            X                  Y                   Z
    ------   -----------------  -----------------  -----------------
       1       -0.000024148092    -0.000067509830    -0.000003720640
       2        0.001310645871     0.000121339959    -0.002258670029
       3       -0.002430584924     0.000331102431     0.003703628563
       4       -0.000003745057    -0.000051761794    -0.000003446956
       5       -0.000000114843     0.000010585215    -0.000003368240
       6        0.002491025934    -0.001945463886    -0.003853247346
       7       -0.001440500366     0.001594453818     0.002351066757
       8        0.000004690601    -0.000002240182     0.000026878107
       9        0.000092730877     0.000009494269     0.000040879785

  **** Optimization is complete! (in 4 steps) ****
    Final optimized geometry and variables:
    Molecular point group: c1

    Geometry (in Angstrom), charge = 0, multiplicity = 1:

    H            1.623476514365     0.702759666105     1.044085209450
    C            0.716028253891     0.834259164115     0.470805605776
    O            0.238712723793    -0.432279940872     0.147579272410
    H            0.001449174150     1.394647432517     1.071714364067
    H            0.944200595126     1.412779354738    -0.422251908877
    C           -0.934294651503    -0.439846359759    -0.606293306448
    H           -1.009487415479     0.438101537503    -1.243471249142
    H           -1.809711950095    -0.452624295477     0.040074747757
    H           -0.939610470447    -1.331273028043    -1.219112471387

  Mulliken Charges: (a.u.)
   Center  Symbol    Alpha    Beta     Spin     Total
       1     H     0.41226  0.41226  0.00000  0.17548
       2     C     3.07973  3.07973  0.00000 -0.15946
       3     O     4.29776  4.29776  0.00000 -0.59552
       4     H     0.43055  0.43055  0.00000  0.13889
       5     H     0.42956  0.42956  0.00000  0.14088
       6     C     3.07845  3.07845  0.00000 -0.15691
       7     H     0.43123  0.43123  0.00000  0.13753
       8     H     0.42650  0.42650  0.00000  0.14700
       9     H     0.41394  0.41394  0.00000  0.17212

   Total alpha = 13.00000, Total beta = 13.00000, Total charge = -0.00000
