  ==> Input File <==

--------------------------------------------------------------------------
set {
	reference rhf
	basis cc-pvtz
}

set_num_threads( 4 )
memory 2 gb

molecule MOL {
0 1

H	 -1.752232	 -2.214755	 -0.011938
C	 -1.343852	 -1.221619	 -0.018179
N	 -0.058800	 -1.097635	 -0.261688
C	 -2.148159	 -0.124236	 0.219734
C	 0.449026	 0.119242	 -0.273393
H	 -3.196988	 -0.237571	 0.417076
N	 -1.655094	 1.094230	 0.209506
C	 -0.370318	 1.215445	 -0.035100
C	 1.924033	 0.265863	 -0.538106
H	 0.033214	 2.210441	 -0.046812
C	 2.759792	 -0.795797	 0.178718
H	 2.084593	 0.188956	 -1.606782
H	 2.247026	 1.254750	 -0.234804
H	 3.809521	 -0.678777	 -0.062755
H	 2.450659	 -1.789101	 -0.119210
H	 2.651686	 -0.716710	 1.254639

	symmetry c1
}
set optking {
	frozen_dihedral = ("
		12 9 5 3
	")
}

ee = optimize('scf')
oeprop('DIPOLE', 'QUADRUPOLE', 'MULLIKEN_CHARGES')
f=open( 'psi4out.xyz', 'w' )
f.write( "16  " )
f.write( str(ee) + "\n" )
f.write( MOL.save_string_xyz() )
f.close()
--------------------------------------------------------------------------

    Molecular point group: c1
  Charge       = 0
  Multiplicity = 1
  Basis Set: CC-PVTZ
  Basis Set:
  @DF-RHF Final Energy:  -340.87139125519650
    Total Energy =                       -340.8713912551962721
    Molecular point group: c1
  Basis Set: CC-PVTZ
  Basis Set:
  Basis Set: CC-PVTZ
  Basis Set:
  @DF-RHF Final Energy:  -340.87160716282892
    Total Energy =                       -340.8716071628289228
  Basis Set: CC-PVTZ
  Basis Set:
  Basis Set: CC-PVTZ
  Basis Set:
  @DF-RHF Final Energy:  -340.87167468355261
    Total Energy =                       -340.8716746835526692
  Basis Set: CC-PVTZ
  Basis Set:
  Basis Set: CC-PVTZ
  Basis Set:
  @DF-RHF Final Energy:  -340.87168100752893
    Total Energy =                       -340.8716810075289914
  Basis Set: CC-PVTZ
  Basis Set:
  Basis Set: CC-PVTZ
  Basis Set:
  @DF-RHF Final Energy:  -340.87168323418149
    Total Energy =                       -340.8716832341816598
  Basis Set: CC-PVTZ
  Basis Set:
  Charge       = 0
  Multiplicity = 1
  Basis Set: CC-PVTZ
  Basis Set:

    Orbital Energies (a.u.)
    -----------------------

    Doubly Occupied:

       1A    -15.580631     2A    -15.575682     3A    -11.279190
       4A    -11.272494     5A    -11.268392     6A    -11.267684
       7A    -11.232537     8A    -11.212716     9A     -1.316209
      10A     -1.224223    11A     -1.085313    12A     -1.014956
      13A     -0.910008    14A     -0.892561    15A     -0.827198
      16A     -0.720194    17A     -0.710862    18A     -0.659303
      19A     -0.622575    20A     -0.603566    21A     -0.575666
      22A     -0.561885    23A     -0.523808    24A     -0.504962
      25A     -0.501345    26A     -0.488445    27A     -0.433789
      28A     -0.397375    29A     -0.346696

  @DF-RHF Final Energy:  -340.87168399541798

   => Energetics <=

    Nuclear Repulsion Energy =            350.4402025807301584
    One-Electron Energy =               -1155.4032479283346220
    Two-Electron Energy =                 464.0913613521865955
    DFT Exchange-Correlation Energy =       0.0000000000000000
    Empirical Dispersion Energy =           0.0000000000000000
    PCM Polarization Energy =               0.0000000000000000
    EFP Energy =                            0.0000000000000000
    Total Energy =                       -340.8716839954179250
    Molecular point group: c1
  Basis Set: CC-PVTZ
  Basis Set:

  -Total Gradient:
     Atom            X                  Y                   Z
    ------   -----------------  -----------------  -----------------
       1       -0.000021283645     0.000003098346     0.000003339766
       2        0.000158338127    -0.000077236261    -0.000017373268
       3        0.000071700261    -0.000151065581     0.000896108515
       4       -0.000020961711     0.000198771702     0.000008113371
       5       -0.000250805018     0.000524860913    -0.001273669502
       6       -0.000004726050    -0.000016412969    -0.000003376794
       7       -0.000186724667    -0.000128368046     0.000034366771
       8        0.000183580426    -0.000056593252    -0.000038826560
       9        0.000183197155    -0.001282640620     0.000478870912
      10       -0.000013187441    -0.000012513235    -0.000001536844
      11       -0.000006424589     0.000077609895    -0.000014508090
      12       -0.000122946776     0.000986613999    -0.000093252076
      13        0.000020598244    -0.000006115390     0.000004543935
      14        0.000010609914    -0.000025105937     0.000019515673
      15       -0.000007832354    -0.000018446991    -0.000019874596
      16        0.000006868127    -0.000016456574     0.000017558786

  **** Optimization is complete! (in 6 steps) ****
    Final optimized geometry and variables:
    Molecular point group: c1

    Geometry (in Angstrom), charge = 0, multiplicity = 1:

    H           -1.784708296110    -2.123354777024     0.048005870184
    C           -1.364768441395    -1.135165342289     0.041395904140
    N           -0.073287481551    -1.028788098448    -0.183830667061
    C           -2.157327689585    -0.028414262295     0.263240916314
    C            0.451031750638     0.178914125811    -0.194226011378
    H           -3.210178063679    -0.126568146660     0.446066350477
    N           -1.646125445797     1.184165624694     0.261318465999
    C           -0.357688153599     1.286792081670     0.037225094507
    C            1.926239707377     0.327638813870    -0.473667557013
    H            0.061414739513     2.275383361518     0.039863765451
    C            2.799915495983    -0.704437796472     0.233004074417
    H            2.076368274541     0.259788080412    -1.547366350037
    H            2.233844141961     1.327424042812    -0.189757032145
    H            3.842841615523    -0.540285088077    -0.010320451391
    H            2.532000450334    -1.707880423269    -0.064704897999
    H            2.690591287847    -0.634265590665     1.309233571650

  Mulliken Charges: (a.u.)
   Center  Symbol    Alpha    Beta     Spin     Total
       1     H     0.41443  0.41443  0.00000  0.17115
       2     C     3.04282  3.04282  0.00000 -0.08564
       3     N     3.59300  3.59300  0.00000 -0.18599
       4     C     3.04787  3.04787  0.00000 -0.09575
       5     C     2.94265  2.94265  0.00000  0.11470
       6     H     0.41368  0.41368  0.00000  0.17263
       7     N     3.58666  3.58666  0.00000 -0.17332
       8     C     3.07778  3.07778  0.00000 -0.15557
       9     C     3.07586  3.07586  0.00000 -0.15172
      10     H     0.41657  0.41657  0.00000  0.16687
      11     C     3.14472  3.14472  0.00000 -0.28944
      12     H     0.44760  0.44760  0.00000  0.10481
      13     H     0.44924  0.44924  0.00000  0.10152
      14     H     0.45021  0.45021  0.00000  0.09958
      15     H     0.44303  0.44303  0.00000  0.11394
      16     H     0.45388  0.45388  0.00000  0.09224

   Total alpha = 29.00000, Total beta = 29.00000, Total charge = -0.00000
