  ==> Input File <==

--------------------------------------------------------------------------
set {
	reference rhf
	basis cc-pvtz
}

set_num_threads( 4 )
memory 2 gb

molecule MOL {
0 1

H	 -2.440697	 -1.809171	 -0.004085
C	 -1.667441	 -1.070247	 -0.002355
C	 -1.963125	 0.330367	 -0.000184
C	 -0.381683	 -1.430607	 -0.002215
H	 -2.987307	 0.653179	 -0.000286
C	 -0.977437	 1.233135	 0.001946
H	 -0.081177	 -2.459604	 -0.003802
N	 0.640204	 -0.530428	 -0.000115
H	 -1.161186	 2.287742	 0.003613
C	 0.423274	 0.836600	 0.002239
C	 2.006991	 -1.033007	 -0.000020
O	 1.336088	 1.616990	 0.004196
H	 2.182444	 -1.636914	 -0.880881
H	 2.678769	 -0.195442	 -0.002236
H	 2.183828	 -1.633244	 0.883082

	symmetry c1
}
set optking {
	frozen_dihedral = ("
		10 8 11 13
	")
}

ee = optimize('scf')
oeprop('DIPOLE', 'QUADRUPOLE', 'MULLIKEN_CHARGES')
f=open( 'psi4out.xyz', 'w' )
f.write( "15  " )
f.write( str(ee) + "\n" )
f.write( MOL.save_string_xyz() )
f.close()
--------------------------------------------------------------------------

    Molecular point group: c1
  Charge       = 0
  Multiplicity = 1
  Basis Set: CC-PVTZ
  Basis Set:

    Orbital Energies (a.u.)
    -----------------------

    Doubly Occupied:

       1A    -20.501715     2A    -15.616411     3A    -11.339680
       4A    -11.293160     5A    -11.263341     6A    -11.258238
       7A    -11.230778     8A    -11.228402     9A     -1.390413
      10A     -1.285765    11A     -1.118842    12A     -1.028880
      13A     -0.972303    14A     -0.875744    15A     -0.838570
      16A     -0.719111    17A     -0.703202    18A     -0.663336
      19A     -0.652670    20A     -0.625126    21A     -0.611931
      22A     -0.573887    23A     -0.558536    24A     -0.550463
      25A     -0.529240    26A     -0.482650    27A     -0.420006
      28A     -0.410901    29A     -0.311075

  @DF-RHF Final Energy:  -360.72253142999381

   => Energetics <=

    Nuclear Repulsion Energy =            358.4346591037287340
    One-Electron Energy =               -1200.2056349617350861
    Two-Electron Energy =                 481.0484444280129992
    DFT Exchange-Correlation Energy =       0.0000000000000000
    Empirical Dispersion Energy =           0.0000000000000000
    PCM Polarization Energy =               0.0000000000000000
    EFP Energy =                            0.0000000000000000
    Total Energy =                       -360.7225314299932961
    Molecular point group: c1
  Basis Set: CC-PVTZ
  Basis Set:

  -Total Gradient:
     Atom            X                  Y                   Z
    ------   -----------------  -----------------  -----------------
       1       -0.000006107704     0.000020139177     0.000000422670
       2       -0.000036136351     0.000088163509    -0.000001467511
       3       -0.000020890946    -0.000173087354    -0.000002063637
       4       -0.000008332074     0.000004540473    -0.000003030063
       5        0.000002898269    -0.000012785498     0.000001016555
       6        0.000232481376     0.000082261809    -0.000007191672
       7        0.000006412102     0.000015443189     0.000000128578
       8       -0.000043802346     0.000014478569     0.000018192355
       9       -0.000015973687    -0.000054143626     0.000000509748
      10       -0.000310825290    -0.000132898473     0.000022045285
      11        0.000094405763     0.000007350069    -0.000003507809
      12        0.000167608669     0.000146462072    -0.000013206653
      13       -0.000007952978     0.000009259079     0.000011687591
      14       -0.000021501786    -0.000028388883    -0.000002745794
      15       -0.000032283015     0.000013205892    -0.000020789643

  **** Optimization is complete! (in 1 steps) ****
    Final optimized geometry and variables:
    Molecular point group: c1

    Geometry (in Angstrom), charge = 0, multiplicity = 1:

    H           -2.440696920318    -1.809170298699    -0.004578388249
    C           -1.667440920318    -1.070246298699    -0.002848388249
    C           -1.963124920318     0.330367701301    -0.000677388249
    C           -0.381682920318    -1.430606298699    -0.002708388249
    H           -2.987306920318     0.653179701301    -0.000779388249
    C           -0.977436920318     1.233135701301     0.001452611751
    H           -0.081176920318    -2.459603298699    -0.004295388249
    N            0.640204079682    -0.530427298699    -0.000608388249
    H           -1.161185920318     2.287742701301     0.003119611751
    C            0.423274079682     0.836600701301     0.001745611751
    C            2.006991079682    -1.033006298699    -0.000513388249
    O            1.336088079682     1.616990701301     0.003702611751
    H            2.182444079682    -1.636913298699    -0.881374388249
    H            2.678769079682    -0.195441298699    -0.002729388249
    H            2.183828079682    -1.633243298699     0.882588611751

  Mulliken Charges: (a.u.)
   Center  Symbol    Alpha    Beta     Spin     Total
       1     H     0.41415  0.41415  0.00000  0.17170
       2     C     3.10187  3.10187  0.00000 -0.20375
       3     C     3.06196  3.06196  0.00000 -0.12392
       4     C     3.03304  3.03304  0.00000 -0.06608
       5     H     0.41833  0.41833  0.00000  0.16334
       6     C     3.11587  3.11587  0.00000 -0.23174
       7     H     0.42020  0.42020  0.00000  0.15960
       8     N     3.51282  3.51282  0.00000 -0.02563
       9     H     0.40884  0.40884  0.00000  0.18232
      10     C     2.84560  2.84560  0.00000  0.30879
      11     C     3.11045  3.11045  0.00000 -0.22089
      12     O     4.23674  4.23674  0.00000 -0.47348
      13     H     0.44986  0.44986  0.00000  0.10028
      14     H     0.42051  0.42051  0.00000  0.15899
      15     H     0.44976  0.44976  0.00000  0.10048

   Total alpha = 29.00000, Total beta = 29.00000, Total charge =  0.00000
