  ==> Input File <==

--------------------------------------------------------------------------
set {
	reference rhf
	basis cc-pvtz
}

set_num_threads( 4 )
memory 2 gb

molecule MOL {
0 1

O	 -0.257369	 -0.459271	 1.868653
C	 -0.255557	 0.282767	 0.928390
C	 -1.270484	 1.404438	 0.847083
N	 0.622280	 0.144970	 -0.099307
H	 -1.885607	 1.316412	 -0.039608
H	 -1.895173	 1.337775	 1.722189
H	 -0.786961	 2.373334	 0.826593
C	 1.664396	 -0.854993	 0.000772
C	 0.810602	 1.130782	 -1.136835
H	 2.462727	 -0.615153	 -0.690869
H	 1.261798	 -1.821849	 -0.240651
H	 2.081615	 -0.891605	 1.003877
H	 1.074890	 0.630223	 -2.059455
H	 -0.088236	 1.694639	 -1.318639
H	 1.610482	 1.827020	 -0.894990

	symmetry c1
}
set optking {
	frozen_dihedral = ("
		2 4 8 10
	")
}

ee = optimize('scf')
oeprop('DIPOLE', 'QUADRUPOLE', 'MULLIKEN_CHARGES')
f=open( 'psi4out.xyz', 'w' )
f.write( "15  " )
f.write( str(ee) + "\n" )
f.write( MOL.save_string_xyz() )
f.close()
--------------------------------------------------------------------------

    Molecular point group: c1
  Charge       = 0
  Multiplicity = 1
  Basis Set: CC-PVTZ
  Basis Set:
  @DF-RHF Final Energy:  -286.13369986704771
    Total Energy =                       -286.1336998670478238
    Molecular point group: c1
  Basis Set: CC-PVTZ
  Basis Set:
  Basis Set: CC-PVTZ
  Basis Set:
  @DF-RHF Final Energy:  -286.13433864733577
    Total Energy =                       -286.1343386473359374
  Basis Set: CC-PVTZ
  Basis Set:
  Basis Set: CC-PVTZ
  Basis Set:
  @DF-RHF Final Energy:  -286.13445572690944
    Total Energy =                       -286.1344557269094366
  Basis Set: CC-PVTZ
  Basis Set:
  Basis Set: CC-PVTZ
  Basis Set:
  @DF-RHF Final Energy:  -286.13451644686245
    Total Energy =                       -286.1345164468624489
  Basis Set: CC-PVTZ
  Basis Set:
  @DF-RHF Final Energy:  -286.13476248852828
    Total Energy =                       -286.1347624885286223
  @DF-RHF Final Energy:  -286.13496855048527
    Total Energy =                       -286.1349685504854392
  @DF-RHF Final Energy:  -286.13508159601452
    Total Energy =                       -286.1350815960145155
  @DF-RHF Final Energy:  -286.13525921255587
    Total Energy =                       -286.1352592125559227
  @DF-RHF Final Energy:  -286.13540127640545
    Total Energy =                       -286.1354012764055597
  Basis Set: CC-PVTZ
  Basis Set:
  @DF-RHF Final Energy:  -286.13546349239550
    Total Energy =                       -286.1354634923951608
  Basis Set: CC-PVTZ
  Basis Set:
  Basis Set: CC-PVTZ
  Basis Set:
  @DF-RHF Final Energy:  -286.13546179481460
    Total Energy =                       -286.1354617948144323
  Basis Set: CC-PVTZ
  Basis Set:
  Basis Set: CC-PVTZ
  Basis Set:
  @DF-RHF Final Energy:  -286.13549076527528
    Total Energy =                       -286.1354907652755628
  Basis Set: CC-PVTZ
  Basis Set:
  Charge       = 0
  Multiplicity = 1
  Basis Set: CC-PVTZ
  Basis Set:

    Orbital Energies (a.u.)
    -----------------------

    Doubly Occupied:

       1A    -20.504987     2A    -15.577791     3A    -11.334251
       4A    -11.263983     5A    -11.246683     6A    -11.226625
       7A     -1.388440     8A     -1.245403     9A     -1.014920
      10A     -0.973220    11A     -0.919754    12A     -0.738607
      13A     -0.682741    14A     -0.661095    15A     -0.653833
      16A     -0.589727    17A     -0.578283    18A     -0.569150
      19A     -0.562881    20A     -0.547491    21A     -0.530657
      22A     -0.504914    23A     -0.414870    24A     -0.371326

  @DF-RHF Final Energy:  -286.13549115617610

   => Energetics <=

    Nuclear Repulsion Energy =            253.0657845825630261
    One-Electron Energy =                -890.1992857009961426
    Two-Electron Energy =                 350.9980099622576404
    DFT Exchange-Correlation Energy =       0.0000000000000000
    Empirical Dispersion Energy =           0.0000000000000000
    PCM Polarization Energy =               0.0000000000000000
    EFP Energy =                            0.0000000000000000
    Total Energy =                       -286.1354911561754193
    Molecular point group: c1
  Basis Set: CC-PVTZ
  Basis Set:

  -Total Gradient:
     Atom            X                  Y                   Z
    ------   -----------------  -----------------  -----------------
       1        0.000031634492     0.000028866192    -0.000062000955
       2       -0.000258466660    -0.000251845198    -0.000218299684
       3        0.000000947836    -0.000015207339    -0.000030277560
       4        0.000338432603     0.000321652032     0.000316196730
       5       -0.000020549121     0.000009766754     0.000003957455
       6        0.000001713494     0.000000393496    -0.000000283918
       7        0.000020038727    -0.000005862783    -0.000010759445
       8        0.000078858728     0.000122266805     0.000423568526
       9       -0.000025815598    -0.000065557169     0.000023996820
      10       -0.000179697963    -0.000164659619    -0.000451330195
      11        0.000002656876     0.000003931108    -0.000000375567
      12       -0.000001647023     0.000001171520     0.000006044353
      13       -0.000005530293     0.000006771048    -0.000026280993
      14        0.000002511438     0.000004018486     0.000012371557
      15        0.000014912462     0.000004294666     0.000013472873

  **** Optimization is complete! (in 13 steps) ****
    Final optimized geometry and variables:
    Molecular point group: c1

    Geometry (in Angstrom), charge = 0, multiplicity = 1:

    O           -0.560304436455    -0.839683881081     1.373398636858
    C           -0.487718466769    -0.000466664691     0.522276993085
    C           -1.546004199332     1.078149578523     0.424005918994
    N            0.545325849735     0.032036070484    -0.360464143595
    H           -2.096057239848     1.002429122867    -0.506158555270
    H           -2.225900691963     0.939537394335     1.248175300482
    H           -1.110811721390     2.067827384887     0.478455682911
    C            1.489868227668    -1.066495304834    -0.325814807214
    C            0.535276810325     0.814720872749    -1.574139431376
    H            2.410136408832    -0.753085713822    -0.799861216081
    H            1.112566640003    -1.939038947664    -0.852153214567
    H            1.690032025779    -1.347765879615     0.693509863497
    H            0.146408233996     0.251115140926    -2.419498374579
    H           -0.054779441412     1.708181877604    -1.462506931534
    H            1.546027777256     1.118120971723    -1.813179397016

  Mulliken Charges: (a.u.)
   Center  Symbol    Alpha    Beta     Spin     Total
       1     O     4.21901  4.21901  0.00000 -0.43803
       2     C     2.84488  2.84488  0.00000  0.31023
       3     C     3.16065  3.16065  0.00000 -0.32130
       4     N     3.56444  3.56444  0.00000 -0.12887
       5     H     0.44890  0.44890  0.00000  0.10220
       6     H     0.42873  0.42873  0.00000  0.14254
       7     H     0.44881  0.44881  0.00000  0.10238
       8     C     3.09399  3.09399  0.00000 -0.18798
       9     C     3.09602  3.09602  0.00000 -0.19205
      10     H     0.45765  0.45765  0.00000  0.08469
      11     H     0.45582  0.45582  0.00000  0.08835
      12     H     0.43128  0.43128  0.00000  0.13743
      13     H     0.45574  0.45574  0.00000  0.08851
      14     H     0.44546  0.44546  0.00000  0.10907
      15     H     0.44859  0.44859  0.00000  0.10282

   Total alpha = 24.00000, Total beta = 24.00000, Total charge = -0.00000
