  ==> Input File <==

--------------------------------------------------------------------------
set {
	reference rhf
	basis 6-31G*
}

set_num_threads( 4 )
memory 2 gb

molecule MOL {
0 1

H	 -2.646374	 -0.642757	 1.268656
C	 -2.083525	 -0.384536	 0.393091
O	 -0.807605	 -0.127164	 0.768327
F	 -2.118945	 -1.383102	 -0.486752
F	 -2.621877	 0.670592	 -0.209486
C	 -0.163208	 0.941706	 0.172543
C	 1.217870	 0.452395	 -0.243818
Cl	 -0.029713	 2.304339	 1.296208
H	 -0.676995	 1.291896	 -0.705616
F	 1.889162	 1.418564	 -0.833755
F	 1.076278	 -0.533696	 -1.106960
F	 1.915823	 0.014769	 0.775652

	symmetry c1
}
set optking {
	frozen_dihedral = ("
		6 3 2 4
	")
}

ee = optimize('scf')
oeprop('DIPOLE', 'QUADRUPOLE', 'MULLIKEN_CHARGES')
f=open( 'psi4out.xyz', 'w' )
f.write( "12  " )
f.write( str(ee) + "\n" )
f.write( MOL.save_string_xyz() )
f.close()
--------------------------------------------------------------------------

    Molecular point group: c1
  Charge       = 0
  Multiplicity = 1
  Basis Set: 6-31G*
  Basis Set:
  @DF-RHF Final Energy: -1146.30918843307927
    Total Energy =                      -1146.3091884330785888
    Molecular point group: c1
  Basis Set: 6-31G*
  Basis Set:
  Basis Set: 6-31G*
  Basis Set:
  @DF-RHF Final Energy: -1146.30923016381848
    Total Energy =                      -1146.3092301638184836
  Basis Set: 6-31G*
  Basis Set:
  Basis Set: 6-31G*
  Basis Set:
  @DF-RHF Final Energy: -1146.31056546154355
    Total Energy =                      -1146.3105654615444564
  Basis Set: 6-31G*
  Basis Set:
  Basis Set: 6-31G*
  Basis Set:
  @DF-RHF Final Energy: -1146.31069998213002
    Total Energy =                      -1146.3106999821311547
  Basis Set: 6-31G*
  Basis Set:
  @DF-RHF Final Energy: -1146.31078092964640
    Total Energy =                      -1146.3107809296457162
  Basis Set: 6-31G*
  Basis Set:
  @DF-RHF Final Energy: -1146.31081802392509
    Total Energy =                      -1146.3108180239253215
  Basis Set: 6-31G*
  Basis Set:
  Basis Set: 6-31G*
  Basis Set:
  @DF-RHF Final Energy: -1146.31081933691621
    Total Energy =                      -1146.3108193369166656
  Basis Set: 6-31G*
  Basis Set:
  Basis Set: 6-31G*
  Basis Set:
  @DF-RHF Final Energy: -1146.31082547188817
    Total Energy =                      -1146.3108254718886201
  Basis Set: 6-31G*
  Basis Set:
  Charge       = 0
  Multiplicity = 1
  Basis Set: 6-31G*
  Basis Set:

    Orbital Energies (a.u.)
    -----------------------

    Doubly Occupied:

       1A   -104.843668     2A    -26.359671     3A    -26.357944
       4A    -26.357265     5A    -26.355509     6A    -26.341123
       7A    -20.647323     8A    -11.527650     9A    -11.491109
      10A    -11.402335    11A    -10.578485    12A     -8.047819
      13A     -8.044339    14A     -8.044218    15A     -1.760790
      16A     -1.719900    17A     -1.657230    18A     -1.655725
      19A     -1.641364    20A     -1.483579    21A     -1.178455
      22A     -1.054453    23A     -0.986328    24A     -0.918865
      25A     -0.859305    26A     -0.849939    27A     -0.843846
      28A     -0.830633    29A     -0.812310    30A     -0.792785
      31A     -0.727050    32A     -0.725538    33A     -0.701661
      34A     -0.700661    35A     -0.680245    36A     -0.674018
      37A     -0.661281    38A     -0.657485    39A     -0.652650
      40A     -0.632604    41A     -0.598279    42A     -0.578021
      43A     -0.515537    44A     -0.478135    45A     -0.469801

  @DF-RHF Final Energy: -1146.31082650090138

   => Energetics <=

    Nuclear Repulsion Energy =            734.2215197121910251
    One-Electron Energy =               -3051.2708329469978707
    Two-Electron Energy =                1170.7384867339067114
    DFT Exchange-Correlation Energy =       0.0000000000000000
    Empirical Dispersion Energy =           0.0000000000000000
    PCM Polarization Energy =               0.0000000000000000
    EFP Energy =                            0.0000000000000000
    Total Energy =                      -1146.3108265009002480
    Molecular point group: c1
  Basis Set: 6-31G*
  Basis Set:

  -Total Gradient:
     Atom            X                  Y                   Z
    ------   -----------------  -----------------  -----------------
       1        0.000010562656     0.000017440487     0.000015550793
       2       -0.000383089714     0.003119779478    -0.001194682145
       3        0.000849998383    -0.002749962413    -0.002734444238
       4        0.000020643921    -0.001823859366     0.001724168338
       5        0.000033181941    -0.000016255091     0.000020748354
       6       -0.000556684459     0.001410425911     0.002153830673
       7        0.000008716548     0.000047582879     0.000024191511
       8        0.000005505062     0.000031468551     0.000010872055
       9        0.000016540187     0.000008093802     0.000011015770
      10       -0.000015064346    -0.000043019722     0.000011637549
      11        0.000005581630    -0.000019945512    -0.000046767033
      12        0.000004108194     0.000018250986     0.000003878325

  **** Optimization is complete! (in 9 steps) ****
    Final optimized geometry and variables:
    Molecular point group: c1

    Geometry (in Angstrom), charge = 0, multiplicity = 1:

    H           -2.405061274895    -1.257514791307     1.184002317327
    C           -1.953890834740    -0.907483005767     0.275450177200
    O           -0.623267463519    -0.705197073304     0.487980360199
    F           -2.117904876547    -1.817732818034    -0.675121416333
    F           -2.552573432007     0.206355253785    -0.130536757425
    C            0.018878011233     0.380117984039    -0.064106130668
    C            1.441571337530    -0.070065911420    -0.372254853304
    CL           0.033531160718     1.759846359548     1.055111577354
    H           -0.436593900318     0.714327550159    -0.979118564803
    F            2.126259087709     0.916667216197    -0.910591359365
    F            1.396279496764    -1.057485338135    -1.243417201609
    F            2.073372903241    -0.487131046404     0.697539634078

  Mulliken Charges: (a.u.)
   Center  Symbol    Alpha    Beta     Spin     Total
       1     H     0.40668  0.40668  0.00000  0.18664
       2     C     2.56336  2.56336  0.00000  0.87327
       3     O     4.30616  4.30616  0.00000 -0.61232
       4     F     4.67801  4.67801  0.00000 -0.35601
       5     F     4.68233  4.68233  0.00000 -0.36465
       6     C     3.03800  3.03800  0.00000 -0.07601
       7     C     2.43274  2.43274  0.00000  1.13453
       8    CL     8.50690  8.50690  0.00000 -0.01379
       9     H     0.36771  0.36771  0.00000  0.26458
      10     F     4.67443  4.67443  0.00000 -0.34886
      11     F     4.67553  4.67553  0.00000 -0.35105
      12     F     4.66816  4.66816  0.00000 -0.33632

   Total alpha = 45.00000, Total beta = 45.00000, Total charge = -0.00000
