                              Psi4 1.0.54 Driver

  ==> Input File <==

--------------------------------------------------------------------------
set {
	reference rhf
	basis cc-pvtz
}

set_num_threads( 4 )
memory 2 gb

molecule MOL {
0 1

H	 -2.240755	 0.557309	 0.605085
C	 -2.007097	 -0.206839	 -0.129167
O	 -0.775228	 0.000056	 -0.739966
H	 -2.753242	 -0.162216	 -0.909826
H	 -2.076221	 -1.178729	 0.348624
C	 0.406133	 -0.000384	 0.036994
C	 1.526415	 -0.003194	 -0.997339
C	 0.498772	 1.259027	 0.900673
C	 0.495883	 -1.257378	 0.904465
H	 1.452279	 0.872071	 -1.630204
H	 1.451276	 -0.881020	 -1.626529
H	 2.497919	 -0.002741	 -0.517601
H	 0.368981	 2.144239	 0.289753
H	 1.470064	 1.313479	 1.377660
H	 -0.248448	 1.271586	 1.684297
H	 0.363971	 -2.144195	 0.296316
H	 1.467114	 -1.312636	 1.381470
H	 -0.251246	 -1.265768	 1.688235

	symmetry c1
}
set optking {
	frozen_dihedral = ("
		2 3 6 7
	")
}

ee,wfn = optimize('scf', return_wfn=True)
oeprop( wfn, 'DIPOLE', 'QUADRUPOLE', 'MULLIKEN_CHARGES')
f=open( 'psi4out.xyz', 'w' )
f.write( "18  " )
f.write( str(ee) + "\n" )
f.write( MOL.save_string_xyz() )
f.close()
--------------------------------------------------------------------------

    Molecular point group: c1
  Charge       = 0
  Multiplicity = 1
  Basis Set: CC-PVTZ
  Basis Set:
  @DF-RHF Final Energy:  -271.27646186729322
    Total Energy =                       -271.2764618672932215
    Molecular point group: c1
  Basis Set: CC-PVTZ
  Basis Set:
  Basis Set: CC-PVTZ
  Basis Set:
  @DF-RHF Final Energy:  -271.27651289411313
    Total Energy =                       -271.2765128941135799
  Basis Set: CC-PVTZ
  Basis Set:
  Basis Set: CC-PVTZ
  Basis Set:
  @DF-RHF Final Energy:  -271.27663991173154
    Total Energy =                       -271.2766399117315359
  Basis Set: CC-PVTZ
  Basis Set:
  Basis Set: CC-PVTZ
  Basis Set:
  @DF-RHF Final Energy:  -271.27664674737969
    Total Energy =                       -271.2766467473796297
  Basis Set: CC-PVTZ
  Basis Set:
  Basis Set: CC-PVTZ
  Basis Set:
  @DF-RHF Final Energy:  -271.27665755913893
    Total Energy =                       -271.2766575591391529
  Basis Set: CC-PVTZ
  Basis Set:
  Basis Set: CC-PVTZ
  Basis Set:
  @DF-RHF Final Energy:  -271.27665856741311
    Total Energy =                       -271.2766585674132216
  Basis Set: CC-PVTZ
  Basis Set:
  Charge       = 0
  Multiplicity = 1
  Basis Set: CC-PVTZ
  Basis Set:

    Orbital Energies (a.u.)
    -----------------------

    Doubly Occupied:

       1A    -20.540479     2A    -11.280132     3A    -11.258258
       4A    -11.208310     5A    -11.205944     6A    -11.201855
       7A     -1.373534     8A     -1.074640     9A     -0.947396
      10A     -0.940287    11A     -0.913137    12A     -0.753465
      13A     -0.656784    14A     -0.646937    15A     -0.639590
      16A     -0.592922    17A     -0.575498    18A     -0.553211
      19A     -0.534643    20A     -0.525207    21A     -0.515190
      22A     -0.489671    23A     -0.487405    24A     -0.441092
      25A     -0.406950

  @DF-RHF Final Energy:  -271.27665918111416

   => Energetics <=

    Nuclear Repulsion Energy =            272.7007120549915271
    One-Electron Energy =                -908.4296704650544143
    Two-Electron Energy =                 364.4522992289486751
    DFT Exchange-Correlation Energy =       0.0000000000000000
    Empirical Dispersion Energy =           0.0000000000000000
    PCM Polarization Energy =               0.0000000000000000
    EFP Energy =                            0.0000000000000000
    Total Energy =                       -271.2766591811142121
    Molecular point group: c1
  Basis Set: CC-PVTZ
  Basis Set:

  -Total Gradient:
     Atom            X                  Y                   Z
    ------   -----------------  -----------------  -----------------
       1        0.000000197303    -0.000012348287    -0.000012142915
       2        0.000053096230    -0.000650211367    -0.000090328074
       3       -0.000079902610     0.000809823526     0.000128346336
       4        0.000016855399    -0.000005201428     0.000018460458
       5        0.000000406459     0.000023567678    -0.000007189752
       6        0.000038078707     0.000366457414    -0.000044602643
       7        0.000022131916    -0.000534418573     0.000016288730
       8       -0.000036000876     0.000002757679     0.000004769740
       9       -0.000014990873     0.000013711584    -0.000007701372
      10        0.000001175185     0.000000265403     0.000004343598
      11        0.000000620079     0.000002804949    -0.000006036439
      12       -0.000000925466    -0.000004722488    -0.000002099906
      13       -0.000009649006    -0.000003402021     0.000003839479
      14       -0.000001047155     0.000002630944    -0.000010992093
      15        0.000009838833    -0.000002693797     0.000002591770
      16       -0.000030786912    -0.000015047400    -0.000011129706
      17        0.000028141534    -0.000011027000    -0.000019319263
      18        0.000002761254     0.000017053184     0.000032902054

  **** Optimization is complete! (in 7 steps) ****
    Final optimized geometry and variables:
    Molecular point group: c1

    Geometry (in Angstrom), charge = 0, multiplicity = 1:

    H           -2.193976301245     0.524108301819     0.682002724620
    C           -2.007432302440    -0.168107275147    -0.133153604861
    O           -0.774006874933     0.038724702882    -0.741018269916
    H           -2.760658213074    -0.005085882616    -0.890915418844
    H           -2.117139152210    -1.180369155183     0.241696717883
    C            0.404958647409     0.033551570981     0.040328718480
    C            1.531761150244     0.032038293537    -0.986831242174
    C            0.480286523405     1.297115787386     0.899289379477
    C            0.499205899547    -1.219193600734     0.913136633967
    H            1.444457330769     0.893420863604    -1.636802870587
    H            1.478411990578    -0.858941111720    -1.599585955311
    H            2.499975864334     0.061798412096    -0.501259232444
    H            0.381815393998     2.177830757460     0.276730371600
    H            1.431880195056     1.347171712251     1.415460171230
    H           -0.299036421072     1.322454228043     1.650791166551
    H            0.367793796367    -2.111336918823     0.312339021953
    H            1.473537788870    -1.268424644919     1.383939941639
    H           -0.243698281018    -1.224364580239     1.701135565048

  Mulliken Charges: (a.u.)
   Center  Symbol    Alpha    Beta     Spin     Total
       1     H     0.47034  0.47034  0.00000  0.05932
       2     C     3.04445  3.04445  0.00000 -0.08891
       3     O     4.19058  4.19058  0.00000 -0.38116
       4     H     0.44102  0.44102  0.00000  0.11797
       5     H     0.46790  0.46790  0.00000  0.06421
       6     C     2.87388  2.87388  0.00000  0.25224
       7     C     3.14145  3.14145  0.00000 -0.28290
       8     C     3.15851  3.15851  0.00000 -0.31702
       9     C     3.16901  3.16901  0.00000 -0.33801
      10     H     0.44812  0.44812  0.00000  0.10377
      11     H     0.44970  0.44970  0.00000  0.10061
      12     H     0.45934  0.45934  0.00000  0.08132
      13     H     0.44642  0.44642  0.00000  0.10717
      14     H     0.45029  0.45029  0.00000  0.09942
      15     H     0.44952  0.44952  0.00000  0.10096
      16     H     0.44478  0.44478  0.00000  0.11044
      17     H     0.44656  0.44656  0.00000  0.10688
      18     H     0.44815  0.44815  0.00000  0.10370

   Total alpha = 25.00000, Total beta = 25.00000, Total charge = -0.00000

*** Psi4 exiting successfully. Buy a developer a beer!
