                              Psi4 1.0.54 Driver

  ==> Input File <==

--------------------------------------------------------------------------
set {
	reference rhf
	basis cc-pvtz
}

set_num_threads( 4 )
memory 2 gb

molecule MOL {
0 1

H	 0.052427	 -2.576505	 -0.164348
C	 -0.833020	 -1.939438	 -0.204087
N	 -0.537714	 -0.645117	 0.000000
O	 -1.917535	 -2.385459	 -0.408073
C	 -1.522613	 0.412524	 0.000000
H	 0.411899	 -0.414581	 0.158347
H	 -2.150256	 0.356137	 -0.880771
H	 -1.005621	 1.357208	 0.000000
H	 -2.150256	 0.356137	 0.880771

	symmetry c1
}
set optking {
	frozen_dihedral = ("
		6 3 5 7
	")
}

ee,wfn = optimize('scf', return_wfn=True)
oeprop( wfn, 'DIPOLE', 'QUADRUPOLE', 'MULLIKEN_CHARGES')
f=open( 'psi4out.xyz', 'w' )
f.write( "9  " )
f.write( str(ee) + "\n" )
f.write( MOL.save_string_xyz() )
f.close()
--------------------------------------------------------------------------

    Molecular point group: c1
  Charge       = 0
  Multiplicity = 1
  Basis Set: CC-PVTZ
  Basis Set:
  @DF-RHF Final Energy:  -208.04346536147460
    Total Energy =                       -208.0434653614746594
    Molecular point group: c1
  Basis Set: CC-PVTZ
  Basis Set:
  Basis Set: CC-PVTZ
  Basis Set:
  @DF-RHF Final Energy:  -208.04363809417805
    Total Energy =                       -208.0436380941780499
  Basis Set: CC-PVTZ
  Basis Set:
  Basis Set: CC-PVTZ
  Basis Set:
  @DF-RHF Final Energy:  -208.04364508849201
    Total Energy =                       -208.0436450884920703
  Basis Set: CC-PVTZ
  Basis Set:
  Basis Set: CC-PVTZ
  Basis Set:
  @DF-RHF Final Energy:  -208.04363681230652
    Total Energy =                       -208.0436368123065449
  Basis Set: CC-PVTZ
  Basis Set:
  Basis Set: CC-PVTZ
  Basis Set:
  @DF-RHF Final Energy:  -208.04366558427773
    Total Energy =                       -208.0436655842777611
  Basis Set: CC-PVTZ
  Basis Set:
  Basis Set: CC-PVTZ
  Basis Set:
  @DF-RHF Final Energy:  -208.04366824495526
    Total Energy =                       -208.0436682449551427
  Basis Set: CC-PVTZ
  Basis Set:
  Charge       = 0
  Multiplicity = 1
  Basis Set: CC-PVTZ
  Basis Set:

    Orbital Energies (a.u.)
    -----------------------

    Doubly Occupied:

       1A    -20.516620     2A    -15.584377     3A    -11.335971
       4A    -11.260531     5A     -1.393956     6A     -1.239332
       7A     -0.969797     8A     -0.809248     9A     -0.749154
      10A     -0.645811    11A     -0.629969    12A     -0.596150
      13A     -0.559538    14A     -0.536979    15A     -0.428246
      16A     -0.396758

  @DF-RHF Final Energy:  -208.04366999201696

   => Energetics <=

    Nuclear Repulsion Energy =            122.9369067363706733
    One-Electron Energy =                -526.6562759642006313
    Two-Electron Energy =                 195.6756992358130276
    DFT Exchange-Correlation Energy =       0.0000000000000000
    Empirical Dispersion Energy =           0.0000000000000000
    PCM Polarization Energy =               0.0000000000000000
    EFP Energy =                            0.0000000000000000
    Total Energy =                       -208.0436699920169019
    Molecular point group: c1
  Basis Set: CC-PVTZ
  Basis Set:

  -Total Gradient:
     Atom            X                  Y                   Z
    ------   -----------------  -----------------  -----------------
       1       -0.000008899991     0.000006961938    -0.000022151001
       2        0.000060403294     0.000030976676     0.000081306459
       3        0.000001184358    -0.000066492944     0.000033656428
       4       -0.000019918837     0.000004379108    -0.000032963191
       5       -0.000058285981     0.000047525677     0.000005648405
       6        0.000003410794    -0.000009997032    -0.000052112538
       7        0.000027492420     0.000013968270    -0.000018749083
       8       -0.000011388355    -0.000025782305     0.000003251997
       9        0.000006002300    -0.000001539391     0.000002112524

  **** Optimization is complete! (in 7 steps) ****
    Final optimized geometry and variables:
    Molecular point group: c1

    Geometry (in Angstrom), charge = 0, multiplicity = 1:

    H            1.237839431116    -1.481041364710    -0.015627932992
    C            0.369959640668    -0.819472030551    -0.042276061238
    N            0.694839350212     0.473710309191     0.104975820138
    O           -0.736446249638    -1.231979877731    -0.193409848972
    C           -0.301583921165     1.521604054132     0.124920276501
    H            1.644349804901     0.701949929397     0.261629318324
    H           -0.926416046169     1.465091076134    -0.754681973887
    H            0.200636485167     2.478018991645     0.137691914465
    H           -0.936952557702     1.446333373158     0.997942003819

  Mulliken Charges: (a.u.)
   Center  Symbol    Alpha    Beta     Spin     Total
       1     H     0.46442  0.46442  0.00000  0.07116
       2     C     2.87951  2.87951  0.00000  0.24098
       3     N     3.60564  3.60564  0.00000 -0.21129
       4     O     4.21437  4.21437  0.00000 -0.42874
       5     C     3.07509  3.07509  0.00000 -0.15018
       6     H     0.41004  0.41004  0.00000  0.17992
       7     H     0.44524  0.44524  0.00000  0.10953
       8     H     0.45454  0.45454  0.00000  0.09091
       9     H     0.45114  0.45114  0.00000  0.09771

   Total alpha = 16.00000, Total beta = 16.00000, Total charge =  0.00000

*** Psi4 exiting successfully. Buy a developer a beer!
