  ==> Input File <==

--------------------------------------------------------------------------
set {
	reference rhf
	basis 6-31G*
}

set_num_threads( 4 )
memory 2 gb

molecule MOL {
0 1

H	 -0.821032	 -1.655889	 0.000000
O	 -1.037828	 -0.728600	 0.000000
C	 0.100509	 -0.036935	 0.000000
C	 0.023743	 1.166001	 0.896078
O	 1.042496	 -0.363310	 -0.644486
H	 -0.781616	 1.813375	 0.568938
H	 0.962529	 1.698047	 0.868563
H	 -0.197474	 0.851998	 1.909577

	symmetry c1
}
set optking {
	frozen_dihedral = ("
		4 3 2 1
	")
}

ee = optimize('scf')
oeprop('DIPOLE', 'QUADRUPOLE', 'MULLIKEN_CHARGES')
f=open( 'psi4out.xyz', 'w' )
f.write( "8  " )
f.write( str(ee) + "\n" )
f.write( MOL.save_string_xyz() )
f.close()
--------------------------------------------------------------------------

    Molecular point group: c1
  Charge       = 0
  Multiplicity = 1
  Basis Set: 6-31G*
  Basis Set:
  @DF-RHF Final Energy:  -227.80116055756270
    Total Energy =                       -227.8011605575626675
    Molecular point group: c1
  Basis Set: 6-31G*
  Basis Set:
  Basis Set: 6-31G*
  Basis Set:
  @DF-RHF Final Energy:  -227.79836784607630
    Total Energy =                       -227.7983678460763599
  Basis Set: 6-31G*
  Basis Set:
  Basis Set: 6-31G*
  Basis Set:
  @DF-RHF Final Energy:  -227.80184056720313
    Total Energy =                       -227.8018405672031008
  Basis Set: 6-31G*
  Basis Set:
  Basis Set: 6-31G*
  Basis Set:
  @DF-RHF Final Energy:  -227.80198016725782
    Total Energy =                       -227.8019801672578808
  Basis Set: 6-31G*
  Basis Set:
  Basis Set: 6-31G*
  Basis Set:
  @DF-RHF Final Energy:  -227.80206319770923
    Total Energy =                       -227.8020631977092307
  Basis Set: 6-31G*
  Basis Set:
  Basis Set: 6-31G*
  Basis Set:
  @DF-RHF Final Energy:  -227.80208019312937
    Total Energy =                       -227.8020801931293420
  Basis Set: 6-31G*
  Basis Set:
  Basis Set: 6-31G*
  Basis Set:
  @DF-RHF Final Energy:  -227.80208631467585
    Total Energy =                       -227.8020863146759041
  Basis Set: 6-31G*
  Basis Set:
  Charge       = 0
  Multiplicity = 1
  Basis Set: 6-31G*
  Basis Set:

    Orbital Energies (a.u.)
    -----------------------

    Doubly Occupied:

       1A    -20.608359     2A    -20.556633     3A    -11.386488
       4A    -11.240937     5A     -1.471338     6A     -1.368781
       7A     -1.025474     8A     -0.829680     9A     -0.703423
      10A     -0.679852    11A     -0.655837    12A     -0.581713
      13A     -0.579090    14A     -0.543234    15A     -0.483875
      16A     -0.449201

  @DF-RHF Final Energy:  -227.80208716533730

   => Energetics <=

    Nuclear Repulsion Energy =            122.2035608590319811
    One-Electron Energy =                -553.6834661899239336
    Two-Electron Energy =                 203.6778181655546973
    DFT Exchange-Correlation Energy =       0.0000000000000000
    Empirical Dispersion Energy =           0.0000000000000000
    PCM Polarization Energy =               0.0000000000000000
    EFP Energy =                            0.0000000000000000
    Total Energy =                       -227.8020871653372410
    Molecular point group: c1
  Basis Set: 6-31G*
  Basis Set:

  -Total Gradient:
     Atom            X                  Y                   Z
    ------   -----------------  -----------------  -----------------
       1       -0.000865762211     0.000109907128     0.012069759852
       2        0.001820623013    -0.001903724235    -0.012414843492
       3       -0.002867956694     0.005953018590    -0.005530442312
       4        0.001967379886    -0.004206822021     0.006007381491
       5       -0.000060295558     0.000083611163    -0.000173417486
       6       -0.000003919385    -0.000022251986     0.000011787622
       7        0.000004717629    -0.000002032712     0.000020265064
       8        0.000005213322    -0.000011705925     0.000009509260

  **** Optimization is complete! (in 8 steps) ****
    Final optimized geometry and variables:
    Molecular point group: c1

    Geometry (in Angstrom), charge = 0, multiplicity = 1:

    H           -0.916050985247    -1.599855314323    -0.136025654045
    O           -1.081200964889    -0.663714084395    -0.155977553552
    C            0.087459246616    -0.006325924463    -0.078445647198
    C           -0.003584783457     1.208047079325     0.801267109204
    O            1.081807941675    -0.418470005838    -0.572764282428
    H           -0.888835878656     1.789395140076     0.575183703319
    H            0.884934345726     1.811970922993     0.692996068653
    H           -0.088359507669     0.864848168385     1.826996337003

  Mulliken Charges: (a.u.)
   Center  Symbol    Alpha    Beta     Spin     Total
       1     H     0.26586  0.26586  0.00000  0.46827
       2     O     4.35239  4.35239  0.00000 -0.70477
       3     C     2.64043  2.64043  0.00000  0.71915
       4     C     3.28305  3.28305  0.00000 -0.56611
       5     O     4.26453  4.26453  0.00000 -0.52907
       6     H     0.39866  0.39866  0.00000  0.20267
       7     H     0.39605  0.39605  0.00000  0.20790
       8     H     0.39902  0.39902  0.00000  0.20196

   Total alpha = 16.00000, Total beta = 16.00000, Total charge = -0.00000
