  ==> Input File <==

--------------------------------------------------------------------------
set {
	reference rhf
	basis 6-31G*
}

set_num_threads( 4 )
memory 2 gb

molecule MOL {
0 1

H	 -3.013756	 -0.743375	 -0.929670
O	 -2.310168	 -0.871793	 -0.309793
C	 -2.026376	 0.340750	 0.341611
C	 -0.673256	 0.843270	 -0.132153
H	 -2.792215	 1.080697	 0.115987
H	 -2.013526	 0.200402	 1.421792
C	 0.486613	 -0.083066	 0.235839
H	 -0.715586	 0.970948	 -1.210718
H	 -0.508072	 1.829858	 0.297090
C	 1.840406	 0.433480	 -0.254303
H	 0.300215	 -1.068318	 -0.178947
H	 0.519509	 -0.203625	 1.318070
C	 3.000220	 -0.489290	 0.118523
H	 1.809207	 0.553576	 -1.335192
H	 2.021860	 1.424500	 0.157276
H	 2.864959	 -1.479103	 -0.307933
H	 3.946603	 -0.099227	 -0.243630
H	 3.080049	 -0.602997	 1.196117

	symmetry c1
}
set optking {
	frozen_dihedral = ("
		1 2 3 4
	")
}

ee = optimize('scf')
oeprop('DIPOLE', 'QUADRUPOLE', 'MULLIKEN_CHARGES')
f=open( 'psi4out.xyz', 'w' )
f.write( "18  " )
f.write( str(ee) + "\n" )
f.write( MOL.save_string_xyz() )
f.close()
--------------------------------------------------------------------------

    Molecular point group: c1
  Charge       = 0
  Multiplicity = 1
  Basis Set: 6-31G*
  Basis Set:
  @DF-RHF Final Energy:  -271.17727040008020
    Total Energy =                       -271.1772704000802037
    Molecular point group: c1
  Basis Set: 6-31G*
  Basis Set:
  Basis Set: 6-31G*
  Basis Set:
  @DF-RHF Final Energy:  -271.17791230418652
    Total Energy =                       -271.1779123041862931
  Basis Set: 6-31G*
  Basis Set:
  Basis Set: 6-31G*
  Basis Set:
  @DF-RHF Final Energy:  -271.17804532941830
    Total Energy =                       -271.1780453294184099
  Basis Set: 6-31G*
  Basis Set:
  Charge       = 0
  Multiplicity = 1
  Basis Set: 6-31G*
  Basis Set:

    Orbital Energies (a.u.)
    -----------------------

    Doubly Occupied:

       1A    -20.551876     2A    -11.268410     3A    -11.212187
       4A    -11.211342     5A    -11.206679     6A    -11.204729
       7A     -1.358162     8A     -1.074990     9A     -1.008472
      10A     -0.913589    11A     -0.821666    12A     -0.787232
      13A     -0.695386    14A     -0.649285    15A     -0.612313
      16A     -0.590784    17A     -0.574321    18A     -0.550185
      19A     -0.526423    20A     -0.504228    21A     -0.489458
      22A     -0.467976    23A     -0.458757    24A     -0.448751
      25A     -0.424201

  @DF-RHF Final Energy:  -271.17804538539235

   => Energetics <=

    Nuclear Repulsion Energy =            248.6810127811929760
    One-Electron Energy =                -860.4953124325002136
    Two-Electron Energy =                 340.6362542659150563
    DFT Exchange-Correlation Energy =       0.0000000000000000
    Empirical Dispersion Energy =           0.0000000000000000
    PCM Polarization Energy =               0.0000000000000000
    EFP Energy =                            0.0000000000000000
    Total Energy =                       -271.1780453853921813
    Molecular point group: c1
  Basis Set: 6-31G*
  Basis Set:

  -Total Gradient:
     Atom            X                  Y                   Z
    ------   -----------------  -----------------  -----------------
       1       -0.000772555593    -0.000233326928     0.000812414917
       2        0.000914846913     0.000165605601    -0.000835722340
       3       -0.000472845920     0.000375313429    -0.000440163665
       4        0.000355871440    -0.000274981252     0.000524826265
       5       -0.000012095980    -0.000056999948    -0.000019109904
       6       -0.000025340023     0.000002765855     0.000002130963
       7       -0.000026933761    -0.000062357801    -0.000021650177
       8        0.000007313933    -0.000016643276    -0.000015951403
       9        0.000028542218    -0.000002805470    -0.000039912470
      10        0.000019829671     0.000044568222     0.000045990728
      11        0.000018757884     0.000041214251    -0.000021326918
      12       -0.000029671923     0.000014381591     0.000001465754
      13       -0.000006913930    -0.000001248913    -0.000005016669
      14       -0.000012222319    -0.000009325517     0.000016135111
      15        0.000013469244     0.000017159105    -0.000000615836
      16       -0.000000999794    -0.000007087814     0.000002549839
      17       -0.000001450894    -0.000000736382    -0.000004273339
      18        0.000002398837     0.000004505250    -0.000001770856

  **** Optimization is complete! (in 4 steps) ****
    Final optimized geometry and variables:
    Molecular point group: c1

    Geometry (in Angstrom), charge = 0, multiplicity = 1:

    H           -3.036088615810    -0.795299190880    -0.886428573064
    O           -2.334226971057    -0.900575387770    -0.263037488113
    C           -2.023106399254     0.339283032875     0.330546389061
    C           -0.665914189175     0.854047706037    -0.130057501061
    H           -2.793768032134     1.072964415188     0.108421549234
    H           -2.018520542090     0.196336434186     1.406546884717
    C            0.488725364097    -0.079361712017     0.234624166818
    H           -0.693838029411     0.998952226059    -1.208252662940
    H           -0.501430194353     1.834696026216     0.314508744278
    C            1.848081567808     0.433997829055    -0.243394206750
    H            0.298790326030    -1.060258094544    -0.189486793071
    H            0.514541398355    -0.209979048481     1.315720455275
    C            3.000525870835    -0.499050733394     0.126696176917
    H            1.823601354117     0.564581163864    -1.323332391624
    H            2.032988179861     1.420069516376     0.178441250802
    H            2.860716419076    -1.484721506033    -0.307884778302
    H            3.950798202772    -0.112124347022    -0.228554195777
    H            3.075085634305    -0.621697234400     1.203583175619

  Mulliken Charges: (a.u.)
   Center  Symbol    Alpha    Beta     Spin     Total
       1     H     0.27964  0.27964  0.00000  0.44072
       2     O     4.37183  4.37183  0.00000 -0.74365
       3     C     3.00105  3.00105  0.00000 -0.00209
       4     C     3.15717  3.15717  0.00000 -0.31434
       5     H     0.42887  0.42887  0.00000  0.14227
       6     H     0.42133  0.42133  0.00000  0.15735
       7     C     3.15346  3.15346  0.00000 -0.30693
       8     H     0.42386  0.42386  0.00000  0.15227
       9     H     0.42606  0.42606  0.00000  0.14787
      10     C     3.15136  3.15136  0.00000 -0.30272
      11     H     0.40845  0.40845  0.00000  0.18310
      12     H     0.42577  0.42577  0.00000  0.14847
      13     C     3.23891  3.23891  0.00000 -0.47782
      14     H     0.42366  0.42366  0.00000  0.15268
      15     H     0.42514  0.42514  0.00000  0.14972
      16     H     0.42084  0.42084  0.00000  0.15832
      17     H     0.42051  0.42051  0.00000  0.15898
      18     H     0.42209  0.42209  0.00000  0.15581

   Total alpha = 25.00000, Total beta = 25.00000, Total charge = -0.00000
