  ==> Input File <==

--------------------------------------------------------------------------
set {
	reference rhf
	basis 6-31G*
}

set_num_threads( 4 )
memory 2 gb

molecule MOL {
0 1

O	 1.210522	 1.387244	 0.230635
C	 0.861134	 0.272526	 -0.014869
C	 -0.623889	 -0.118271	 -0.003699
C	 1.899457	 -0.786761	 -0.340138
C	 -0.895332	 -1.256461	 -1.002431
C	 -1.473649	 1.103340	 -0.370799
C	 -0.983900	 -0.581483	 1.422328
H	 -0.615301	 -0.972064	 -2.012700
H	 -1.954261	 -1.493213	 -1.010207
H	 -0.360539	 -2.164946	 -0.747760
H	 -1.227476	 1.468527	 -1.361691
H	 -2.526716	 0.838935	 -0.358521
H	 -1.314819	 1.915855	 0.325860
H	 -2.039679	 -0.828001	 1.472951
H	 -0.427637	 -1.464071	 1.720694
H	 -0.789023	 0.202493	 2.147048
H	 1.938618	 -0.936660	 -1.415060
H	 2.866872	 -0.437861	 -0.006230
H	 1.677880	 -1.744588	 0.114496

	symmetry c1
}
set optking {
	frozen_dihedral = ("
		1 2 3 5
	")
}

ee = optimize('scf')
oeprop('DIPOLE', 'QUADRUPOLE', 'MULLIKEN_CHARGES')
f=open( 'psi4out.xyz', 'w' )
f.write( "19  " )
f.write( str(ee) + "\n" )
f.write( MOL.save_string_xyz() )
f.close()
--------------------------------------------------------------------------

    Molecular point group: c1
  Charge       = 0
  Multiplicity = 1
  Basis Set: 6-31G*
  Basis Set:
  @DF-RHF Final Energy:  -309.06229074091874
    Total Energy =                       -309.0622907409186837
    Molecular point group: c1
  Basis Set: 6-31G*
  Basis Set:
  Basis Set: 6-31G*
  Basis Set:
  @DF-RHF Final Energy:  -309.06069881743650
    Total Energy =                       -309.0606988174367871
  Basis Set: 6-31G*
  Basis Set:
  Basis Set: 6-31G*
  Basis Set:
  @DF-RHF Final Energy:  -309.06204531479290
    Total Energy =                       -309.0620453147928401
  Basis Set: 6-31G*
  Basis Set:
  Basis Set: 6-31G*
  Basis Set:
  @DF-RHF Final Energy:  -309.06282081475416
    Total Energy =                       -309.0628208147542182
  Basis Set: 6-31G*
  Basis Set:
  Basis Set: 6-31G*
  Basis Set:
  @DF-RHF Final Energy:  -309.06282522630204
    Total Energy =                       -309.0628252263022659
  Basis Set: 6-31G*
  Basis Set:
  Basis Set: 6-31G*
  Basis Set:
  @DF-RHF Final Energy:  -309.06283608773703
    Total Energy =                       -309.0628360877369118
  Basis Set: 6-31G*
  Basis Set:
  Basis Set: 6-31G*
  Basis Set:
  @DF-RHF Final Energy:  -309.06284378332447
    Total Energy =                       -309.0628437833242970
  Basis Set: 6-31G*
  Basis Set:
  Charge       = 0
  Multiplicity = 1
  Basis Set: 6-31G*
  Basis Set:

    Orbital Energies (a.u.)
    -----------------------

    Doubly Occupied:

       1A    -20.547966     2A    -11.323032     3A    -11.246423
       4A    -11.227146     5A    -11.223570     6A    -11.223272
       7A    -11.209695     8A     -1.394521     9A     -1.109250
      10A     -1.002636    11A     -0.945546    12A     -0.935895
      13A     -0.834563    14A     -0.703718    15A     -0.664605
      16A     -0.631699    17A     -0.620910    18A     -0.593759
      19A     -0.589686    20A     -0.567405    21A     -0.546841
      22A     -0.545985    23A     -0.524919    24A     -0.512522
      25A     -0.499785    26A     -0.472094    27A     -0.463562
      28A     -0.392114

  @DF-RHF Final Energy:  -309.06284390135829

   => Energetics <=

    Nuclear Repulsion Energy =            326.3112546159625253
    One-Electron Energy =               -1065.6419593630994314
    Two-Electron Energy =                 430.2678608457788414
    DFT Exchange-Correlation Energy =       0.0000000000000000
    Empirical Dispersion Energy =           0.0000000000000000
    PCM Polarization Energy =               0.0000000000000000
    EFP Energy =                            0.0000000000000000
    Total Energy =                       -309.0628439013580646
    Molecular point group: c1
  Basis Set: 6-31G*
  Basis Set:

  -Total Gradient:
     Atom            X                  Y                   Z
    ------   -----------------  -----------------  -----------------
       1        0.000045324925    -0.000257065561     0.001020973363
       2       -0.000032569496     0.000163998708    -0.001228080558
       3       -0.000168459075     0.000611047843    -0.000357802343
       4       -0.000007450993    -0.000017575738     0.000040727144
       5        0.000145735764    -0.000521190776     0.000542319186
       6        0.000006330844     0.000003202441     0.000003021855
       7        0.000008708711    -0.000001032973     0.000020752630
       8       -0.000006859298    -0.000001546452    -0.000005579463
       9        0.000005010499     0.000001871994     0.000004559081
      10        0.000002409282    -0.000001704624    -0.000006933485
      11       -0.000002875559     0.000004165383    -0.000002651365
      12        0.000006884608     0.000002307455     0.000001024501
      13       -0.000001934245     0.000007978604    -0.000000366361
      14        0.000001813653    -0.000000802828    -0.000004336974
      15        0.000002771669     0.000000278840    -0.000001816641
      16       -0.000006924120     0.000003402525     0.000001552940
      17       -0.000003693429     0.000005850780    -0.000009075095
      18       -0.000002130578     0.000000292975    -0.000009408537
      19        0.000007906834    -0.000003478597    -0.000008879877

  **** Optimization is complete! (in 8 steps) ****
    Final optimized geometry and variables:
    Molecular point group: c1

    Geometry (in Angstrom), charge = 0, multiplicity = 1:

    O            1.196497979462     1.387701928584     0.257184563500
    C            0.862914765041     0.272181240638    -0.007114786173
    C           -0.623029289773    -0.121268634188    -0.015527113678
    C            1.913658584868    -0.787117573290    -0.281447202445
    C           -0.920330428474    -1.245756566237    -1.019968711789
    C           -1.471494677572     1.111110318242    -0.352125843549
    C           -0.959809185244    -0.604074790028     1.410387650705
    H           -0.657870541406    -0.956131455590    -2.033543571195
    H           -1.981388914921    -1.472445659723    -1.010615411534
    H           -0.390759916411    -2.162094163039    -0.784125505163
    H           -1.249268404680     1.478724822610    -1.348864931917
    H           -2.526527362155     0.856897584586    -0.315491684377
    H           -1.285445150642     1.915985935293     0.345464921429
    H           -2.008413070285    -0.878090690436     1.470601496271
    H           -0.376184489199    -1.475681476062     1.691930275747
    H           -0.771896432682     0.178232995233     2.137394670146
    H            1.893576699085    -1.075852406310    -1.327642094448
    H            2.886638428529    -0.378812337787    -0.046962009108
    H            1.743703073461    -1.683561393213     0.304935706481

  Mulliken Charges: (a.u.)
   Center  Symbol    Alpha    Beta     Spin     Total
       1     O     4.26556  4.26556  0.00000 -0.53111
       2     C     2.72545  2.72545  0.00000  0.54911
       3     C     3.06611  3.06611  0.00000 -0.13223
       4     C     3.29009  3.29009  0.00000 -0.58017
       5     C     3.24116  3.24116  0.00000 -0.48232
       6     C     3.22964  3.22964  0.00000 -0.45928
       7     C     3.24073  3.24073  0.00000 -0.48147
       8     H     0.41666  0.41666  0.00000  0.16668
       9     H     0.41384  0.41384  0.00000  0.17231
      10     H     0.41750  0.41750  0.00000  0.16500
      11     H     0.41791  0.41791  0.00000  0.16418
      12     H     0.42250  0.42250  0.00000  0.15500
      13     H     0.40290  0.40290  0.00000  0.19420
      14     H     0.41362  0.41362  0.00000  0.17276
      15     H     0.41923  0.41923  0.00000  0.16155
      16     H     0.40693  0.40693  0.00000  0.18613
      17     H     0.40513  0.40513  0.00000  0.18974
      18     H     0.39568  0.39568  0.00000  0.20865
      19     H     0.40937  0.40937  0.00000  0.18127

   Total alpha = 28.00000, Total beta = 28.00000, Total charge = -0.00000
