                              Psi4 1.0.54 Driver

  ==> Input File <==

--------------------------------------------------------------------------
set {
	reference rhf
	basis cc-pvtz
}

set_num_threads( 4 )
memory 2 gb

molecule MOL {
0 1

H	 3.098325	 1.334142	 1.423132
N	 2.268597	 0.780921	 1.389745
C	 1.860978	 0.530248	 0.016256
H	 1.560855	 1.281317	 1.885783
C	 0.644130	 -0.381765	 -0.031064
H	 2.689157	 0.048297	 -0.492418
H	 1.644813	 1.445838	 -0.535943
C	 -0.678115	 0.376691	 0.025731
H	 0.693998	 -0.977147	 -0.936845
H	 0.693309	 -1.082142	 0.800523
C	 -1.900706	 -0.535531	 -0.022488
H	 -0.725296	 1.079516	 -0.802982
H	 -0.715474	 0.974884	 0.933278
C	 -3.220513	 0.226854	 0.028039
H	 -1.865036	 -1.134397	 -0.928236
H	 -1.857948	 -1.236381	 0.806820
H	 -3.309098	 0.911849	 -0.808725
H	 -4.066838	 -0.449485	 -0.008086
H	 -3.301685	 0.809374	 0.939860

	symmetry c1
}
set optking {
	frozen_dihedral = ("
		6 3 5 9
	")
}

ee,wfn = optimize('scf', return_wfn=True)
oeprop( wfn, 'DIPOLE', 'QUADRUPOLE', 'MULLIKEN_CHARGES')
f=open( 'psi4out.xyz', 'w' )
f.write( "19  " )
f.write( str(ee) + "\n" )
f.write( MOL.save_string_xyz() )
f.close()
--------------------------------------------------------------------------

    Molecular point group: c1
  Charge       = 0
  Multiplicity = 1
  Basis Set: CC-PVTZ
  Basis Set:
  @DF-RHF Final Energy:  -251.44484850051819
    Total Energy =                       -251.4448485005179919
    Molecular point group: c1
  Basis Set: CC-PVTZ
  Basis Set:
  Basis Set: CC-PVTZ
  Basis Set:
  @DF-RHF Final Energy:  -251.44514509517714
    Total Energy =                       -251.4451450951771108
  Basis Set: CC-PVTZ
  Basis Set:
  Basis Set: CC-PVTZ
  Basis Set:
  @DF-RHF Final Energy:  -251.44521242043194
    Total Energy =                       -251.4452124204319716
  Basis Set: CC-PVTZ
  Basis Set:
  Charge       = 0
  Multiplicity = 1
  Basis Set: CC-PVTZ
  Basis Set:

    Orbital Energies (a.u.)
    -----------------------

    Doubly Occupied:

       1A    -15.526751     2A    -11.238019     3A    -11.212477
       4A    -11.211702     5A    -11.207337     6A    -11.206206
       7A     -1.178060     8A     -1.073676     9A     -0.998659
      10A     -0.905608    11A     -0.814889    12A     -0.785618
      13A     -0.667408    14A     -0.645121    15A     -0.616124
      16A     -0.588761    17A     -0.560892    18A     -0.550492
      19A     -0.534538    20A     -0.501233    21A     -0.486470
      22A     -0.465217    23A     -0.462078    24A     -0.445380
      25A     -0.383147

  @DF-RHF Final Energy:  -251.44521315688806

   => Energetics <=

    Nuclear Repulsion Energy =            248.4057273560647161
    One-Electron Energy =                -831.1701579785494687
    Two-Electron Energy =                 331.3192174655966937
    DFT Exchange-Correlation Energy =       0.0000000000000000
    Empirical Dispersion Energy =           0.0000000000000000
    PCM Polarization Energy =               0.0000000000000000
    EFP Energy =                            0.0000000000000000
    Total Energy =                       -251.4452131568880304
    Molecular point group: c1
  Basis Set: CC-PVTZ
  Basis Set:

  -Total Gradient:
     Atom            X                  Y                   Z
    ------   -----------------  -----------------  -----------------
       1        0.000033667733     0.000024472424     0.000006067061
       2        0.000015907525    -0.000021729377     0.000052484239
       3        0.001449158164    -0.002893763396     0.004522049176
       4       -0.000012845994     0.000005103262    -0.000008670086
       5       -0.002350640845     0.003966511834    -0.003096107690
       6       -0.000884145154     0.001792395703    -0.003326205985
       7        0.000002581519     0.000006470807     0.000004020470
       8       -0.000035566312     0.000024253271    -0.000052528731
       9        0.001734488710    -0.002874812595     0.001896483589
      10        0.000008334992    -0.000009094801     0.000001560597
      11        0.000042187931     0.000004730600    -0.000007041293
      12        0.000020927673    -0.000006886467    -0.000013271370
      13        0.000008086867    -0.000006777853    -0.000008059507
      14       -0.000015846750    -0.000001811245     0.000034490779
      15        0.000004171223     0.000004470452    -0.000010096740
      16       -0.000008910473    -0.000019764700    -0.000006415350
      17        0.000005928763    -0.000009902146    -0.000002870801
      18       -0.000010758790     0.000002657396     0.000009497905
      19       -0.000006726780     0.000013476831     0.000004613738

  **** Optimization is complete! (in 4 steps) ****
    Final optimized geometry and variables:
    Molecular point group: c1

    Geometry (in Angstrom), charge = 0, multiplicity = 1:

    H            3.255931281437     1.019525310807     1.275093346517
    N            2.409379242605     0.494576530352     1.211549418577
    C            2.046706856961     0.263774822933    -0.178972852798
    H            1.705205840480     1.023219571637     1.682275499987
    C            0.780865439632    -0.583934905259    -0.304273654081
    H            2.869187106976    -0.243706944908    -0.668514629968
    H            1.904578521778     1.192890854864    -0.734412464176
    C           -0.519294861300     0.213488825148    -0.249331111667
    H            0.825702251023    -1.159151289915    -1.224340605002
    H            0.793265360211    -1.315496082682     0.497970629083
    C           -1.767112046360    -0.661901326706    -0.320463015359
    H           -0.536553872105     0.929475400086    -1.067560362636
    H           -0.552403794249     0.799351874722     0.666894628873
    C           -3.065349093830     0.136737251565    -0.270043989997
    H           -1.740163160219    -1.248159989334    -1.235024800950
    H           -1.750781752874    -1.375621856195     0.498348657042
    H           -3.127736314676     0.835515113147    -1.097754010135
    H           -3.930005405002    -0.514912250546    -0.322295138391
    H           -3.137962248379     0.708405799345     0.649369211488

  Mulliken Charges: (a.u.)
   Center  Symbol    Alpha    Beta     Spin     Total
       1     H     0.42966  0.42966  0.00000  0.14068
       2     N     3.68677  3.68677  0.00000 -0.37354
       3     C     3.03526  3.03526  0.00000 -0.07052
       4     H     0.43121  0.43121  0.00000  0.13757
       5     C     3.09547  3.09547  0.00000 -0.19094
       6     H     0.45196  0.45196  0.00000  0.09608
       7     H     0.46833  0.46833  0.00000  0.06334
       8     C     3.08430  3.08430  0.00000 -0.16859
       9     H     0.45138  0.45138  0.00000  0.09725
      10     H     0.44959  0.44959  0.00000  0.10083
      11     C     3.08458  3.08458  0.00000 -0.16916
      12     H     0.45526  0.45526  0.00000  0.08947
      13     H     0.45956  0.45956  0.00000  0.08088
      14     C     3.14982  3.14982  0.00000 -0.29965
      15     H     0.45445  0.45445  0.00000  0.09111
      16     H     0.45296  0.45296  0.00000  0.09408
      17     H     0.45549  0.45549  0.00000  0.08902
      18     H     0.44832  0.44832  0.00000  0.10337
      19     H     0.45564  0.45564  0.00000  0.08872

   Total alpha = 25.00000, Total beta = 25.00000, Total charge = -0.00000

*** Psi4 exiting successfully. Buy a developer a beer!
