  ==> Input File <==

--------------------------------------------------------------------------
set {
	reference rhf
	basis cc-pvtz
}

set_num_threads( 4 )
memory 2 gb

molecule MOL {
0 1

H	 3.221695	 0.281173	 -0.503843
N	 2.391272	 -0.271627	 -0.483851
C	 1.263552	 0.494993	 0.021953
H	 2.576480	 -1.060440	 0.099938
C	 -0.016533	 -0.325589	 -0.026925
H	 1.150336	 1.371860	 -0.606761
H	 1.418715	 0.857285	 1.039132
C	 -1.280353	 0.525521	 0.047747
H	 -0.016686	 -0.912532	 -0.939714
H	 -0.014099	 -1.037598	 0.796369
C	 -2.560681	 -0.301323	 -0.007747
H	 -1.279957	 1.241025	 -0.770189
H	 -1.270445	 1.110526	 0.963468
H	 -2.617064	 -0.872870	 -0.928010
H	 -3.439525	 0.331102	 0.043462
H	 -2.609427	 -1.002736	 0.818585

	symmetry c1
}
set optking {
	frozen_dihedral = ("
		6 3 5 9
	")
}

ee = optimize('scf')
oeprop('DIPOLE', 'QUADRUPOLE', 'MULLIKEN_CHARGES')
f=open( 'psi4out.xyz', 'w' )
f.write( "16  " )
f.write( str(ee) + "\n" )
f.write( MOL.save_string_xyz() )
f.close()
--------------------------------------------------------------------------

    Molecular point group: c1
  Charge       = 0
  Multiplicity = 1
  Basis Set: CC-PVTZ
  Basis Set:
  @DF-RHF Final Energy:  -212.39911582892785
    Total Energy =                       -212.3991158289277337
    Molecular point group: c1
  Basis Set: CC-PVTZ
  Basis Set:
  Basis Set: CC-PVTZ
  Basis Set:
  @DF-RHF Final Energy:  -212.39926412179838
    Total Energy =                       -212.3992641217984669
  Basis Set: CC-PVTZ
  Basis Set:
  Basis Set: CC-PVTZ
  Basis Set:
  @DF-RHF Final Energy:  -212.39929629871770
    Total Energy =                       -212.3992962987177862
  Basis Set: CC-PVTZ
  Basis Set:
  Charge       = 0
  Multiplicity = 1
  Basis Set: CC-PVTZ
  Basis Set:

    Orbital Energies (a.u.)
    -----------------------

    Doubly Occupied:

       1A    -15.527116     2A    -11.237990     3A    -11.213257
       4A    -11.207824     5A    -11.205867     6A     -1.178566
       7A     -1.060862     8A     -0.959679     9A     -0.844329
      10A     -0.793245    11A     -0.660332    12A     -0.644671
      13A     -0.602000    14A     -0.577678    15A     -0.569521
      16A     -0.521963    17A     -0.501752    18A     -0.469759
      19A     -0.464936    20A     -0.463189    21A     -0.383828

  @DF-RHF Final Energy:  -212.39929724831123

   => Energetics <=

    Nuclear Repulsion Energy =            186.5134364491703707
    One-Electron Energy =                -655.6487402953752053
    Two-Electron Energy =                 256.7360065978935495
    DFT Exchange-Correlation Energy =       0.0000000000000000
    Empirical Dispersion Energy =           0.0000000000000000
    PCM Polarization Energy =               0.0000000000000000
    EFP Energy =                            0.0000000000000000
    Total Energy =                       -212.3992972483112567
    Molecular point group: c1
  Basis Set: CC-PVTZ
  Basis Set:

  -Total Gradient:
     Atom            X                  Y                   Z
    ------   -----------------  -----------------  -----------------
       1        0.000012067970     0.000028593088    -0.000004942128
       2        0.000003622920    -0.000049080481    -0.000042863225
       3        0.001802898215    -0.002624402231    -0.002810976260
       4        0.000000608036     0.000003072144     0.000022136068
       5       -0.002117630378     0.003476321969    -0.001287070360
       6       -0.001206680123     0.001651570579     0.002598538080
       7       -0.000000637758     0.000017922556     0.000013134623
       8        0.000007788400     0.000023890983    -0.000075457251
       9        0.001468344656    -0.002484245617     0.001564225606
      10        0.000019911295    -0.000020349469     0.000000334212
      11       -0.000000687279    -0.000012146103     0.000031918473
      12        0.000002168443     0.000005217099    -0.000002451695
      13        0.000013651225    -0.000019949973    -0.000012950565
      14        0.000004143514     0.000018107759     0.000000111196
      15       -0.000010265634    -0.000004190789     0.000013160669
      16        0.000000696497    -0.000010331514    -0.000006847444

  **** Optimization is complete! (in 4 steps) ****
    Final optimized geometry and variables:
    Molecular point group: c1

    Geometry (in Angstrom), charge = 0, multiplicity = 1:

    H            3.250683428147     0.255432543726    -0.324012513403
    N            2.414054126269    -0.286738049519    -0.369992723232
    C            1.270324668636     0.478801303279     0.097777389152
    H            2.557232847919    -1.094381236156     0.200246899396
    C           -0.014154804691    -0.336908101334     0.016415434567
    H            1.173831507083     1.368415124557    -0.515722601138
    H            1.392278030309     0.837809924843     1.121241273203
    C           -1.278389272493     0.508717746719     0.118738534859
    H           -0.004366764611    -0.908052203286    -0.906315812942
    H           -0.013094194706    -1.074258295850     0.817799706199
    C           -2.556228622968    -0.323451181621     0.111346696115
    H           -1.303814991973     1.214440129265    -0.706696027096
    H           -1.242796550048     1.103816816258     1.027656339778
    H           -2.635331990265    -0.908218668797    -0.798924266626
    H           -3.435842373057     0.306539882725     0.177596433844
    H           -2.579353564830    -1.012940420384     0.948679245327

  Mulliken Charges: (a.u.)
   Center  Symbol    Alpha    Beta     Spin     Total
       1     H     0.43053  0.43053  0.00000  0.13894
       2     N     3.68727  3.68727  0.00000 -0.37455
       3     C     3.02522  3.02522  0.00000 -0.05045
       4     H     0.43102  0.43102  0.00000  0.13796
       5     C     3.08400  3.08400  0.00000 -0.16799
       6     H     0.45917  0.45917  0.00000  0.08166
       7     H     0.46860  0.46860  0.00000  0.06281
       8     C     3.08708  3.08708  0.00000 -0.17416
       9     H     0.44903  0.44903  0.00000  0.10194
      10     H     0.46026  0.46026  0.00000  0.07947
      11     C     3.14942  3.14942  0.00000 -0.29884
      12     H     0.45356  0.45356  0.00000  0.09287
      13     H     0.45640  0.45640  0.00000  0.08720
      14     H     0.45403  0.45403  0.00000  0.09194
      15     H     0.44883  0.44883  0.00000  0.10235
      16     H     0.45558  0.45558  0.00000  0.08884

   Total alpha = 21.00000, Total beta = 21.00000, Total charge = -0.00000
