                              Psi4 1.0.54 Driver

  ==> Input File <==

--------------------------------------------------------------------------
set {
	reference rhf
	basis cc-pvtz
}

set_num_threads( 4 )
memory 2 gb

molecule MOL {
0 1

H	 -3.207633	 0.034171	 -0.260874
C	 -2.905399	 1.041142	 -0.539347
O	 -1.549419	 1.102534	 -0.831051
H	 -3.448030	 1.334129	 -1.426251
H	 -3.171058	 1.716561	 0.271898
C	 -0.718530	 0.758693	 0.228682
C	 0.718529	 0.758687	 -0.228709
H	 -0.829694	 1.474585	 1.042998
H	 -0.971721	 -0.227366	 0.612106
O	 1.401606	 -0.295166	 0.366636
H	 0.748705	 0.673477	 -1.312803
H	 1.176496	 1.708671	 0.046552
C	 2.714315	 -0.441627	 -0.061017
H	 2.765292	 -0.641548	 -1.128869
H	 3.305661	 0.447341	 0.150952
H	 3.143725	 -1.278506	 0.470147

	symmetry c1
}
set optking {
	frozen_dihedral = ("
		3 6 7 11
	")
}

ee,wfn = optimize('scf', return_wfn=True)
oeprop( wfn, 'DIPOLE', 'QUADRUPOLE', 'MULLIKEN_CHARGES')
f=open( 'psi4out.xyz', 'w' )
f.write( "16  " )
f.write( str(ee) + "\n" )
f.write( MOL.save_string_xyz() )
f.close()
--------------------------------------------------------------------------

    Molecular point group: c1
  Charge       = 0
  Multiplicity = 1
  Basis Set: CC-PVTZ
  Basis Set:
  @DF-RHF Final Energy:  -307.09485074523013
    Total Energy =                       -307.0948507452300191
    Molecular point group: c1
  Basis Set: CC-PVTZ
  Basis Set:
  Basis Set: CC-PVTZ
  Basis Set:
  @DF-RHF Final Energy:  -307.09558476857757
    Total Energy =                       -307.0955847685779645
  Basis Set: CC-PVTZ
  Basis Set:
  Basis Set: CC-PVTZ
  Basis Set:
  @DF-RHF Final Energy:  -307.09566386553604
    Total Energy =                       -307.0956638655360962
  Basis Set: CC-PVTZ
  Basis Set:
  Basis Set: CC-PVTZ
  Basis Set:
  @DF-RHF Final Energy:  -307.09566975014252
    Total Energy =                       -307.0956697501426333
  Basis Set: CC-PVTZ
  Basis Set:
  Charge       = 0
  Multiplicity = 1
  Basis Set: CC-PVTZ
  Basis Set:

    Orbital Energies (a.u.)
    -----------------------

    Doubly Occupied:

       1A    -20.552537     2A    -20.551862     3A    -11.266186
       4A    -11.265545     5A    -11.264262     6A    -11.263965
       7A     -1.391745     8A     -1.380281     9A     -1.029484
      10A     -0.941507    11A     -0.884869    12A     -0.832356
      13A     -0.690891    14A     -0.677941    15A     -0.660500
      16A     -0.648085    17A     -0.626379    18A     -0.600925
      19A     -0.565929    20A     -0.522509    21A     -0.509295
      22A     -0.484639    23A     -0.468142    24A     -0.422767
      25A     -0.416721

  @DF-RHF Final Energy:  -307.09567014610548

   => Energetics <=

    Nuclear Repulsion Energy =            255.0317264946615694
    One-Electron Energy =                -924.4161561571556831
    Two-Electron Energy =                 362.2887595163883816
    DFT Exchange-Correlation Energy =       0.0000000000000000
    Empirical Dispersion Energy =           0.0000000000000000
    PCM Polarization Energy =               0.0000000000000000
    EFP Energy =                            0.0000000000000000
    Total Energy =                       -307.0956701461057037
    Molecular point group: c1
  Basis Set: CC-PVTZ
  Basis Set:

  -Total Gradient:
     Atom            X                  Y                   Z
    ------   -----------------  -----------------  -----------------
       1        0.000011907820     0.000026730177    -0.000013486626
       2       -0.000069538957    -0.000006326301     0.000056933648
       3       -0.000142345867    -0.002925587698    -0.000749962871
       4        0.000020076616    -0.000003398356     0.000004696391
       5        0.000004755320    -0.000018259792    -0.000021090418
       6        0.000244397428     0.004648734004     0.000905853466
       7        0.000092918449    -0.005519209243     0.000114350538
       8        0.000005329242    -0.000001541092    -0.000000112542
       9       -0.000008600755    -0.000009073436    -0.000003309688
      10       -0.000055332616    -0.000022290470     0.000016534173
      11       -0.000122792581     0.003822558057    -0.000294278065
      12       -0.000005643623    -0.000010153204     0.000004357197
      13        0.000049813034     0.000034734683    -0.000041772811
      14       -0.000000212026    -0.000001056204     0.000025207258
      15       -0.000008816950    -0.000021788184    -0.000004126079
      16       -0.000015914534     0.000005927058     0.000000206426

  **** Optimization is complete! (in 5 steps) ****
    Final optimized geometry and variables:
    Molecular point group: c1

    Geometry (in Angstrom), charge = 0, multiplicity = 1:

    H           -3.217586189373    -0.323446943775     0.048108113085
    C           -2.856625844444     0.633911674803    -0.320980484650
    O           -1.510200152358     0.572840923420    -0.657362534584
    H           -3.408759556028     0.894225894758    -1.212225400696
    H           -3.044129999992     1.388205448846     0.439986145114
    C           -0.671171841783     0.229076152252     0.400516193322
    C            0.768487095313     0.242117475317    -0.091784606657
    H           -0.806774231340     0.915998292940     1.232573303418
    H           -0.901346432136    -0.771729325564     0.755456809909
    O            1.462591036775    -0.804728898508     0.506583433911
    H            0.765516112198     0.160390903962    -1.174948488209
    H            1.245280049859     1.190460045508     0.150447608170
    C            2.809605554022    -0.862431301003     0.171124067950
    H            2.947180087136    -0.990459321080    -0.900069605726
    H            3.336012032877     0.037876268239     0.480152947242
    H            3.241345830817    -1.710768582519     0.681792882207

  Mulliken Charges: (a.u.)
   Center  Symbol    Alpha    Beta     Spin     Total
       1     H     0.47098  0.47098  0.00000  0.05804
       2     C     3.02927  3.02927  0.00000 -0.05854
       3     O     4.17462  4.17462  0.00000 -0.34924
       4     H     0.44672  0.44672  0.00000  0.10657
       5     H     0.47144  0.47144  0.00000  0.05712
       6     C     2.96587  2.96587  0.00000  0.06827
       7     C     2.96562  2.96562  0.00000  0.06875
       8     H     0.47378  0.47378  0.00000  0.05245
       9     H     0.46755  0.46755  0.00000  0.06491
      10     O     4.17399  4.17399  0.00000 -0.34798
      11     H     0.46666  0.46666  0.00000  0.06668
      12     H     0.47550  0.47550  0.00000  0.04900
      13     C     3.02952  3.02952  0.00000 -0.05905
      14     H     0.47054  0.47054  0.00000  0.05891
      15     H     0.47133  0.47133  0.00000  0.05734
      16     H     0.44661  0.44661  0.00000  0.10678

   Total alpha = 25.00000, Total beta = 25.00000, Total charge = -0.00000

*** Psi4 exiting successfully. Buy a developer a beer!
