                              Psi4 1.0.54 Driver

  ==> Input File <==

--------------------------------------------------------------------------
set {
	reference rhf
	basis cc-pvtz
}

set_num_threads( 4 )
memory 2 gb

molecule MOL {
0 1

H	 -0.000105	 1.988529	 0.748933
O	 -0.000098	 1.879786	 -0.188206
C	 -0.000014	 0.545691	 -0.532416
C	 0.090498	 0.392221	 -2.051637
C	 -1.195474	 -0.164339	 0.105162
H	 0.890169	 0.095975	 -0.117700
F	 1.193988	 0.954938	 -2.478861
F	 0.108471	 -0.862387	 -2.424930
F	 -0.918521	 0.984561	 -2.653624
F	 -1.123700	 -0.048160	 1.408315
F	 -1.228039	 -1.440813	 -0.183398
F	 -2.332975	 0.372405	 -0.281326

	symmetry c1
}
set optking {
	frozen_dihedral = ("
		6 3 2 1
	")
}

ee,wfn = optimize('scf', return_wfn=True)
oeprop( wfn, 'DIPOLE', 'QUADRUPOLE', 'MULLIKEN_CHARGES')
f=open( 'psi4out.xyz', 'w' )
f.write( "12  " )
f.write( str(ee) + "\n" )
f.write( MOL.save_string_xyz() )
f.close()
--------------------------------------------------------------------------

    Molecular point group: c1
  Charge       = 0
  Multiplicity = 1
  Basis Set: CC-PVTZ
  Basis Set:
  @DF-RHF Final Energy:  -786.58570853481137
    Total Energy =                       -786.5857085348117153
    Molecular point group: c1
  Basis Set: CC-PVTZ
  Basis Set:
  Basis Set: CC-PVTZ
  Basis Set:
  @DF-RHF Final Energy:  -786.58763371615282
    Total Energy =                       -786.5876337161528227
  Basis Set: CC-PVTZ
  Basis Set:
  Basis Set: CC-PVTZ
  Basis Set:
  @DF-RHF Final Energy:  -786.58798487041577
    Total Energy =                       -786.5879848704157666
  Basis Set: CC-PVTZ
  Basis Set:
  Basis Set: CC-PVTZ
  Basis Set:
  @DF-RHF Final Energy:  -786.58805627101719
    Total Energy =                       -786.5880562710168533
  Basis Set: CC-PVTZ
  Basis Set:
  Basis Set: CC-PVTZ
  Basis Set:
  @DF-RHF Final Energy:  -786.58807549551022
    Total Energy =                       -786.5880754955097700
  Basis Set: CC-PVTZ
  Basis Set:
  Basis Set: CC-PVTZ
  Basis Set:
  @DF-RHF Final Energy:  -786.58807796721089
    Total Energy =                       -786.5880779672106655
  Basis Set: CC-PVTZ
  Basis Set:
  Charge       = 0
  Multiplicity = 1
  Basis Set: CC-PVTZ
  Basis Set:

    Orbital Energies (a.u.)
    -----------------------

    Doubly Occupied:

       1A    -26.360192     2A    -26.357407     3A    -26.355498
       4A    -26.351879     5A    -26.348473     6A    -26.348102
       7A    -20.609065     8A    -11.520178     9A    -11.516243
      10A    -11.351562    11A     -1.770992    12A     -1.762232
      13A     -1.665765    14A     -1.664724    15A     -1.657645
      16A     -1.656055    17A     -1.439547    18A     -1.104097
      19A     -1.000431    20A     -0.941087    21A     -0.873497
      22A     -0.864146    23A     -0.859840    24A     -0.848776
      25A     -0.838129    26A     -0.790143    27A     -0.761383
      28A     -0.736900    29A     -0.727847    30A     -0.723983
      31A     -0.721190    32A     -0.690321    33A     -0.686973
      34A     -0.674553    35A     -0.674014    36A     -0.667549
      37A     -0.658898    38A     -0.641179    39A     -0.622617
      40A     -0.551538    41A     -0.509966

  @DF-RHF Final Energy:  -786.58807877505069

   => Energetics <=

    Nuclear Repulsion Energy =            670.9090754897697479
    One-Electron Energy =               -2429.1850838632526575
    Two-Electron Energy =                 971.6879295984318787
    DFT Exchange-Correlation Energy =       0.0000000000000000
    Empirical Dispersion Energy =           0.0000000000000000
    PCM Polarization Energy =               0.0000000000000000
    EFP Energy =                            0.0000000000000000
    Total Energy =                       -786.5880787750510308
    Molecular point group: c1
  Basis Set: CC-PVTZ
  Basis Set:

  -Total Gradient:
     Atom            X                  Y                   Z
    ------   -----------------  -----------------  -----------------
       1       -0.000729615198     0.000036496300     0.000078510291
       2        0.000990109083    -0.000016233985    -0.000237762655
       3       -0.000565994412    -0.000060228165     0.000690128016
       4       -0.000041680697     0.000088993893    -0.000060946173
       5        0.000005516777     0.000031854551    -0.000123486294
       6        0.000291848777     0.000069929512    -0.000545584825
       7        0.000063562107    -0.000019544552     0.000021842978
       8        0.000011280813    -0.000082002039     0.000019650914
       9       -0.000031556628     0.000017387164     0.000035082914
      10       -0.000004367869     0.000019905669     0.000067617759
      11       -0.000016343924    -0.000079223160     0.000020539162
      12        0.000027241173    -0.000007335188     0.000034407906

  **** Optimization is complete! (in 7 steps) ****
    Final optimized geometry and variables:
    Molecular point group: c1

    Geometry (in Angstrom), charge = 0, multiplicity = 1:

    H            0.633389017730     1.859611872256     1.517418048623
    O            0.611397064627     1.657645336771     0.598272337637
    C            0.578601727797     0.295103821325     0.393742743249
    C            0.645584357471     0.077343737218    -1.116128285034
    C           -0.649897944445    -0.326184850061     1.059922317388
    H            1.443319355246    -0.210469116498     0.810035653932
    F            1.793536479545     0.522398015804    -1.566531489344
    F            0.570241764135    -1.201679617066    -1.404886150451
    F           -0.309698381144     0.697061094236    -1.755612792055
    F           -0.656042687819     0.039166951434     2.329768437265
    F           -0.608036606476    -1.634545348151     1.026565326822
    F           -1.777644634881     0.065308889424     0.530340655673

  Mulliken Charges: (a.u.)
   Center  Symbol    Alpha    Beta     Spin     Total
       1     H     0.38370  0.38370  0.00000  0.23260
       2     O     4.18458  4.18458  0.00000 -0.36915
       3     C     2.99832  2.99832  0.00000  0.00335
       4     C     2.67654  2.67654  0.00000  0.64693
       5     C     2.68336  2.68336  0.00000  0.63327
       6     H     0.44489  0.44489  0.00000  0.11022
       7     F     4.60405  4.60405  0.00000 -0.20811
       8     F     4.60597  4.60597  0.00000 -0.21194
       9     F     4.60133  4.60133  0.00000 -0.20267
      10     F     4.61441  4.61441  0.00000 -0.22881
      11     F     4.60324  4.60324  0.00000 -0.20647
      12     F     4.59961  4.59961  0.00000 -0.19922

   Total alpha = 41.00000, Total beta = 41.00000, Total charge = -0.00000

*** Psi4 exiting successfully. Buy a developer a beer!
