                              Psi4 1.0.54 Driver

  ==> Input File <==

--------------------------------------------------------------------------
set {
	reference rhf
	basis cc-pvtz
}

set_num_threads( 4 )
memory 2 gb

molecule MOL {
0 1

H	 -3.085228	 -0.642916	 0.841063
O	 -2.658848	 -0.704215	 -0.000460
C	 -1.605397	 0.107680	 0.001145
C	 -0.310616	 -0.658853	 0.000791
O	 -1.718351	 1.284629	 -0.000627
C	 0.926581	 0.227233	 0.000178
H	 -0.327628	 -1.313681	 -0.864448
H	 -0.327041	 -1.313334	 0.866298
C	 2.220156	 -0.582071	 -0.000088
H	 0.899945	 0.878221	 -0.866390
H	 0.900542	 0.878581	 0.866486
C	 3.466689	 0.296012	 -0.000457
H	 2.239073	 -1.234095	 -0.869382
H	 2.239505	 -1.233985	 0.869270
H	 3.493549	 0.935857	 -0.875887
H	 4.368821	 -0.304526	 -0.001199
H	 3.494559	 0.935166	 0.875458

	symmetry c1
}
set optking {
	frozen_dihedral = ("
		1 2 3 5
	")
}

ee,wfn = optimize('scf', return_wfn=True)
oeprop( wfn, 'DIPOLE', 'QUADRUPOLE', 'MULLIKEN_CHARGES')
f=open( 'psi4out.xyz', 'w' )
f.write( "17  " )
f.write( str(ee) + "\n" )
f.write( MOL.save_string_xyz() )
f.close()
--------------------------------------------------------------------------

    Molecular point group: c1
  Charge       = 0
  Multiplicity = 1
  Basis Set: CC-PVTZ
  Basis Set:
  @DF-RHF Final Energy:  -345.03083082586875
    Total Energy =                       -345.0308308258686907
    Molecular point group: c1
  Basis Set: CC-PVTZ
  Basis Set:
  Basis Set: CC-PVTZ
  Basis Set:
  @DF-RHF Final Energy:  -345.02929231543413
    Total Energy =                       -345.0292923154340770
  Basis Set: CC-PVTZ
  Basis Set:
  Basis Set: CC-PVTZ
  Basis Set:
  @DF-RHF Final Energy:  -345.03201191484362
    Total Energy =                       -345.0320119148435651
  Basis Set: CC-PVTZ
  Basis Set:
  Basis Set: CC-PVTZ
  Basis Set:
  @DF-RHF Final Energy:  -345.03232117242129
    Total Energy =                       -345.0323211724210068
  Basis Set: CC-PVTZ
  Basis Set:
  Basis Set: CC-PVTZ
  Basis Set:
  @DF-RHF Final Energy:  -345.03232821746951
    Total Energy =                       -345.0323282174696828
  Basis Set: CC-PVTZ
  Basis Set:
  Basis Set: CC-PVTZ
  Basis Set:
  @DF-RHF Final Energy:  -345.03232939872470
    Total Energy =                       -345.0323293987247553
  Basis Set: CC-PVTZ
  Basis Set:
  Charge       = 0
  Multiplicity = 1
  Basis Set: CC-PVTZ
  Basis Set:

    Orbital Energies (a.u.)
    -----------------------

    Doubly Occupied:

       1A    -20.588282     2A    -20.549418     3A    -11.374283
       4A    -11.240029     5A    -11.222057     6A    -11.221428
       7A    -11.211401     8A     -1.464899     9A     -1.370228
      10A     -1.092940    11A     -1.018611    12A     -0.911241
      13A     -0.824126    14A     -0.793780    15A     -0.709050
      16A     -0.679272    17A     -0.667025    18A     -0.639930
      19A     -0.592976    20A     -0.587422    21A     -0.544064
      22A     -0.536164    23A     -0.515843    24A     -0.499038
      25A     -0.481246    26A     -0.474791    27A     -0.473826
      28A     -0.445766

  @DF-RHF Final Energy:  -345.03232935312872

   => Energetics <=

    Nuclear Repulsion Energy =            304.0544389327953922
    One-Electron Energy =               -1072.7152637543563287
    Two-Electron Energy =                 423.6284954684321065
    DFT Exchange-Correlation Energy =       0.0000000000000000
    Empirical Dispersion Energy =           0.0000000000000000
    PCM Polarization Energy =               0.0000000000000000
    EFP Energy =                            0.0000000000000000
    Total Energy =                       -345.0323293531288300
    Molecular point group: c1
  Basis Set: CC-PVTZ
  Basis Set:

  -Total Gradient:
     Atom            X                  Y                   Z
    ------   -----------------  -----------------  -----------------
       1        0.004356171303    -0.006174427130     0.003232018705
       2       -0.005119248039     0.007796722088    -0.007223290297
       3        0.000108933408    -0.001526273621     0.010913309272
       4       -0.000022218822    -0.000030104826     0.000104127871
       5        0.000674038976    -0.000057367253    -0.007036367042
       6        0.000003848559    -0.000021482838     0.000013611976
       7        0.000004451793     0.000005838754    -0.000000520440
       8       -0.000004922690     0.000002563647    -0.000001969859
       9        0.000007223255     0.000003885754     0.000006524082
      10       -0.000002151029     0.000002530577    -0.000004894505
      11       -0.000002149413    -0.000001024343     0.000003903995
      12       -0.000002584618    -0.000001838874    -0.000007656686
      13       -0.000000206783    -0.000000753014     0.000001724731
      14       -0.000000782249     0.000001500593     0.000002029382
      15        0.000001534789     0.000003115742    -0.000000231899
      16       -0.000000721404    -0.000000329069    -0.000002530312
      17       -0.000001217033    -0.000002556181     0.000000211025

  **** Optimization is complete! (in 7 steps) ****
    Final optimized geometry and variables:
    Molecular point group: c1

    Geometry (in Angstrom), charge = 0, multiplicity = 1:

    H           -3.222931969037    -0.681741601784     0.648239965192
    O           -2.683049076223    -0.704979528983    -0.124655367116
    C           -1.608209113869     0.114072870244    -0.004927282723
    C           -0.309658979045    -0.645495698093     0.013573711039
    O           -1.715140127158     1.284518546979    -0.005528489891
    C            0.930136725230     0.236034848211     0.018498282768
    H           -0.323430262766    -1.308783923727    -0.845492718706
    H           -0.334274120230    -1.297533528381     0.882425441617
    C            2.222176379324    -0.575701787588     0.033809922533
    H            0.911825823198     0.881316844468    -0.852692466619
    H            0.899095838781     0.893658151290     0.880158665162
    C            3.470610463459     0.299613694676     0.036788926830
    H            2.246145926441    -1.233718442420    -0.830724423384
    H            2.233633247622    -1.221654393690     0.907868966475
    H            3.505579064925     0.932925523674    -0.843053363474
    H            4.371389895624    -0.302850140812     0.047374335653
    H            3.493131411083     0.945144427361     0.908192051707

  Mulliken Charges: (a.u.)
   Center  Symbol    Alpha    Beta     Spin     Total
       1     H     0.38447  0.38447  0.00000  0.23105
       2     O     4.17673  4.17673  0.00000 -0.35345
       3     C     2.80157  2.80157  0.00000  0.39686
       4     C     3.11233  3.11233  0.00000 -0.22465
       5     O     4.16653  4.16653  0.00000 -0.33307
       6     C     3.08404  3.08404  0.00000 -0.16808
       7     H     0.43677  0.43677  0.00000  0.12645
       8     H     0.44548  0.44548  0.00000  0.10903
       9     C     3.08590  3.08590  0.00000 -0.17180
      10     H     0.44532  0.44532  0.00000  0.10936
      11     H     0.44694  0.44694  0.00000  0.10612
      12     C     3.14912  3.14912  0.00000 -0.29824
      13     H     0.45431  0.45431  0.00000  0.09137
      14     H     0.45535  0.45535  0.00000  0.08929
      15     H     0.45332  0.45332  0.00000  0.09337
      16     H     0.44793  0.44793  0.00000  0.10414
      17     H     0.45388  0.45388  0.00000  0.09223

   Total alpha = 28.00000, Total beta = 28.00000, Total charge =  0.00000

*** Psi4 exiting successfully. Buy a developer a beer!
