  ==> Input File <==

--------------------------------------------------------------------------
set {
	reference rhf
	basis 6-31G*
}

set_num_threads( 4 )
memory 2 gb

molecule MOL {
0 1

H	 -3.847979	 -2.029548	 0.750341
C	 -2.777783	 -1.925351	 0.775012
C	 -2.037123	 -2.620728	 1.718951
C	 -2.143633	 -1.096385	 -0.136910
H	 -2.530179	 -3.263295	 2.425611
C	 -0.661104	 -2.486239	 1.750050
H	 -2.719428	 -0.558136	 -0.867905
C	 -0.766325	 -0.960218	 -0.107655
H	 -0.071960	 -3.016625	 2.473425
C	 -0.021168	 -1.655797	 0.837159
H	 -0.271438	 -0.319823	 -0.811431
C	 1.463013	 -1.545621	 0.912827
O	 1.970282	 -0.730723	 0.000018
O	 2.133797	 -2.125886	 1.707937
C	 3.377318	 -0.566646	 -0.000065
H	 3.695437	 -0.028981	 -0.881264
H	 3.789299	 -1.563704	 0.000236
H	 3.695516	 -0.028316	 0.880770

	symmetry c1
}
set optking {
	frozen_dihedral = ("
		12 13 15 16
	")
}

ee = optimize('scf')
oeprop('DIPOLE', 'QUADRUPOLE', 'MULLIKEN_CHARGES')
f=open( 'psi4out.xyz', 'w' )
f.write( "18  " )
f.write( str(ee) + "\n" )
f.write( MOL.save_string_xyz() )
f.close()
--------------------------------------------------------------------------

    Molecular point group: c1
  Charge       = 0
  Multiplicity = 1
  Basis Set: 6-31G*
  Basis Set:
  @DF-RHF Final Energy:  -457.34881183170069
    Total Energy =                       -457.3488118317009139
    Molecular point group: c1
  Basis Set: 6-31G*
  Basis Set:
  Basis Set: 6-31G*
  Basis Set:
  @DF-RHF Final Energy:  -457.35014058838146
    Total Energy =                       -457.3501405883810094
  Basis Set: 6-31G*
  Basis Set:
  Basis Set: 6-31G*
  Basis Set:
  @DF-RHF Final Energy:  -457.35047670136811
    Total Energy =                       -457.3504767013685068
  Basis Set: 6-31G*
  Basis Set:
  Basis Set: 6-31G*
  Basis Set:
  @DF-RHF Final Energy:  -457.35003911060244
    Total Energy =                       -457.3500391106024381
  Basis Set: 6-31G*
  Basis Set:
  Basis Set: 6-31G*
  Basis Set:
  @DF-RHF Final Energy:  -457.35049491130235
    Total Energy =                       -457.3504949113028033
  Basis Set: 6-31G*
  Basis Set:
  Charge       = 0
  Multiplicity = 1
  Basis Set: 6-31G*
  Basis Set:

    Orbital Energies (a.u.)
    -----------------------

    Doubly Occupied:

       1A    -20.607623     2A    -20.544405     3A    -11.378002
       4A    -11.282870     5A    -11.245499     6A    -11.245230
       7A    -11.244074     8A    -11.241646     9A    -11.237423
      10A    -11.236662    11A     -1.472634    12A     -1.364007
      13A     -1.165239    14A     -1.048091    15A     -1.024763
      16A     -0.978265    17A     -0.860149    18A     -0.834269
      19A     -0.777739    20A     -0.739920    21A     -0.683368
      22A     -0.677389    23A     -0.671863    24A     -0.631063
      25A     -0.623901    26A     -0.597748    27A     -0.584659
      28A     -0.561996    29A     -0.528819    30A     -0.516589
      31A     -0.503433    32A     -0.498869    33A     -0.459099
      34A     -0.444369    35A     -0.344815    36A     -0.340936

  @DF-RHF Final Energy:  -457.35049531010560

   => Energetics <=

    Nuclear Repulsion Energy =            492.9946234883516922
    One-Electron Energy =               -1600.2953874216959775
    Two-Electron Energy =                 649.9502686232390261
    DFT Exchange-Correlation Energy =       0.0000000000000000
    Empirical Dispersion Energy =           0.0000000000000000
    PCM Polarization Energy =               0.0000000000000000
    EFP Energy =                            0.0000000000000000
    Total Energy =                       -457.3504953101053161
    Molecular point group: c1
  Basis Set: 6-31G*
  Basis Set:

  -Total Gradient:
     Atom            X                  Y                   Z
    ------   -----------------  -----------------  -----------------
       1        0.000000758985     0.000001079016    -0.000000616903
       2       -0.000001333240    -0.000005194125     0.000003394270
       3        0.000001885985     0.000008220491     0.000002845024
       4        0.000013581508     0.000000521936    -0.000007808141
       5        0.000006254649    -0.000001052996     0.000000434727
       6        0.000031202014    -0.000003959272    -0.000003699389
       7        0.000004720239     0.000002923578     0.000000187832
       8        0.000021587273    -0.000003303589     0.000016144416
       9        0.000002511214    -0.000003894129     0.000006515032
      10        0.000026321955     0.000020884421    -0.000011291661
      11        0.000014672471     0.000011902901    -0.000012736419
      12        0.000183982424    -0.000671225281    -0.000572415562
      13       -0.000096785739     0.000837626323     0.000605589106
      14       -0.000078434035    -0.000059729448     0.000090932098
      15       -0.000075803410     0.000732174086     0.000366442938
      16        0.000037523848    -0.000839555397    -0.000496918278
      17       -0.000045235382    -0.000025000397     0.000001593490
      18       -0.000047410764    -0.000002418115     0.000011407414

  **** Optimization is complete! (in 6 steps) ****
    Final optimized geometry and variables:
    Molecular point group: c1

    Geometry (in Angstrom), charge = 0, multiplicity = 1:

    H           -4.028956538462    -0.474334881192     0.000029531223
    C           -2.958771233821    -0.371448766702     0.028652880570
    C           -2.222332225828    -1.068350041260     0.974832783060
    C           -2.320425446051     0.457445797689    -0.880371713174
    H           -2.718649116987    -1.710829568872     1.679337999784
    C           -0.846350865176    -0.935479057465     1.011066461884
    H           -2.892975101464     0.996916432150    -1.612989618510
    C           -0.943072585044     0.591946742616    -0.845985152016
    H           -0.260540676444    -1.467011054139     1.736273739950
    C           -0.202172141455    -0.105214949548     0.100991658568
    H           -0.445109182290     1.232466988052    -1.547458768480
    C            1.281964672093     0.002869746725     0.182115064284
    O            1.791980939155     0.821151387823    -0.726041464431
    O            1.948628462758    -0.580801838588     0.978276973424
    C            3.200406957063     0.971388735757    -0.738899823319
    H            3.429753855887     1.518984556359    -1.639693876030
    H            3.684884835040     0.006939380044    -0.754897028847
    H            3.527582201217     1.521883339004     0.131796220738

  Mulliken Charges: (a.u.)
   Center  Symbol    Alpha    Beta     Spin     Total
       1     H     0.39540  0.39540  0.00000  0.20919
       2     C     3.08999  3.08999  0.00000 -0.17998
       3     C     3.10712  3.10712  0.00000 -0.21425
       4     C     3.10717  3.10717  0.00000 -0.21434
       5     H     0.39538  0.39538  0.00000  0.20924
       6     C     3.08641  3.08641  0.00000 -0.17281
       7     H     0.39627  0.39627  0.00000  0.20745
       8     C     3.08713  3.08713  0.00000 -0.17426
       9     H     0.37596  0.37596  0.00000  0.24809
      10     C     3.07718  3.07718  0.00000 -0.15437
      11     H     0.38044  0.38044  0.00000  0.23913
      12     C     2.57963  2.57963  0.00000  0.84074
      13     O     4.31490  4.31490  0.00000 -0.62980
      14     O     4.29181  4.29181  0.00000 -0.58362
      15     C     3.09288  3.09288  0.00000 -0.18577
      16     H     0.40813  0.40813  0.00000  0.18374
      17     H     0.40486  0.40486  0.00000  0.19027
      18     H     0.40933  0.40933  0.00000  0.18135

   Total alpha = 36.00000, Total beta = 36.00000, Total charge = -0.00000
