  ==> Input File <==

--------------------------------------------------------------------------
set {
	reference rhf
	basis 6-31G*
}

set_num_threads( 4 )
memory 2 gb

molecule MOL {
0 1

H	 1.187178	 -0.191152	 0.829831
C	 0.850167	 0.441173	 0.000644
C	 -0.623425	 0.760064	 0.000248
O	 1.627160	 0.825156	 -0.812120
C	 -1.518387	 -0.473136	 -0.000101
H	 -0.818289	 1.390622	 -0.866171
H	 -0.818694	 1.390413	 0.866696
H	 -1.333417	 -1.085530	 -0.874338
H	 -2.563510	 -0.183466	 -0.000351
H	 -1.333864	 -1.085676	 0.874123

	symmetry c1
}
set optking {
	frozen_dihedral = ("
		4 2 3 6
	")
}

ee = optimize('scf')
oeprop('DIPOLE', 'QUADRUPOLE', 'MULLIKEN_CHARGES')
f=open( 'psi4out.xyz', 'w' )
f.write( "10  " )
f.write( str(ee) + "\n" )
f.write( MOL.save_string_xyz() )
f.close()
--------------------------------------------------------------------------

    Molecular point group: c1
  Charge       = 0
  Multiplicity = 1
  Basis Set: 6-31G*
  Basis Set:
  @DF-RHF Final Energy:  -191.94974031235284
    Total Energy =                       -191.9497403123527874
    Molecular point group: c1
  Basis Set: 6-31G*
  Basis Set:
  Basis Set: 6-31G*
  Basis Set:
  @DF-RHF Final Energy:  -191.95014419368391
    Total Energy =                       -191.9501441936839399
  Basis Set: 6-31G*
  Basis Set:
  Basis Set: 6-31G*
  Basis Set:
  @DF-RHF Final Energy:  -191.95013971283822
    Total Energy =                       -191.9501397128381370
  Basis Set: 6-31G*
  Basis Set:
  Basis Set: 6-31G*
  Basis Set:
  @DF-RHF Final Energy:  -191.95022213952331
    Total Energy =                       -191.9502221395233335
  Basis Set: 6-31G*
  Basis Set:
  Charge       = 0
  Multiplicity = 1
  Basis Set: 6-31G*
  Basis Set:

    Orbital Energies (a.u.)
    -----------------------

    Doubly Occupied:

       1A    -20.564073     2A    -11.327922     3A    -11.239116
       4A    -11.234285     5A     -1.403924     6A     -1.067084
       7A     -0.904309     8A     -0.794014     9A     -0.674009
      10A     -0.640474    11A     -0.615688    12A     -0.567011
      13A     -0.543703    14A     -0.515307    15A     -0.495716
      16A     -0.412602

  @DF-RHF Final Energy:  -191.95022636794076

   => Energetics <=

    Nuclear Repulsion Energy =            117.3304744007754437
    One-Electron Energy =                -492.5629245403910090
    Two-Electron Energy =                 183.2822237716749214
    DFT Exchange-Correlation Energy =       0.0000000000000000
    Empirical Dispersion Energy =           0.0000000000000000
    PCM Polarization Energy =               0.0000000000000000
    EFP Energy =                            0.0000000000000000
    Total Energy =                       -191.9502263679406724
    Molecular point group: c1
  Basis Set: 6-31G*
  Basis Set:

  -Total Gradient:
     Atom            X                  Y                   Z
    ------   -----------------  -----------------  -----------------
       1        0.000005834466     0.000024557044     0.000014285045
       2        0.000047012400     0.000120967434     0.000166907869
       3       -0.000063162513    -0.000312409454    -0.000081522219
       4       -0.000073470581    -0.000086482819    -0.000085960641
       5        0.000073587638     0.000062846629    -0.000049410811
       6        0.000003516290     0.000162994638     0.000016901553
       7        0.000014535620    -0.000017504607    -0.000004134074
       8       -0.000008269990     0.000003187576     0.000032762503
       9       -0.000028150628     0.000021640545    -0.000004435200
      10        0.000028567298     0.000020203012    -0.000005394025

  **** Optimization is complete! (in 5 steps) ****
    Final optimized geometry and variables:
    Molecular point group: c1

    Geometry (in Angstrom), charge = 0, multiplicity = 1:

    H            1.077469919201    -0.568264981154     1.055917513386
    C            0.757540524988     0.060180515182     0.215930990056
    C           -0.708952381415     0.407697611204     0.198702412800
    O            1.545025741297     0.412953290659    -0.600729473164
    C           -1.588275107879    -0.847465729510     0.209296586535
    H           -0.903032311903     1.021202106620    -0.672573011700
    H           -0.919187743919     1.004118802787     1.084706570517
    H           -1.423450384359    -1.448164705850    -0.678947065405
    H           -2.637133644976    -0.575862942109     0.238942245212
    H           -1.382556635473    -1.467212115020     1.076938931451

  Mulliken Charges: (a.u.)
   Center  Symbol    Alpha    Beta     Spin     Total
       1     H     0.43234  0.43234  0.00000  0.13533
       2     C     2.83067  2.83067  0.00000  0.33866
       3     C     3.20674  3.20674  0.00000 -0.41347
       4     O     4.23606  4.23606  0.00000 -0.47213
       5     C     3.25184  3.25184  0.00000 -0.50367
       6     H     0.39834  0.39834  0.00000  0.20331
       7     H     0.40873  0.40873  0.00000  0.18254
       8     H     0.40994  0.40994  0.00000  0.18011
       9     H     0.40888  0.40888  0.00000  0.18225
      10     H     0.41646  0.41646  0.00000  0.16707

   Total alpha = 16.00000, Total beta = 16.00000, Total charge = -0.00000
