                              Psi4 1.0.54 Driver

  ==> Input File <==

--------------------------------------------------------------------------
set {
	reference rhf
	basis cc-pvtz
}

set_num_threads( 4 )
memory 2 gb

molecule MOL {
0 1

H	 -2.701977	 1.075042	 1.150266
O	 -1.882624	 0.606380	 1.202552
C	 -1.605397	 0.107680	 0.001145
C	 -0.310616	 -0.658853	 0.000791
O	 -2.320202	 0.268447	 -0.926852
C	 0.926581	 0.227233	 0.000178
H	 -0.327628	 -1.313681	 -0.864448
H	 -0.327041	 -1.313334	 0.866298
C	 2.220156	 -0.582071	 -0.000088
H	 0.899945	 0.878221	 -0.866390
H	 0.900542	 0.878581	 0.866486
C	 3.466689	 0.296012	 -0.000457
H	 2.239073	 -1.234095	 -0.869382
H	 2.239505	 -1.233985	 0.869270
H	 3.493549	 0.935857	 -0.875887
H	 4.368821	 -0.304526	 -0.001199
H	 3.494559	 0.935166	 0.875458

	symmetry c1
}
set optking {
	frozen_dihedral = ("
		2 3 4 7
	")
}

ee,wfn = optimize('scf', return_wfn=True)
oeprop( wfn, 'DIPOLE', 'QUADRUPOLE', 'MULLIKEN_CHARGES')
f=open( 'psi4out.xyz', 'w' )
f.write( "17  " )
f.write( str(ee) + "\n" )
f.write( MOL.save_string_xyz() )
f.close()
--------------------------------------------------------------------------

    Molecular point group: c1
  Charge       = 0
  Multiplicity = 1
  Basis Set: CC-PVTZ
  Basis Set:
  @DF-RHF Final Energy:  -345.04712152491629
    Total Energy =                       -345.0471215249162356
    Molecular point group: c1
  Basis Set: CC-PVTZ
  Basis Set:
  Basis Set: CC-PVTZ
  Basis Set:
  @DF-RHF Final Energy:  -345.04758873621682
    Total Energy =                       -345.0475887362168805
  Basis Set: CC-PVTZ
  Basis Set:
  Basis Set: CC-PVTZ
  Basis Set:
  @DF-RHF Final Energy:  -345.04738350376317
    Total Energy =                       -345.0473835037630579
  Basis Set: CC-PVTZ
  Basis Set:
  Basis Set: CC-PVTZ
  Basis Set:
  @DF-RHF Final Energy:  -345.04765673924027
    Total Energy =                       -345.0476567392403240
  Basis Set: CC-PVTZ
  Basis Set:
  Basis Set: CC-PVTZ
  Basis Set:
  @DF-RHF Final Energy:  -345.04767022526346
    Total Energy =                       -345.0476702252634595
  Basis Set: CC-PVTZ
  Basis Set:
  Charge       = 0
  Multiplicity = 1
  Basis Set: CC-PVTZ
  Basis Set:

    Orbital Energies (a.u.)
    -----------------------

    Doubly Occupied:

       1A    -20.604648     2A    -20.538701     3A    -11.372239
       4A    -11.237514     5A    -11.231302     6A    -11.224827
       7A    -11.214284     8A     -1.476971     9A     -1.367723
      10A     -1.096646    11A     -1.021261    12A     -0.912230
      13A     -0.824920    14A     -0.807047    15A     -0.705806
      16A     -0.685105    17A     -0.652681    18A     -0.643271
      19A     -0.589236    20A     -0.587935    21A     -0.582222
      22A     -0.538851    23A     -0.517184    24A     -0.496729
      25A     -0.486666    26A     -0.479762    27A     -0.473709
      28A     -0.438230

  @DF-RHF Final Energy:  -345.04767040852454

   => Energetics <=

    Nuclear Repulsion Energy =            305.4702282655516115
    One-Electron Energy =               -1075.4203972787345265
    Two-Electron Energy =                 424.9024986046587742
    DFT Exchange-Correlation Energy =       0.0000000000000000
    Empirical Dispersion Energy =           0.0000000000000000
    PCM Polarization Energy =               0.0000000000000000
    EFP Energy =                            0.0000000000000000
    Total Energy =                       -345.0476704085240840
    Molecular point group: c1
  Basis Set: CC-PVTZ
  Basis Set:

  -Total Gradient:
     Atom            X                  Y                   Z
    ------   -----------------  -----------------  -----------------
       1        0.000014292439    -0.000009491670    -0.000020937083
       2       -0.000044538040    -0.000129019248     0.000024548578
       3        0.000054816571     0.000136071500     0.000063836204
       4        0.000069861083     0.000157289837    -0.000113873281
       5        0.000005783520    -0.000016699561    -0.000042614850
       6       -0.000014798753    -0.000024110172    -0.000005319701
       7       -0.000080565848    -0.000114566720     0.000078537320
       8       -0.000007659173    -0.000009557618     0.000013885996
       9        0.000003535855     0.000002685729    -0.000002232415
      10        0.000004982018    -0.000002618273    -0.000007353444
      11        0.000006433226    -0.000000255098     0.000003600539
      12       -0.000000220059    -0.000000771169     0.000008237084
      13       -0.000008280242     0.000009105891     0.000000571931
      14       -0.000004223418     0.000002516316    -0.000003148573
      15       -0.000001995909    -0.000003778809    -0.000000129709
      16        0.000001380519     0.000001140295     0.000001653366
      17        0.000001196208     0.000002058769     0.000000738037

  **** Optimization is complete! (in 6 steps) ****
    Final optimized geometry and variables:
    Molecular point group: c1

    Geometry (in Angstrom), charge = 0, multiplicity = 1:

    H           -2.712566909593     1.070824811818     1.086555566152
    O           -1.929215417971     0.546669522796     1.160860938129
    C           -1.630368566860     0.064768027376    -0.042277654844
    C           -0.367167582205    -0.750703896807    -0.038837769167
    O           -2.296551647258     0.290530046553    -0.993352401076
    C            0.878385395144     0.143322613019    -0.045840191199
    H           -0.386472937621    -1.377838263897    -0.918501511167
    H           -0.362191322822    -1.382279538259     0.840999274831
    C            2.171708924271    -0.665677674425    -0.064649145158
    H            0.843730700605     0.792154432961    -0.915512914606
    H            0.864022733383     0.786174193216     0.827811302156
    C            3.418115674714     0.212451726640    -0.077485355998
    H            2.176940569734    -1.313560658563    -0.936389097460
    H            2.198634666185    -1.318829587579     0.802994282623
    H            3.435755788330     0.853744876056    -0.952091897664
    H            4.319260509981    -0.389192239683    -0.090210371304
    H            3.457328516752     0.849124068483     0.799873241496

  Mulliken Charges: (a.u.)
   Center  Symbol    Alpha    Beta     Spin     Total
       1     H     0.38045  0.38045  0.00000  0.23911
       2     O     4.16430  4.16430  0.00000 -0.32860
       3     C     2.80546  2.80546  0.00000  0.38908
       4     C     3.08628  3.08628  0.00000 -0.17255
       5     O     4.19703  4.19703  0.00000 -0.39406
       6     C     3.10008  3.10008  0.00000 -0.20017
       7     H     0.43719  0.43719  0.00000  0.12562
       8     H     0.44317  0.44317  0.00000  0.11366
       9     C     3.08736  3.08736  0.00000 -0.17472
      10     H     0.44501  0.44501  0.00000  0.10998
      11     H     0.44478  0.44478  0.00000  0.11044
      12     C     3.14928  3.14928  0.00000 -0.29856
      13     H     0.45205  0.45205  0.00000  0.09590
      14     H     0.45304  0.45304  0.00000  0.09392
      15     H     0.45336  0.45336  0.00000  0.09328
      16     H     0.44709  0.44709  0.00000  0.10582
      17     H     0.45408  0.45408  0.00000  0.09184

   Total alpha = 28.00000, Total beta = 28.00000, Total charge =  0.00000

*** Psi4 exiting successfully. Buy a developer a beer!
