                              Psi4 1.0.54 Driver

  ==> Input File <==

--------------------------------------------------------------------------
set {
	reference rhf
	basis cc-pvtz
}

set_num_threads( 4 )
memory 2 gb

molecule MOL {
0 1

H	 -3.409084	 -0.224067	 0.507499
O	 -2.638304	 -0.732688	 0.305207
C	 -1.583836	 0.077795	 0.317477
C	 -0.310616	 -0.658853	 0.000791
O	 -1.680996	 1.232853	 0.550653
C	 0.926581	 0.227233	 0.000178
H	 -0.451545	 -1.140729	 -0.961322
H	 -0.219480	 -1.463614	 0.723128
C	 2.220156	 -0.582071	 -0.000088
H	 0.899945	 0.878221	 -0.866390
H	 0.900542	 0.878581	 0.866486
C	 3.466689	 0.296012	 -0.000457
H	 2.239073	 -1.234095	 -0.869382
H	 2.239505	 -1.233985	 0.869270
H	 3.493549	 0.935857	 -0.875887
H	 4.368821	 -0.304526	 -0.001199
H	 3.494559	 0.935166	 0.875458

	symmetry c1
}
set optking {
	frozen_dihedral = ("
		7 4 6 10
	")
}

ee,wfn = optimize('scf', return_wfn=True)
oeprop( wfn, 'DIPOLE', 'QUADRUPOLE', 'MULLIKEN_CHARGES')
f=open( 'psi4out.xyz', 'w' )
f.write( "17  " )
f.write( str(ee) + "\n" )
f.write( MOL.save_string_xyz() )
f.close()
--------------------------------------------------------------------------

    Molecular point group: c1
  Charge       = 0
  Multiplicity = 1
  Basis Set: CC-PVTZ
  Basis Set:
  @DF-RHF Final Energy:  -345.04835014501373
    Total Energy =                       -345.0483501450137283
    Molecular point group: c1
  Basis Set: CC-PVTZ
  Basis Set:
  Basis Set: CC-PVTZ
  Basis Set:
  @DF-RHF Final Energy:  -345.04835526031229
    Total Energy =                       -345.0483552603123485
  Basis Set: CC-PVTZ
  Basis Set:
  Basis Set: CC-PVTZ
  Basis Set:
  @DF-RHF Final Energy:  -345.04823590628547
    Total Energy =                       -345.0482359062857540
  Basis Set: CC-PVTZ
  Basis Set:
  Basis Set: CC-PVTZ
  Basis Set:
  @DF-RHF Final Energy:  -345.04843115224145
    Total Energy =                       -345.0484311522411645
  Basis Set: CC-PVTZ
  Basis Set:
  Basis Set: CC-PVTZ
  Basis Set:
  @DF-RHF Final Energy:  -345.04843493818680
    Total Energy =                       -345.0484349381870857
  Basis Set: CC-PVTZ
  Basis Set:
  Charge       = 0
  Multiplicity = 1
  Basis Set: CC-PVTZ
  Basis Set:

    Orbital Energies (a.u.)
    -----------------------

    Doubly Occupied:

       1A    -20.604067     2A    -20.540706     3A    -11.373602
       4A    -11.239522     5A    -11.221199     6A    -11.220541
       7A    -11.210589     8A     -1.477666     9A     -1.369164
      10A     -1.092691    11A     -1.019745    12A     -0.914908
      13A     -0.824768    14A     -0.790717    15A     -0.703943
      16A     -0.688314    17A     -0.671752    18A     -0.631524
      19A     -0.592985    20A     -0.585253    21A     -0.575600
      22A     -0.537848    23A     -0.510384    24A     -0.484852
      25A     -0.482935    26A     -0.477333    27A     -0.472824
      28A     -0.446083

  @DF-RHF Final Energy:  -345.04843513329081

   => Energetics <=

    Nuclear Repulsion Energy =            304.8110169004829686
    One-Electron Energy =               -1074.1958745212582471
    Two-Electron Energy =                 424.3364224874845831
    DFT Exchange-Correlation Energy =       0.0000000000000000
    Empirical Dispersion Energy =           0.0000000000000000
    PCM Polarization Energy =               0.0000000000000000
    EFP Energy =                            0.0000000000000000
    Total Energy =                       -345.0484351332906954
    Molecular point group: c1
  Basis Set: CC-PVTZ
  Basis Set:

  -Total Gradient:
     Atom            X                  Y                   Z
    ------   -----------------  -----------------  -----------------
       1        0.000000349867     0.000001419050     0.000001596489
       2        0.000004990785    -0.000000213318    -0.000019357853
       3        0.000015799759    -0.000022103280     0.000057347846
       4        0.001749691285    -0.002426979743     0.000523250474
       5       -0.000002712714     0.000027087126    -0.000006623850
       6       -0.001628330448     0.002228295438     0.001191291975
       7       -0.001181683954     0.001662921554    -0.000655854255
       8        0.000005072732     0.000011282975    -0.000003301539
       9        0.000003426274    -0.000014402482     0.000052270517
      10        0.001038943637    -0.001448992699    -0.001136886999
      11       -0.000005170124    -0.000016093393    -0.000004271699
      12       -0.000004263005     0.000000421936    -0.000006440832
      13       -0.000010257953     0.000011677435     0.000009404716
      14        0.000022341284    -0.000012219200     0.000003640768
      15       -0.000000522142     0.000003789222     0.000000996364
      16       -0.000006712113    -0.000002140626    -0.000003875508
      17       -0.000000963182    -0.000003749993    -0.000003186613

  **** Optimization is complete! (in 6 steps) ****
    Final optimized geometry and variables:
    Molecular point group: c1

    Geometry (in Angstrom), charge = 0, multiplicity = 1:

    H           -3.425827963012    -0.208518591761     0.299580200756
    O           -2.651356139937    -0.717352671712     0.112471396013
    C           -1.597809430065     0.094179528022     0.141262817382
    C           -0.318566220964    -0.644562439859    -0.150264909711
    O           -1.700635944808     1.249569976372     0.370307143113
    C            0.917528135762     0.244989536100    -0.139941370799
    H           -0.453900752006    -1.119656454529    -1.116280112358
    H           -0.240455856268    -1.446336224372     0.576255188767
    C            2.211489754306    -0.565030249776    -0.170018413785
    H            0.891142734206     0.901363175376    -1.003036156047
    H            0.899795861857     0.881019248527     0.736245767956
    C            3.457613917956     0.312926687529    -0.200945373755
    H            2.210535383185    -1.219098544514    -1.038124088100
    H            2.250536596310    -1.214792993637     0.700166382425
    H            3.466830488329     0.947973324467    -1.080282249547
    H            4.359644339877    -0.287566199390    -0.216778926777
    H            3.503031744949     0.956958946553     0.670654798354

  Mulliken Charges: (a.u.)
   Center  Symbol    Alpha    Beta     Spin     Total
       1     H     0.38244  0.38244  0.00000  0.23513
       2     O     4.16000  4.16000  0.00000 -0.32000
       3     C     2.80442  2.80442  0.00000  0.39116
       4     C     3.11118  3.11118  0.00000 -0.22236
       5     O     4.19091  4.19091  0.00000 -0.38182
       6     C     3.08295  3.08295  0.00000 -0.16590
       7     H     0.43712  0.43712  0.00000  0.12576
       8     H     0.43854  0.43854  0.00000  0.12293
       9     C     3.08617  3.08617  0.00000 -0.17235
      10     H     0.44924  0.44924  0.00000  0.10153
      11     H     0.44271  0.44271  0.00000  0.11458
      12     C     3.14925  3.14925  0.00000 -0.29850
      13     H     0.45508  0.45508  0.00000  0.08983
      14     H     0.45458  0.45458  0.00000  0.09084
      15     H     0.45400  0.45400  0.00000  0.09200
      16     H     0.44802  0.44802  0.00000  0.10397
      17     H     0.45340  0.45340  0.00000  0.09320

   Total alpha = 28.00000, Total beta = 28.00000, Total charge =  0.00000

*** Psi4 exiting successfully. Buy a developer a beer!
