                              Psi4 1.0.54 Driver

  ==> Input File <==

--------------------------------------------------------------------------
set {
	reference rhf
	basis cc-pvtz
}

set_num_threads( 4 )
memory 2 gb

molecule MOL {
0 1

H	 1.357970	 -1.360809	 0.000000
C	 0.788184	 -0.429792	 0.000000
N	 -0.537626	 -0.645090	 0.000000
O	 1.323977	 0.633055	 -0.000000
C	 -1.522525	 0.412551	 0.000000
H	 -0.845806	 -1.585839	 0.000000
H	 -2.150168	 0.356164	 -0.880771
H	 -1.005533	 1.357235	 0.000000
H	 -2.150168	 0.356164	 0.880771

	symmetry c1
}
ee,wfn = energy('scf', return_wfn=True)
oeprop( wfn, 'DIPOLE', 'QUADRUPOLE', 'MULLIKEN_CHARGES')
oeprop( wfn, 'GRID_ESP')
f=open( 'psi4out.xyz', 'w' )
f.write( "9  " )
f.write( str(ee) + "\n" )
f.write( MOL.save_string_xyz() )
f.close()
--------------------------------------------------------------------------

    Molecular point group: c1

    Geometry (in Angstrom), charge = 0, multiplicity = 1:

       Center              X                  Y                   Z               Mass
    ------------   -----------------  -----------------  -----------------  -----------------
           H          1.357882351525    -1.360835719573     0.000000000000     1.007825032070
           C          0.788096351525    -0.429818719573     0.000000000000    12.000000000000
           N         -0.537713648475    -0.645116719573     0.000000000000    14.003074004780
           O          1.323889351525     0.633028280427     0.000000000000    15.994914619560
           C         -1.522612648475     0.412524280427     0.000000000000    12.000000000000
           H         -0.845893648475    -1.585865719573     0.000000000000     1.007825032070
           H         -2.150255648475     0.356137280427    -0.880771000000     1.007825032070
           H         -1.005620648475     1.357208280427     0.000000000000     1.007825032070
           H         -2.150255648475     0.356137280427     0.880771000000     1.007825032070

  Charge       = 0
  Multiplicity = 1
  Basis Set: CC-PVTZ
  Basis Set:

    Orbital Energies (a.u.)
    -----------------------

    Doubly Occupied:

       1A    -20.515819     2A    -15.585220     3A    -11.337628
       4A    -11.259114     5A     -1.393376     6A     -1.240059
       7A     -0.970637     8A     -0.808333     9A     -0.748890
      10A     -0.646332    11A     -0.629276    12A     -0.596958
      13A     -0.554790    14A     -0.542894    15A     -0.427984
      16A     -0.395797

  @DF-RHF Final Energy:  -208.04356667006459

   => Energetics <=

    Nuclear Repulsion Energy =            122.6867708074377106
    One-Electron Energy =                -526.1542912506570246
    Two-Electron Energy =                 195.4239537731547500
    DFT Exchange-Correlation Energy =       0.0000000000000000
    Empirical Dispersion Energy =           0.0000000000000000
    PCM Polarization Energy =               0.0000000000000000
    EFP Energy =                            0.0000000000000000
    Total Energy =                       -208.0435666700645641

  Mulliken Charges: (a.u.)
   Center  Symbol    Alpha    Beta     Spin     Total
       1     H     0.46272  0.46272  0.00000  0.07456
       2     C     2.88102  2.88102  0.00000  0.23796
       3     N     3.60828  3.60828  0.00000 -0.21657
       4     O     4.21537  4.21537  0.00000 -0.43074
       5     C     3.08129  3.08129  0.00000 -0.16258
       6     H     0.40928  0.40928  0.00000  0.18144
       7     H     0.45469  0.45469  0.00000  0.09061
       8     H     0.43264  0.43264  0.00000  0.13471
       9     H     0.45469  0.45469  0.00000  0.09061

   Total alpha = 16.00000, Total beta = 16.00000, Total charge =  0.00000

*** Psi4 exiting successfully. Buy a developer a beer!
