  ==> Input File <==

--------------------------------------------------------------------------
set {
	reference rhf
	basis 6-31G*
}

set_num_threads( 4 )
memory 2 gb

molecule MOL {
0 1

O	 -1.276010	 1.052711	 -0.768302
C	 -1.204840	 0.067374	 -0.106123
C	 -2.388195	 -0.672128	 0.458071
O	 -0.067104	 -0.527208	 0.221609
H	 -2.388023	 -1.694060	 0.097175
H	 -3.300579	 -0.174919	 0.164318
H	 -2.315377	 -0.706351	 1.539059
C	 0.791642	 -1.010781	 -0.820811
C	 1.606637	 -2.132922	 -0.202612
C	 1.650283	 0.127947	 -1.348713
H	 0.166986	 -1.395216	 -1.613605
H	 0.957328	 -2.914820	 0.174588
H	 2.269504	 -2.565962	 -0.944512
H	 2.208278	 -1.761606	 0.620070
H	 2.318849	 -0.236448	 -2.122181
H	 1.033091	 0.908003	 -1.775986
H	 2.250480	 0.551989	 -0.549989

	symmetry c1
}
set optking {
	frozen_dihedral = ("
		8 4 2 1
	")
}

ee = optimize('scf')
oeprop('DIPOLE', 'QUADRUPOLE', 'MULLIKEN_CHARGES')
f=open( 'psi4out.xyz', 'w' )
f.write( "17  " )
f.write( str(ee) + "\n" )
f.write( MOL.save_string_xyz() )
f.close()
--------------------------------------------------------------------------

    Molecular point group: c1
  Charge       = 0
  Multiplicity = 1
  Basis Set: 6-31G*
  Basis Set:
  @DF-RHF Final Energy:  -344.89945004173967
    Total Energy =                       -344.8994500417398967
    Molecular point group: c1
  Basis Set: 6-31G*
  Basis Set:
  Basis Set: 6-31G*
  Basis Set:
  @DF-RHF Final Energy:  -344.89781416648873
    Total Energy =                       -344.8978141664885015
  Basis Set: 6-31G*
  Basis Set:
  Basis Set: 6-31G*
  Basis Set:
  @DF-RHF Final Energy:  -344.90067527682555
    Total Energy =                       -344.9006752768256092
  Basis Set: 6-31G*
  Basis Set:
  Basis Set: 6-31G*
  Basis Set:
  @DF-RHF Final Energy:  -344.90083440405533
    Total Energy =                       -344.9008344040552743
  Basis Set: 6-31G*
  Basis Set:
  Basis Set: 6-31G*
  Basis Set:
  @DF-RHF Final Energy:  -344.90087503331438
    Total Energy =                       -344.9008750333143780
  Basis Set: 6-31G*
  Basis Set:
  Basis Set: 6-31G*
  Basis Set:
  @DF-RHF Final Energy:  -344.90088846562742
    Total Energy =                       -344.9008884656274176
  Basis Set: 6-31G*
  Basis Set:
  Basis Set: 6-31G*
  Basis Set:
  @DF-RHF Final Energy:  -344.90089035544025
    Total Energy =                       -344.9008903554403105
  Basis Set: 6-31G*
  Basis Set:
  Charge       = 0
  Multiplicity = 1
  Basis Set: 6-31G*
  Basis Set:

    Orbital Energies (a.u.)
    -----------------------

    Doubly Occupied:

       1A    -20.584815     2A    -20.551889     3A    -11.376430
       4A    -11.298338     5A    -11.234431     6A    -11.222139
       7A    -11.212503     8A     -1.458120     9A     -1.363413
      10A     -1.075332    11A     -1.007637    12A     -0.947675
      13A     -0.844387    14A     -0.771187    15A     -0.691749
      16A     -0.672325    17A     -0.650954    18A     -0.609934
      19A     -0.590662    20A     -0.583030    21A     -0.561253
      22A     -0.550532    23A     -0.547806    24A     -0.514619
      25A     -0.495277    26A     -0.489046    27A     -0.443567
      28A     -0.435588

  @DF-RHF Final Energy:  -344.90089066016503

   => Energetics <=

    Nuclear Repulsion Energy =            321.8726201183369540
    One-Electron Energy =               -1107.9777449348448499
    Two-Electron Energy =                 441.2042341563429773
    DFT Exchange-Correlation Energy =       0.0000000000000000
    Empirical Dispersion Energy =           0.0000000000000000
    PCM Polarization Energy =               0.0000000000000000
    EFP Energy =                            0.0000000000000000
    Total Energy =                       -344.9008906601649187
    Molecular point group: c1
  Basis Set: 6-31G*
  Basis Set:

  -Total Gradient:
     Atom            X                  Y                   Z
    ------   -----------------  -----------------  -----------------
       1        0.000038867915     0.005891159245     0.006736561356
       2       -0.001419528446    -0.011938239682    -0.009357726025
       3        0.000007424916    -0.000129485866    -0.000101333667
       4        0.004010763126     0.012757034235     0.001699726543
       5       -0.000001421405    -0.000003782211     0.000006246774
       6        0.000020543824     0.000008303676    -0.000004930221
       7       -0.000001297892     0.000006087141     0.000011122976
       8       -0.002636629778    -0.006580201960     0.001051879219
       9       -0.000001569494    -0.000005782822    -0.000011474878
      10       -0.000018228407     0.000017746157    -0.000021835169
      11       -0.000013315767    -0.000009872766    -0.000015041288
      12        0.000003486227     0.000004300822     0.000000435910
      13        0.000003631441    -0.000010025474     0.000003109856
      14       -0.000002048635     0.000002547085    -0.000004151237
      15        0.000003205732    -0.000004269265    -0.000004375931
      16        0.000014662005    -0.000000092490     0.000011410642
      17       -0.000008545359    -0.000005425830     0.000000375143

  **** Optimization is complete! (in 8 steps) ****
    Final optimized geometry and variables:
    Molecular point group: c1

    Geometry (in Angstrom), charge = 0, multiplicity = 1:

    O           -1.294571226635     1.332312077225    -0.575134301544
    C           -1.131277217442     0.448735700545     0.197373021193
    C           -2.238393653166    -0.241552514699     0.946654653507
    O            0.082146941514     0.017445679099     0.572976647382
    H           -2.239313137174    -1.298606548999     0.701611408814
    H           -3.191545947291     0.197502554733     0.691625174755
    H           -2.059687962817    -0.157026422210     2.012491761616
    C            0.969161598206    -0.492730056363    -0.434981671649
    C            1.694569114491    -1.672102406268     0.187735027403
    C            1.907494424141     0.607787755001    -0.903490135985
    H            0.367100722796    -0.831995363783    -1.270989925725
    H            0.990677610157    -2.432067156036     0.507473774192
    H            2.378277233069    -2.114889297213    -0.529226663170
    H            2.264125818755    -1.349555193003     1.052389576818
    H            2.586556376444     0.228408005626    -1.661166015088
    H            1.344308233724     1.431823225294    -1.320727998555
    H            2.494853489675     0.977340994253    -0.069353386150

  Mulliken Charges: (a.u.)
   Center  Symbol    Alpha    Beta     Spin     Total
       1     O     4.26454  4.26454  0.00000 -0.52909
       2     C     2.62263  2.62263  0.00000  0.75474
       3     C     3.28270  3.28270  0.00000 -0.56539
       4     O     4.32043  4.32043  0.00000 -0.64086
       5     H     0.40599  0.40599  0.00000  0.18803
       6     H     0.39810  0.39810  0.00000  0.20379
       7     H     0.39827  0.39827  0.00000  0.20346
       8     C     2.92904  2.92904  0.00000  0.14192
       9     C     3.23853  3.23853  0.00000 -0.47706
      10     C     3.24373  3.24373  0.00000 -0.48745
      11     H     0.41655  0.41655  0.00000  0.16689
      12     H     0.41496  0.41496  0.00000  0.17008
      13     H     0.41796  0.41796  0.00000  0.16408
      14     H     0.41124  0.41124  0.00000  0.17752
      15     H     0.42268  0.42268  0.00000  0.15465
      16     H     0.39721  0.39721  0.00000  0.20558
      17     H     0.41544  0.41544  0.00000  0.16911

   Total alpha = 28.00000, Total beta = 28.00000, Total charge =  0.00000
