                              Psi4 1.0.54 Driver

  ==> Input File <==

--------------------------------------------------------------------------
set {
	reference rhf
	basis cc-pvtz
}

set_num_threads( 4 )
memory 2 gb

molecule MOL {
0 1

O	 0.633940	 0.405070	 -0.963215
C	 0.029490	 0.077183	 0.000078
C	 -1.232113	 -0.748027	 0.000015
O	 0.392884	 0.401237	 1.229780
C	 -2.501422	 0.088592	 -0.000052
H	 -1.188777	 -1.400384	 -0.865133
H	 -1.188857	 -1.400312	 0.865225
H	 -2.548170	 0.725504	 -0.873205
H	 -3.371613	 -0.556398	 -0.000040
H	 -2.548215	 0.725571	 0.873047
C	 1.564620	 1.177811	 1.376777
H	 2.420479	 0.656398	 0.974447
H	 1.687813	 1.333418	 2.436227
H	 1.459515	 2.125851	 0.870399

	symmetry c1
}
set optking {
	frozen_dihedral = ("
		4 2 3 6
	")
}

ee,wfn = optimize('scf', return_wfn=True)
oeprop( wfn, 'DIPOLE', 'QUADRUPOLE', 'MULLIKEN_CHARGES')
f=open( 'psi4out.xyz', 'w' )
f.write( "14  " )
f.write( str(ee) + "\n" )
f.write( MOL.save_string_xyz() )
f.close()
--------------------------------------------------------------------------

    Molecular point group: c1
  Charge       = 0
  Multiplicity = 1
  Basis Set: CC-PVTZ
  Basis Set:
  @DF-RHF Final Energy:  -305.98547516653178
    Total Energy =                       -305.9854751665315007
    Molecular point group: c1
  Basis Set: CC-PVTZ
  Basis Set:
  Basis Set: CC-PVTZ
  Basis Set:
  @DF-RHF Final Energy:  -305.98597173053099
    Total Energy =                       -305.9859717305311051
  Basis Set: CC-PVTZ
  Basis Set:
  Basis Set: CC-PVTZ
  Basis Set:
  @DF-RHF Final Energy:  -305.89161150177779
    Total Energy =                       -305.8916115017781294
  Basis Set: CC-PVTZ
  Basis Set:
  Basis Set: CC-PVTZ
  Basis Set:
  @DF-RHF Final Energy:  -305.97565735309246
    Total Energy =                       -305.9756573530926289
  Basis Set: CC-PVTZ
  Basis Set:
  @DF-RHF Final Energy:  -305.98528717446595
    Total Energy =                       -305.9852871744664071
  @DF-RHF Final Energy:  -305.98303057869475
    Total Energy =                       -305.9830305786947520
  @DF-RHF Final Energy:  -305.97994887027403
    Total Energy =                       -305.9799488702739154
  @DF-RHF Final Energy:  -305.97795019735213
    Total Energy =                       -305.9779501973520723
  @DF-RHF Final Energy:  -305.98282414196706
    Total Energy =                       -305.9828241419674555
  @DF-RHF Final Energy:  -305.98425438216839
    Total Energy =                       -305.9842543821684444
  Basis Set: CC-PVTZ
  Basis Set:
  @DF-RHF Final Energy:  -305.98598396297905
    Total Energy =                       -305.9859839629789349
  Basis Set: CC-PVTZ
  Basis Set:
  Basis Set: CC-PVTZ
  Basis Set:
  @DF-RHF Final Energy:  -305.98609829460105
    Total Energy =                       -305.9860982946009358
  Basis Set: CC-PVTZ
  Basis Set:
  Basis Set: CC-PVTZ
  Basis Set:
  @DF-RHF Final Energy:  -305.98610358172925
    Total Energy =                       -305.9861035817293669
  Basis Set: CC-PVTZ
  Basis Set:
  Charge       = 0
  Multiplicity = 1
  Basis Set: CC-PVTZ
  Basis Set:

    Orbital Energies (a.u.)
    -----------------------

    Doubly Occupied:

       1A    -20.598641     2A    -20.532754     3A    -11.364263
       4A    -11.279206     5A    -11.235732     6A    -11.225537
       7A     -1.472864     8A     -1.365339     9A     -1.068095
      10A     -0.978706    11A     -0.883721    12A     -0.776082
      13A     -0.699797    14A     -0.682814    15A     -0.676334
      16A     -0.618393    17A     -0.598165    18A     -0.569032
      19A     -0.543533    20A     -0.520513    21A     -0.509473
      22A     -0.507482    23A     -0.459633    24A     -0.437960

  @DF-RHF Final Energy:  -305.98610472530930

   => Energetics <=

    Nuclear Repulsion Energy =            248.4092210678089145
    One-Electron Energy =                -909.5825140594906770
    Two-Electron Energy =                 355.1871882663725728
    DFT Exchange-Correlation Energy =       0.0000000000000000
    Empirical Dispersion Energy =           0.0000000000000000
    PCM Polarization Energy =               0.0000000000000000
    EFP Energy =                            0.0000000000000000
    Total Energy =                       -305.9861047253092465
    Molecular point group: c1
  Basis Set: CC-PVTZ
  Basis Set:

  -Total Gradient:
     Atom            X                  Y                   Z
    ------   -----------------  -----------------  -----------------
       1        0.000036415012     0.000148218304    -0.000098721086
       2       -0.000133290591     0.000004128016     0.000375886639
       3       -0.000157446745     0.000353604483     0.000014445031
       4        0.000049700831    -0.000151170379    -0.000243440756
       5       -0.000025565236    -0.000048945831    -0.000020741595
       6        0.000186719334    -0.000308804258    -0.000078910426
       7       -0.000009699546    -0.000034692043    -0.000004387229
       8       -0.000000174395     0.000021519060    -0.000001038629
       9       -0.000011545973     0.000011061845     0.000010772738
      10       -0.000003956388     0.000006971798     0.000029460673
      11        0.000090246019    -0.000013501678    -0.000006096451
      12        0.000010262740     0.000003531825    -0.000014669161
      13        0.000003987891    -0.000015771829     0.000033522134
      14       -0.000035652954     0.000023850684     0.000003918115

  **** Optimization is complete! (in 11 steps) ****
    Final optimized geometry and variables:
    Molecular point group: c1

    Geometry (in Angstrom), charge = 0, multiplicity = 1:

    O            0.530877104218     0.994569380616    -0.937568100588
    C            0.127691016076     0.043501822347    -0.358159318472
    C           -1.158190085819    -0.671227908686    -0.683367686290
    O            0.751255053640    -0.493632822476     0.676602509307
    C           -2.331365598596    -0.062846263696     0.089861342894
    H           -1.320676245654    -0.574039690399    -1.747326333583
    H           -1.054961292244    -1.719706696746    -0.439518083822
    H           -2.447765147700     0.986193298435    -0.151012236477
    H           -3.250959253523    -0.573051496891    -0.166412286169
    H           -2.182949950544    -0.154824171704     1.158829110403
    C            1.947997730678     0.125543455243     1.104789403958
    H            2.685029460852     0.114706838023     0.315738345164
    H            2.295527396603    -0.449422165055     1.947737364403
    H            1.763058674879     1.147619637594     1.400459267305

  Mulliken Charges: (a.u.)
   Center  Symbol    Alpha    Beta     Spin     Total
       1     O     4.20334  4.20334  0.00000 -0.40669
       2     C     2.79701  2.79701  0.00000  0.40597
       3     C     3.08409  3.08409  0.00000 -0.16817
       4     O     4.14967  4.14967  0.00000 -0.29935
       5     C     3.15075  3.15075  0.00000 -0.30150
       6     H     0.43968  0.43968  0.00000  0.12063
       7     H     0.44433  0.44433  0.00000  0.11134
       8     H     0.44523  0.44523  0.00000  0.10954
       9     H     0.44760  0.44760  0.00000  0.10480
      10     H     0.44964  0.44964  0.00000  0.10072
      11     C     3.03549  3.03549  0.00000 -0.07097
      12     H     0.45309  0.45309  0.00000  0.09383
      13     H     0.44561  0.44561  0.00000  0.10878
      14     H     0.45447  0.45447  0.00000  0.09106

   Total alpha = 24.00000, Total beta = 24.00000, Total charge = -0.00000

*** Psi4 exiting successfully. Buy a developer a beer!
