  ==> Input File <==

--------------------------------------------------------------------------
set {
	reference rhf
	basis 6-31G*
}

set_num_threads( 1 )
memory 2 gb

molecule MOL {
0 1

O	 0.685143	 -3.971002	 -3.542752
C	 0.694935	 -2.788335	 -3.702868
C	 0.501429	 -1.842444	 -2.530625
C	 0.930976	 -2.173433	 -5.064321
C	 1.800583	 -1.699675	 -1.721330
H	 -0.275329	 -2.257680	 -1.897750
H	 0.170541	 -0.867404	 -2.876799
C	 1.631333	 -0.777471	 -0.511575
H	 2.113289	 -2.688876	 -1.406560
H	 2.590101	 -1.309277	 -2.361640
C	 2.915987	 -0.544314	 0.291766
H	 0.865943	 -1.186057	 0.145664
H	 1.257162	 0.185127	 -0.853991
C	 3.373361	 0.914346	 0.347591
H	 3.708709	 -1.142521	 -0.150311
H	 2.780642	 -0.921148	 1.303579
H	 3.506512	 1.320010	 -0.651625
H	 4.322697	 0.999599	 0.867103
H	 2.660624	 1.545032	 0.868198
H	 0.032655	 -1.657246	 -5.392703
H	 1.184175	 -2.943562	 -5.779565
H	 1.726287	 -1.434976	 -5.019978

	symmetry c1
}
set optking {
	frozen_dihedral = ("
		6 3 2 1,
		6 3 5 8,
		3 5 8 12
	")
}

ee = energy('scf')
oeprop('DIPOLE', 'QUADRUPOLE', 'MULLIKEN_CHARGES')
f=open( 'psi4out.xyz', 'w' )
f.write( "22  " )
f.write( str(ee) + "\n" )
f.write( MOL.save_string_xyz() )
f.close()
--------------------------------------------------------------------------

    Molecular point group: c1

    Geometry (in Angstrom), charge = 0, multiplicity = 1:

       Center              X                  Y                   Z               Mass
    ------------   -----------------  -----------------  -----------------  -----------------
           O         -0.892311045257    -2.368019695659    -1.485423846633    15.994914619560
           C         -0.882519045257    -1.185352695659    -1.645539846633    12.000000000000
           C         -1.076025045257    -0.239461695659    -0.473296846633    12.000000000000
           C         -0.646478045257    -0.570450695659    -3.006992846633    12.000000000000
           C          0.223128954743    -0.096692695659     0.335998153367    12.000000000000
           H         -1.852783045257    -0.654697695659     0.159578153367     1.007825032070
           H         -1.406913045257     0.735578304341    -0.819470846633     1.007825032070
           C          0.053878954743     0.825511304341     1.545753153367    12.000000000000
           H          0.535834954743    -1.085893695659     0.650768153367     1.007825032070
           H          1.012646954743     0.293705304341    -0.304311846633     1.007825032070
           C          1.338532954743     1.058668304341     2.349094153367    12.000000000000
           H         -0.711511045257     0.416925304341     2.202992153367     1.007825032070
           H         -0.320292045257     1.788109304341     1.203337153367     1.007825032070
           C          1.795906954743     2.517328304341     2.404919153367    12.000000000000
           H          2.131254954743     0.460461304341     1.907017153367     1.007825032070
           H          1.203187954743     0.681834304341     3.360907153367     1.007825032070
           H          1.929057954743     2.922992304341     1.405703153367     1.007825032070
           H          2.745242954743     2.602581304341     2.924431153367     1.007825032070
           H          1.083169954743     3.148014304341     2.925526153367     1.007825032070
           H         -1.544799045257    -0.054263695659    -3.335374846633     1.007825032070
           H         -0.393279045257    -1.340579695659    -3.722236846633     1.007825032070
           H          0.148832954743     0.168006304341    -2.962649846633     1.007825032070

  Charge       = 0
  Multiplicity = 1
  Basis Set: 6-31G*
  Basis Set:

    Orbital Energies (a.u.)
    -----------------------

    Doubly Occupied:

       1A    -20.547369     2A    -11.324567     3A    -11.230549
       4A    -11.229004     5A    -11.228284     6A    -11.220928
       7A    -11.219262     8A    -11.213716     9A     -1.393129
      10A     -1.095256    11A     -1.045006    12A     -1.000805
      13A     -0.938878    14A     -0.849819    15A     -0.795920
      16A     -0.732543    17A     -0.662139    18A     -0.646571
      19A     -0.628022    20A     -0.613279    21A     -0.596007
      22A     -0.585700    23A     -0.558746    24A     -0.546588
      25A     -0.539678    26A     -0.511556    27A     -0.500221
      28A     -0.490399    29A     -0.470225    30A     -0.462566
      31A     -0.459341    32A     -0.396290

  @DF-RHF Final Energy:  -348.09380027575884

   => Energetics <=

    Nuclear Repulsion Energy =            369.7581844775848481
    One-Electron Energy =               -1204.2394819894607281
    Two-Electron Energy =                 486.3874972361171558
    DFT Exchange-Correlation Energy =       0.0000000000000000
    Empirical Dispersion Energy =           0.0000000000000000
    PCM Polarization Energy =               0.0000000000000000
    EFP Energy =                            0.0000000000000000
    Total Energy =                       -348.0938002757587810

  Mulliken Charges: (a.u.)
   Center  Symbol    Alpha    Beta     Spin     Total
       1     O     4.26237  4.26237  0.00000 -0.52474
       2     C     2.73727  2.73727  0.00000  0.52547
       3     C     3.20075  3.20075  0.00000 -0.40149
       4     C     3.28952  3.28952  0.00000 -0.57905
       5     C     3.16444  3.16444  0.00000 -0.32889
       6     H     0.40108  0.40108  0.00000  0.19784
       7     H     0.41676  0.41676  0.00000  0.16649
       8     C     3.15447  3.15447  0.00000 -0.30894
       9     H     0.40470  0.40470  0.00000  0.19059
      10     H     0.42076  0.42076  0.00000  0.15848
      11     C     3.15614  3.15614  0.00000 -0.31228
      12     H     0.41757  0.41757  0.00000  0.16486
      13     H     0.42103  0.42103  0.00000  0.15795
      14     C     3.24049  3.24049  0.00000 -0.48099
      15     H     0.41893  0.41893  0.00000  0.16214
      16     H     0.41811  0.41811  0.00000  0.16378
      17     H     0.42279  0.42279  0.00000  0.15442
      18     H     0.41886  0.41886  0.00000  0.16228
      19     H     0.42023  0.42023  0.00000  0.15953
      20     H     0.40689  0.40689  0.00000  0.18622
      21     H     0.39706  0.39706  0.00000  0.20589
      22     H     0.40977  0.40977  0.00000  0.18045

   Total alpha = 32.00000, Total beta = 32.00000, Total charge = -0.00000
