  ==> Input File <==

--------------------------------------------------------------------------
set {
	reference rhf
	basis cc-pvtz
}

set_num_threads( 4 )
memory 2 gb

molecule MOL {
0 1

H	 3.284061	 -0.484643	 -0.013670
C	 2.228455	 -0.290604	 -0.010427
C	 1.756564	 0.946119	 0.403299
C	 1.348712	 -1.273193	 -0.417963
H	 2.446490	 1.704663	 0.718588
C	 0.403144	 1.199144	 0.408979
H	 1.716609	 -2.228742	 -0.737420
C	 -0.010257	 -1.017587	 -0.411707
H	 0.019180	 2.148477	 0.725198
C	 -0.486398	 0.214248	 0.000000
H	 -0.700571	 -1.777753	 -0.727602
C	 -1.946525	 0.470130	 0.000000
O	 -2.779618	 -0.371226	 0.000000
H	 -2.227127	 1.528393	 0.000000

	symmetry c1
}
set optking {
	frozen_dihedral = ("
		8 10 12 14
	")
}

ee = optimize('scf')
oeprop('DIPOLE', 'QUADRUPOLE', 'MULLIKEN_CHARGES')
f=open( 'psi4out.xyz', 'w' )
f.write( "14  " )
f.write( str(ee) + "\n" )
f.write( MOL.save_string_xyz() )
f.close()
--------------------------------------------------------------------------

    Molecular point group: c1
  Charge       = 0
  Multiplicity = 1
  Basis Set: CC-PVTZ
  Basis Set:
  @DF-RHF Final Energy:  -343.54845026814706
    Total Energy =                       -343.5484502681473487
    Molecular point group: c1
  Basis Set: CC-PVTZ
  Basis Set:
  Basis Set: CC-PVTZ
  Basis Set:
  @DF-RHF Final Energy:  -343.54692024923634
    Total Energy =                       -343.5469202492363365
  Basis Set: CC-PVTZ
  Basis Set:
  Basis Set: CC-PVTZ
  Basis Set:
  @DF-RHF Final Energy:  -343.54879385066835
    Total Energy =                       -343.5487938506686305
  Basis Set: CC-PVTZ
  Basis Set:
  Basis Set: CC-PVTZ
  Basis Set:
  @DF-RHF Final Energy:  -343.54889237878501
    Total Energy =                       -343.5488923787850695
  Basis Set: CC-PVTZ
  Basis Set:
  Basis Set: CC-PVTZ
  Basis Set:
  @DF-RHF Final Energy:  -343.54889691630240
    Total Energy =                       -343.5488969163022830
  Basis Set: CC-PVTZ
  Basis Set:
  Charge       = 0
  Multiplicity = 1
  Basis Set: CC-PVTZ
  Basis Set:

    Orbital Energies (a.u.)
    -----------------------

    Doubly Occupied:

       1A    -20.553564     2A    -11.327377     3A    -11.252173
       4A    -11.249556     5A    -11.246857     6A    -11.245620
       7A    -11.243827     8A    -11.242242     9A     -1.409319
      10A     -1.176980    11A     -1.051620    12A     -1.036027
      13A     -0.892552    14A     -0.848217    15A     -0.794789
      16A     -0.725593    17A     -0.682246    18A     -0.656737
      19A     -0.624645    20A     -0.622288    21A     -0.606161
      22A     -0.559616    23A     -0.530357    24A     -0.510197
      25A     -0.508643    26A     -0.425778    27A     -0.355420
      28A     -0.352558

  @DF-RHF Final Energy:  -343.54889819056086

   => Energetics <=

    Nuclear Repulsion Energy =            323.9088593194190935
    One-Electron Energy =               -1107.4535947078527442
    Two-Electron Energy =                 439.9958371978728451
    DFT Exchange-Correlation Energy =       0.0000000000000000
    Empirical Dispersion Energy =           0.0000000000000000
    PCM Polarization Energy =               0.0000000000000000
    EFP Energy =                            0.0000000000000000
    Total Energy =                       -343.5488981905608057
    Molecular point group: c1
  Basis Set: CC-PVTZ
  Basis Set:

  -Total Gradient:
     Atom            X                  Y                   Z
    ------   -----------------  -----------------  -----------------
       1       -0.000000839356     0.000000996248    -0.000009373966
       2       -0.000030782075    -0.000085462737    -0.000019282203
       3       -0.000068624759     0.000048032877     0.000028763088
       4        0.000088515530     0.000038499808     0.000016671845
       5        0.000002375869    -0.000005616085    -0.000007439245
       6        0.000082162489     0.000052745575     0.000016270524
       7       -0.000003429010    -0.000005788263     0.000003481907
       8        0.000188200587     0.001161823530    -0.002790787515
       9        0.000002524951    -0.000020901093    -0.000014942441
      10       -0.000363009764    -0.001632121159     0.002997817387
      11       -0.000010201157    -0.000016421251    -0.000016708553
      12        0.000026584321     0.000401603723     0.003409068876
      13        0.000013549054     0.000014130062     0.000013942855
      14        0.000072973323     0.000048478766    -0.003627482559

  **** Optimization is complete! (in 6 steps) ****
    Final optimized geometry and variables:
    Molecular point group: c1

    Geometry (in Angstrom), charge = 0, multiplicity = 1:

    H            3.292456717630    -0.451810418147    -0.016362519834
    C            2.235901849029    -0.263257097310    -0.003781474454
    C            1.762194725891     0.965891518698     0.410196804184
    C            1.354653104060    -1.252957088116    -0.410722059315
    H            2.446320994066     1.731798221573     0.720005791730
    C            0.400876701882     1.207357949349     0.413373848576
    H            1.730024569788    -2.202098980643    -0.741103178686
    C           -0.002284907329    -1.016254754639    -0.392639616653
    H            0.026929547005     2.166949723943     0.719587685800
    C           -0.483921189528     0.214998431012     0.030347791692
    H           -0.698596536616    -1.771252452058    -0.699533860731
    C           -1.940612120389     0.496845062425     0.017156515380
    O           -2.785330675530    -0.329658224055    -0.048800273573
    H           -2.203651074229     1.559695335367     0.030676734733

  Mulliken Charges: (a.u.)
   Center  Symbol    Alpha    Beta     Spin     Total
       1     H     0.41962  0.41962  0.00000  0.16076
       2     C     3.07104  3.07104  0.00000 -0.14207
       3     C     3.07288  3.07288  0.00000 -0.14575
       4     C     3.07151  3.07151  0.00000 -0.14302
       5     H     0.42057  0.42057  0.00000  0.15885
       6     C     3.08863  3.08863  0.00000 -0.17727
       7     H     0.41965  0.41965  0.00000  0.16070
       8     C     3.08257  3.08257  0.00000 -0.16513
       9     H     0.42315  0.42315  0.00000  0.15370
      10     C     2.97840  2.97840  0.00000  0.04320
      11     H     0.40928  0.40928  0.00000  0.18143
      12     C     2.91266  2.91266  0.00000  0.17469
      13     O     4.17169  4.17169  0.00000 -0.34339
      14     H     0.45835  0.45835  0.00000  0.08331

   Total alpha = 28.00000, Total beta = 28.00000, Total charge =  0.00000
