                              Psi4 1.0.54 Driver

  ==> Input File <==

--------------------------------------------------------------------------
set {
	reference rhf
	basis cc-pvtz
}

set_num_threads( 4 )
memory 2 gb

molecule MOL {
0 1

H	 -3.790781	 -1.653532	 1.183727
O	 -3.250324	 -1.338720	 0.483016
C	 -2.017095	 -0.896963	 0.985425
C	 -1.175688	 -0.398187	 -0.171891
H	 -2.164898	 -0.096982	 1.707892
H	 -1.501446	 -1.707833	 1.495743
C	 0.196029	 0.106276	 0.266738
H	 -1.720039	 0.394006	 -0.676204
H	 -1.064707	 -1.205182	 -0.889079
C	 1.330220	 -0.826136	 -0.155230
H	 0.359542	 1.097229	 -0.145561
H	 0.212134	 0.218135	 1.348778
C	 2.719700	 -0.407669	 0.328325
H	 1.339388	 -0.911200	 -1.239363
H	 1.119001	 -1.821953	 0.224128
C	 3.241564	 0.893452	 -0.276737
H	 3.418299	 -1.204729	 0.093035
H	 2.711776	 -0.323368	 1.411960
H	 3.254204	 0.841071	 -1.360784
H	 2.634460	 1.745075	 0.005842
H	 4.254264	 1.092401	 0.054971

	symmetry c1
}
set optking {
	frozen_dihedral = ("
		8 4 7 10
	")
}

ee,wfn = optimize('scf', return_wfn=True)
oeprop( wfn, 'DIPOLE', 'QUADRUPOLE', 'MULLIKEN_CHARGES')
f=open( 'psi4out.xyz', 'w' )
f.write( "21  " )
f.write( str(ee) + "\n" )
f.write( MOL.save_string_xyz() )
f.close()
--------------------------------------------------------------------------

    Molecular point group: c1
  Charge       = 0
  Multiplicity = 1
  Basis Set: CC-PVTZ
  Basis Set:
  @DF-RHF Final Energy:  -310.32824967285995
    Total Energy =                       -310.3282496728598971
    Molecular point group: c1
  Basis Set: CC-PVTZ
  Basis Set:
  Basis Set: CC-PVTZ
  Basis Set:
  @DF-RHF Final Energy:  -310.32847289858910
    Total Energy =                       -310.3284728985893253
  Basis Set: CC-PVTZ
  Basis Set:
  Basis Set: CC-PVTZ
  Basis Set:
  @DF-RHF Final Energy:  -310.32852756770188
    Total Energy =                       -310.3285275677015420
  Basis Set: CC-PVTZ
  Basis Set:
  Basis Set: CC-PVTZ
  Basis Set:
  @DF-RHF Final Energy:  -310.32852084222355
    Total Energy =                       -310.3285208422237247
  Basis Set: CC-PVTZ
  Basis Set:
  Basis Set: CC-PVTZ
  Basis Set:
  @DF-RHF Final Energy:  -310.32853434669522
    Total Energy =                       -310.3285343466953350
  Basis Set: CC-PVTZ
  Basis Set:
  Charge       = 0
  Multiplicity = 1
  Basis Set: CC-PVTZ
  Basis Set:

    Orbital Energies (a.u.)
    -----------------------

    Doubly Occupied:

       1A    -20.545669     2A    -11.265657     3A    -11.213315
       4A    -11.213111     5A    -11.211876     6A    -11.208630
       7A    -11.206080     8A     -1.363811     9A     -1.086433
      10A     -1.033137    11A     -0.954417    12A     -0.878576
      13A     -0.809382    14A     -0.778823    15A     -0.697944
      16A     -0.653571    17A     -0.627660    18A     -0.609777
      19A     -0.591859    20A     -0.558882    21A     -0.549872
      22A     -0.517574    23A     -0.508508    24A     -0.495932
      25A     -0.475630    26A     -0.460145    27A     -0.453021
      28A     -0.448411    29A     -0.433240

  @DF-RHF Final Energy:  -310.32853442957787

   => Energetics <=

    Nuclear Repulsion Energy =            314.1691944536606798
    One-Electron Energy =               -1043.2935768113550239
    Two-Electron Energy =                 418.7958479281164159
    DFT Exchange-Correlation Energy =       0.0000000000000000
    Empirical Dispersion Energy =           0.0000000000000000
    PCM Polarization Energy =               0.0000000000000000
    EFP Energy =                            0.0000000000000000
    Total Energy =                       -310.3285344295779282
    Molecular point group: c1
  Basis Set: CC-PVTZ
  Basis Set:

  -Total Gradient:
     Atom            X                  Y                   Z
    ------   -----------------  -----------------  -----------------
       1        0.000010018673    -0.000002258995     0.000002255184
       2       -0.000005881949     0.000003005822    -0.000015373164
       3        0.000016396200     0.000010301669     0.000020075349
       4       -0.000867247642     0.001003588664     0.001609865414
       5       -0.000003182672     0.000002078042    -0.000000756746
       6       -0.000005995692    -0.000001430998    -0.000003802544
       7        0.000010020131    -0.001075284161     0.001257793109
       8        0.000719977044    -0.000599192360    -0.001665182536
       9        0.000001356701    -0.000001555745    -0.000004535189
      10        0.000122270014     0.000665369393    -0.001201908480
      11       -0.000003991240    -0.000004128702    -0.000001397953
      12        0.000003276995    -0.000000652784     0.000001450729
      13        0.000001318807    -0.000000634848     0.000004220672
      14       -0.000002686600     0.000001658766     0.000000287703
      15        0.000002317468     0.000001717859     0.000000385114
      16       -0.000001573043    -0.000001099783    -0.000002398776
      17        0.000002598231    -0.000000335449     0.000001136089
      18       -0.000001853798    -0.000000512374    -0.000000263982
      19        0.000000281995     0.000001256479    -0.000002435836
      20        0.000002516935    -0.000000842655     0.000000762066
      21        0.000000063455    -0.000001047840    -0.000000176223

  **** Optimization is complete! (in 6 steps) ****
    Final optimized geometry and variables:
    Molecular point group: c1

    Geometry (in Angstrom), charge = 0, multiplicity = 1:

    H           -3.852942533040    -1.260200627226     0.997735781641
    O           -3.320481834676    -0.958304464910     0.285326897582
    C           -2.104746285194    -0.455195247883     0.769552950217
    C           -1.279932292316     0.035153832937    -0.403519367035
    H           -2.279770719691     0.363574806100     1.464278081742
    H           -1.558039456063    -1.228137977232     1.306746801178
    C            0.110533596590     0.545970250212     0.017002464237
    H           -1.835638987685     0.806856878002    -0.922686439613
    H           -1.179963526201    -0.783123725116    -1.108409587161
    C            1.245489103756    -0.395393526609    -0.387117010182
    H            0.280678234235     1.522112468115    -0.420021890361
    H            0.139059684641     0.694776679046     1.094033917544
    C            2.632141209323     0.017323465758     0.108101429097
    H            1.262505827102    -0.483489410377    -1.470659799317
    H            1.025812671422    -1.390069204888    -0.007763865118
    C            3.162319640079     1.318383717009    -0.489987549741
    H            3.330311695531    -0.781238166251    -0.123520900712
    H            2.616108248492     0.099549794740     1.191875889128
    H            3.180183073217     1.269474582113    -1.574092036899
    H            2.557214369525     2.171399125181    -0.207661096637
    H            4.174143088476     1.511935379655    -0.152555836996

  Mulliken Charges: (a.u.)
   Center  Symbol    Alpha    Beta     Spin     Total
       1     H     0.39738  0.39738  0.00000  0.20525
       2     O     4.19444  4.19444  0.00000 -0.38887
       3     C     2.96049  2.96049  0.00000  0.07903
       4     C     3.09097  3.09097  0.00000 -0.18194
       5     H     0.47400  0.47400  0.00000  0.05199
       6     H     0.47502  0.47502  0.00000  0.04997
       7     C     3.11406  3.11406  0.00000 -0.22812
       8     H     0.44612  0.44612  0.00000  0.10775
       9     H     0.45145  0.45145  0.00000  0.09710
      10     C     3.09305  3.09305  0.00000 -0.18609
      11     H     0.44368  0.44368  0.00000  0.11263
      12     H     0.45646  0.45646  0.00000  0.08707
      13     C     3.09042  3.09042  0.00000 -0.18084
      14     H     0.45209  0.45209  0.00000  0.09582
      15     H     0.44906  0.44906  0.00000  0.10187
      16     C     3.15257  3.15257  0.00000 -0.30515
      17     H     0.44865  0.44865  0.00000  0.10269
      18     H     0.45522  0.45522  0.00000  0.08956
      19     H     0.45455  0.45455  0.00000  0.09090
      20     H     0.45376  0.45376  0.00000  0.09247
      21     H     0.44655  0.44655  0.00000  0.10690

   Total alpha = 29.00000, Total beta = 29.00000, Total charge =  0.00000

*** Psi4 exiting successfully. Buy a developer a beer!
