  ==> Input File <==

--------------------------------------------------------------------------
set {
	reference rhf
	basis 6-31G*
}

set_num_threads( 1 )
memory 2 gb

molecule MOL {
0 1

O	 1.847616	 1.294817	 -0.053760
C	 1.705091	 0.115954	 0.001797
C	 0.381791	 -0.609817	 0.001258
O	 2.720448	 -0.735899	 0.069114
C	 -0.823008	 0.326187	 0.001381
H	 0.371250	 -1.265087	 -0.865474
H	 0.370908	 -1.265746	 0.867490
C	 -2.149452	 -0.435131	 -0.000098
H	 -0.770201	 0.977095	 -0.865636
H	 -0.771220	 0.975655	 0.869608
C	 -3.368779	 0.488503	 -0.000883
H	 -2.193746	 -1.087250	 -0.871175
H	 -2.195311	 -1.087803	 0.870418
C	 -4.693822	 -0.272754	 -0.001129
H	 -3.325798	 1.139422	 -0.871284
H	 -3.326423	 1.139959	 0.869145
H	 -4.781274	 -0.907928	 -0.878124
H	 -5.538651	 0.408946	 -0.001420
H	 -4.781694	 -0.907783	 0.875984
C	 4.023940	 -0.182886	 0.075345
H	 4.202171	 0.380240	 -0.829448
H	 4.700060	 -1.021571	 0.133178
H	 4.157650	 0.465509	 0.929284

	symmetry c1
}
set optking {
	frozen_dihedral = ("
		15 11 8 12,
		9 5 8 12,
		9 5 3 6,
		1 2 4 20
	")
}

ee = energy('scf')
oeprop('DIPOLE', 'QUADRUPOLE', 'MULLIKEN_CHARGES')
f=open( 'psi4out.xyz', 'w' )
f.write( "23  " )
f.write( str(ee) + "\n" )
f.write( MOL.save_string_xyz() )
f.close()
--------------------------------------------------------------------------

    Molecular point group: c1

    Geometry (in Angstrom), charge = 0, multiplicity = 1:

       Center              X                  Y                   Z               Mass
    ------------   -----------------  -----------------  -----------------  -----------------
           O          1.847738849331     1.294601128508    -0.064613269265    15.994914619560
           C          1.705213849331     0.115738128508    -0.009056269265    12.000000000000
           C          0.381913849331    -0.610032871492    -0.009595269265    12.000000000000
           O          2.720570849331    -0.736114871492     0.058260730735    15.994914619560
           C         -0.822885150669     0.325971128508    -0.009472269265    12.000000000000
           H          0.371372849331    -1.265302871492    -0.876327269265     1.007825032070
           H          0.371030849331    -1.265961871492     0.856636730735     1.007825032070
           C         -2.149329150669    -0.435346871492    -0.010951269265    12.000000000000
           H         -0.770078150669     0.976879128508    -0.876489269265     1.007825032070
           H         -0.771097150669     0.975439128508     0.858754730735     1.007825032070
           C         -3.368656150669     0.488287128508    -0.011736269265    12.000000000000
           H         -2.193623150669    -1.087465871492    -0.882028269265     1.007825032070
           H         -2.195188150669    -1.088018871492     0.859564730735     1.007825032070
           C         -4.693699150669    -0.272969871492    -0.011982269265    12.000000000000
           H         -3.325675150669     1.139206128508    -0.882137269265     1.007825032070
           H         -3.326300150669     1.139743128508     0.858291730735     1.007825032070
           H         -4.781151150669    -0.908143871492    -0.888977269265     1.007825032070
           H         -5.538528150669     0.408730128508    -0.012273269265     1.007825032070
           H         -4.781571150669    -0.907998871492     0.865130730735     1.007825032070
           C          4.024062849331    -0.183101871492     0.064491730735    12.000000000000
           H          4.202293849331     0.380024128508    -0.840301269265     1.007825032070
           H          4.700182849331    -1.021786871492     0.122324730735     1.007825032070
           H          4.157772849331     0.465293128508     0.918430730735     1.007825032070

  Charge       = 0
  Multiplicity = 1
  Basis Set: 6-31G*
  Basis Set:

    Orbital Energies (a.u.)
    -----------------------

    Doubly Occupied:

       1A    -20.603643     2A    -20.545412     3A    -11.372258
       4A    -11.280850     5A    -11.235545     6A    -11.219305
       7A    -11.217895     8A    -11.216480     9A    -11.209658
      10A     -1.469329    11A     -1.362757    12A     -1.093231
      13A     -1.043671    14A     -0.987053    15A     -0.932113
      16A     -0.843574    17A     -0.795089    18A     -0.767303
      19A     -0.696846    20A     -0.683861    21A     -0.671494
      22A     -0.651791    23A     -0.609270    24A     -0.599412
      25A     -0.572779    26A     -0.558505    27A     -0.556828
      28A     -0.523819    29A     -0.521124    30A     -0.507766
      31A     -0.484406    32A     -0.469801    33A     -0.466287
      34A     -0.461329    35A     -0.455627    36A     -0.435455

  @DF-RHF Final Energy:  -422.97630299735448

   => Energetics <=

    Nuclear Repulsion Energy =            452.1234770286779963
    One-Electron Energy =               -1471.9564057598483942
    Two-Electron Energy =                 596.8566257338161449
    DFT Exchange-Correlation Energy =       0.0000000000000000
    Empirical Dispersion Energy =           0.0000000000000000
    PCM Polarization Energy =               0.0000000000000000
    EFP Energy =                            0.0000000000000000
    Total Energy =                       -422.9763029973541961

  Mulliken Charges: (a.u.)
   Center  Symbol    Alpha    Beta     Spin     Total
       1     O     4.28609  4.28609  0.00000 -0.57218
       2     C     2.60484  2.60484  0.00000  0.79033
       3     C     3.20825  3.20825  0.00000 -0.41650
       4     O     4.30740  4.30740  0.00000 -0.61480
       5     C     3.15248  3.15248  0.00000 -0.30495
       6     H     0.40041  0.40041  0.00000  0.19918
       7     H     0.40085  0.40085  0.00000  0.19830
       8     C     3.15332  3.15332  0.00000 -0.30664
       9     H     0.41103  0.41103  0.00000  0.17794
      10     H     0.41238  0.41238  0.00000  0.17523
      11     C     3.15155  3.15155  0.00000 -0.30310
      12     H     0.42400  0.42400  0.00000  0.15200
      13     H     0.42402  0.42402  0.00000  0.15195
      14     C     3.23958  3.23958  0.00000 -0.47916
      15     H     0.42127  0.42127  0.00000  0.15746
      16     H     0.42139  0.42139  0.00000  0.15722
      17     H     0.42180  0.42180  0.00000  0.15640
      18     H     0.41847  0.41847  0.00000  0.16305
      19     H     0.42183  0.42183  0.00000  0.15634
      20     C     3.09246  3.09246  0.00000 -0.18491
      21     H     0.40907  0.40907  0.00000  0.18186
      22     H     0.40843  0.40843  0.00000  0.18315
      23     H     0.40908  0.40908  0.00000  0.18185

   Total alpha = 36.00000, Total beta = 36.00000, Total charge =  0.00000
