                              Psi4 1.0.54 Driver

  ==> Input File <==

--------------------------------------------------------------------------
set {
	reference rhf
	basis cc-pvtz
}

set_num_threads( 4 )
memory 2 gb

molecule MOL {
0 1

H	 -1.088256	 -1.364742	 0.152233
O	 -1.432053	 -0.565244	 -0.200812
C	 -0.727158	 0.534527	 0.310686
C	 0.680222	 0.664433	 -0.252229
H	 -1.306802	 1.408001	 0.044211
H	 -0.690821	 0.490158	 1.397609
C	 1.591331	 -0.512791	 0.082539
H	 0.613147	 0.781485	 -1.328812
H	 1.114541	 1.580095	 0.139662
H	 1.220211	 -1.437793	 -0.344973
H	 2.588223	 -0.356359	 -0.311528
H	 1.679399	 -0.649359	 1.156108

	symmetry c1
}
set optking {
	frozen_dihedral = ("
		8 4 3 2
	")
}

ee,wfn = optimize('scf', return_wfn=True)
oeprop( wfn, 'DIPOLE', 'QUADRUPOLE', 'MULLIKEN_CHARGES')
f=open( 'psi4out.xyz', 'w' )
f.write( "12  " )
f.write( str(ee) + "\n" )
f.write( MOL.save_string_xyz() )
f.close()
--------------------------------------------------------------------------

    Molecular point group: c1
  Charge       = 0
  Multiplicity = 1
  Basis Set: CC-PVTZ
  Basis Set:
  @DF-RHF Final Energy:  -193.19059035835735
    Total Energy =                       -193.1905903583573263
    Molecular point group: c1
  Basis Set: CC-PVTZ
  Basis Set:
  Basis Set: CC-PVTZ
  Basis Set:
  @DF-RHF Final Energy:  -193.19059280666949
    Total Energy =                       -193.1905928066694571
  Basis Set: CC-PVTZ
  Basis Set:
  Basis Set: CC-PVTZ
  Basis Set:
  @DF-RHF Final Energy:  -193.19059443063281
    Total Energy =                       -193.1905944306326717
  Basis Set: CC-PVTZ
  Basis Set:
  Charge       = 0
  Multiplicity = 1
  Basis Set: CC-PVTZ
  Basis Set:

    Orbital Energies (a.u.)
    -----------------------

    Doubly Occupied:

       1A    -20.546181     2A    -11.266029     3A    -11.217040
       4A    -11.214870     5A     -1.364331     6A     -1.051954
       7A     -0.928644     8A     -0.810041     9A     -0.699137
      10A     -0.637421    11A     -0.603352    12A     -0.589955
      13A     -0.540363    14A     -0.511309    15A     -0.493227
      16A     -0.469745    17A     -0.432854

  @DF-RHF Final Energy:  -193.19059445744480

   => Energetics <=

    Nuclear Repulsion Energy =            133.2486280438035067
    One-Electron Energy =                -526.1255376461456308
    Two-Electron Energy =                 199.6863151448974918
    DFT Exchange-Correlation Energy =       0.0000000000000000
    Empirical Dispersion Energy =           0.0000000000000000
    PCM Polarization Energy =               0.0000000000000000
    EFP Energy =                            0.0000000000000000
    Total Energy =                       -193.1905944574446607
    Molecular point group: c1
  Basis Set: CC-PVTZ
  Basis Set:

  -Total Gradient:
     Atom            X                  Y                   Z
    ------   -----------------  -----------------  -----------------
       1       -0.000001102420     0.000008422322     0.000002823621
       2        0.000123678364    -0.000224902117     0.000275054405
       3       -0.000177357621     0.000402491761    -0.000365844231
       4        0.000075916401    -0.000674964522     0.000042338519
       5       -0.000001485462    -0.000009408797    -0.000004435833
       6        0.000000592399     0.000008012939     0.000002154088
       7       -0.000002690236    -0.000005944114    -0.000003321815
       8       -0.000020282853     0.000483625556     0.000057166100
       9        0.000004477166     0.000005202572    -0.000002208830
      10        0.000004784878     0.000002058487     0.000000657033
      11       -0.000002036618     0.000001479440     0.000000932916
      12       -0.000004494000     0.000003926472    -0.000005315974

  **** Optimization is complete! (in 4 steps) ****
    Final optimized geometry and variables:
    Molecular point group: c1

    Geometry (in Angstrom), charge = 0, multiplicity = 1:

    H           -1.088226264800    -1.357885302879     0.162428854912
    O           -1.431536939292    -0.557704012889    -0.189137595033
    C           -0.722706009146     0.540157515702     0.320752640006
    C            0.684029224370     0.668060529208    -0.244444726390
    H           -1.300852118423     1.415609871155     0.057736000346
    H           -0.683132619562     0.493686792057     1.407495938568
    C            1.596722574177    -0.506801075155     0.093009584267
    H            0.617480917975     0.785878614502    -1.320999153394
    H            1.117173975968     1.585147694728     0.145713729064
    H            1.231257287049    -1.431836457145    -0.338876251516
    H            2.595363384284    -0.345817639994    -0.294617048723
    H            1.679081209073    -0.645267866764     1.166834377251

  Mulliken Charges: (a.u.)
   Center  Symbol    Alpha    Beta     Spin     Total
       1     H     0.39234  0.39234  0.00000  0.21532
       2     O     4.20550  4.20550  0.00000 -0.41101
       3     C     2.97672  2.97672  0.00000  0.04656
       4     C     3.08174  3.08174  0.00000 -0.16347
       5     H     0.45003  0.45003  0.00000  0.09994
       6     H     0.47033  0.47033  0.00000  0.05934
       7     C     3.16047  3.16047  0.00000 -0.32093
       8     H     0.45168  0.45168  0.00000  0.09664
       9     H     0.45671  0.45671  0.00000  0.08659
      10     H     0.45591  0.45591  0.00000  0.08817
      11     H     0.44469  0.44469  0.00000  0.11061
      12     H     0.45388  0.45388  0.00000  0.09224

   Total alpha = 17.00000, Total beta = 17.00000, Total charge = -0.00000

*** Psi4 exiting successfully. Buy a developer a beer!
