                              Psi4 1.0.54 Driver

  ==> Input File <==

--------------------------------------------------------------------------
set {
	reference rhf
	basis cc-pvtz
}

set_num_threads( 4 )
memory 2 gb

molecule MOL {
0 1

H	 1.128311	 0.207724	 1.465118
C	 1.134565	 0.093781	 0.372499
C	 0.062554	 0.862911	 -0.350953
O	 1.948932	 -0.587720	 -0.146651
C	 0.601512	 1.624539	 -1.565885
H	 -0.419115	 1.528564	 0.353601
H	 -0.674284	 0.135011	 -0.683075
C	 1.546483	 2.764650	 -1.197338
H	 -0.239815	 2.018428	 -2.124091
H	 1.107057	 0.929846	 -2.230921
H	 1.049942	 3.490821	 -0.563557
H	 1.893922	 3.278961	 -2.085264
H	 2.418475	 2.405988	 -0.661588

	symmetry c1
}
set optking {
	frozen_dihedral = ("
		6 3 2 4
	")
}

ee,wfn = optimize('scf', return_wfn=True)
oeprop( wfn, 'DIPOLE', 'QUADRUPOLE', 'MULLIKEN_CHARGES')
f=open( 'psi4out.xyz', 'w' )
f.write( "13  " )
f.write( str(ee) + "\n" )
f.write( MOL.save_string_xyz() )
f.close()
--------------------------------------------------------------------------

    Molecular point group: c1
  Charge       = 0
  Multiplicity = 1
  Basis Set: CC-PVTZ
  Basis Set:
  @DF-RHF Final Energy:  -231.06900618480390
    Total Energy =                       -231.0690061848039250
    Molecular point group: c1
  Basis Set: CC-PVTZ
  Basis Set:
  Basis Set: CC-PVTZ
  Basis Set:
  @DF-RHF Final Energy:  -231.06820150180181
    Total Energy =                       -231.0682015018017523
  Basis Set: CC-PVTZ
  Basis Set:
  Basis Set: CC-PVTZ
  Basis Set:
  @DF-RHF Final Energy:  -231.06806146489404
    Total Energy =                       -231.0680614648942139
  Basis Set: CC-PVTZ
  Basis Set:
  Basis Set: CC-PVTZ
  Basis Set:
  @DF-RHF Final Energy:  -231.06944448770383
    Total Energy =                       -231.0694444877036631
  Basis Set: CC-PVTZ
  Basis Set:
  Basis Set: CC-PVTZ
  Basis Set:
  @DF-RHF Final Energy:  -231.06947616076837
    Total Energy =                       -231.0694761607684597
  Basis Set: CC-PVTZ
  Basis Set:
  Basis Set: CC-PVTZ
  Basis Set:
  @DF-RHF Final Energy:  -231.06948683881089
    Total Energy =                       -231.0694868388111161
  Basis Set: CC-PVTZ
  Basis Set:
  Charge       = 0
  Multiplicity = 1
  Basis Set: CC-PVTZ
  Basis Set:

    Orbital Energies (a.u.)
    -----------------------

    Doubly Occupied:

       1A    -20.552747     2A    -11.323308     3A    -11.235252
       4A    -11.227278     5A    -11.214665     6A     -1.408531
       7A     -1.080468     8A     -0.972627     9A     -0.853316
      10A     -0.768688    11A     -0.688805    12A     -0.639649
      13A     -0.628276    14A     -0.592040    15A     -0.560404
      16A     -0.531994    17A     -0.501292    18A     -0.486879
      19A     -0.481181    20A     -0.413078

  @DF-RHF Final Energy:  -231.06948700289902

   => Energetics <=

    Nuclear Repulsion Energy =            175.7471635432406458
    One-Electron Energy =                -661.3123481227585216
    Two-Electron Energy =                 254.4956975766189657
    DFT Exchange-Correlation Energy =       0.0000000000000000
    Empirical Dispersion Energy =           0.0000000000000000
    PCM Polarization Energy =               0.0000000000000000
    EFP Energy =                            0.0000000000000000
    Total Energy =                       -231.0694870028989385
    Molecular point group: c1
  Basis Set: CC-PVTZ
  Basis Set:

  -Total Gradient:
     Atom            X                  Y                   Z
    ------   -----------------  -----------------  -----------------
       1        0.000002603055    -0.000000989224     0.000002311815
       2        0.001418744161     0.002235726066    -0.000338224985
       3        0.000924480463     0.001135701480    -0.000657799110
       4       -0.001189770341    -0.001806054859     0.000350743166
       5        0.000025205519     0.000016240658    -0.000028755706
       6       -0.001179088637    -0.001584198188     0.000683333785
       7        0.000005655512     0.000007693724    -0.000011298718
       8       -0.000007136884    -0.000015078774     0.000003867829
       9       -0.000008386031     0.000001837018    -0.000001866572
      10        0.000003798341     0.000003416342     0.000002743179
      11       -0.000001702624     0.000000680661     0.000001979044
      12        0.000000654486     0.000004127006    -0.000005877380
      13        0.000004942982     0.000000898089    -0.000001156346

  **** Optimization is complete! (in 7 steps) ****
    Final optimized geometry and variables:
    Molecular point group: c1

    Geometry (in Angstrom), charge = 0, multiplicity = 1:

    H            0.437136101147    -0.761957316745     2.048874738242
    C            0.292372854267    -0.833381320267     0.964646762439
    C           -0.934699367284    -0.148048302189     0.407553580075
    O            1.050077321927    -1.461880719564     0.309347897229
    C           -0.690535845487     0.597803418268    -0.904015498713
    H           -1.360390307244     0.500474673390     1.165944311652
    H           -1.660465968071    -0.942137878232     0.246717719162
    C            0.201496068136     1.825657530417    -0.746655427306
    H           -1.650276157473     0.898818119453    -1.309480689074
    H           -0.248500166167    -0.087701216470    -1.615644562941
    H           -0.228940158730     2.536872026437    -0.048992245614
    H            0.329841024437     2.331436396289    -1.696044073756
    H            1.187091108714     1.555283118128    -0.385249283690

  Mulliken Charges: (a.u.)
   Center  Symbol    Alpha    Beta     Spin     Total
       1     H     0.45465  0.45465  0.00000  0.09071
       2     C     2.91507  2.91507  0.00000  0.16987
       3     C     3.09481  3.09481  0.00000 -0.18963
       4     O     4.16823  4.16823  0.00000 -0.33647
       5     C     3.08703  3.08703  0.00000 -0.17406
       6     H     0.44771  0.44771  0.00000  0.10457
       7     H     0.43943  0.43943  0.00000  0.12113
       8     C     3.15167  3.15167  0.00000 -0.30333
       9     H     0.44704  0.44704  0.00000  0.10592
      10     H     0.44273  0.44273  0.00000  0.11455
      11     H     0.45639  0.45639  0.00000  0.08722
      12     H     0.44582  0.44582  0.00000  0.10836
      13     H     0.44942  0.44942  0.00000  0.10116

   Total alpha = 20.00000, Total beta = 20.00000, Total charge = -0.00000

*** Psi4 exiting successfully. Buy a developer a beer!
