  ==> Input File <==

--------------------------------------------------------------------------
set {
	reference rhf
	basis 6-31G*
}

set_num_threads( 4 )
memory 2 gb

molecule MOL {
0 1

O	 0.822255	 1.166707	 -0.530471
C	 0.576249	 0.131685	 -0.000108
C	 -0.766779	 -0.556801	 -0.000461
O	 1.475914	 -0.569196	 0.678149
C	 -1.945214	 0.412366	 0.000161
H	 -0.796911	 -1.211249	 -0.867467
H	 -0.796854	 -1.212390	 0.865687
C	 -3.287791	 -0.317055	 0.000105
H	 -1.876087	 1.060580	 -0.866812
H	 -1.875822	 1.059691	 0.867761
H	 -3.394745	 -0.949193	 -0.877058
H	 -4.111778	 0.388953	 0.000015
H	 -3.394954	 -0.949187	 0.877259
C	 2.783701	 -0.031772	 0.756088
H	 3.210470	 0.073973	 -0.230942
H	 3.357683	 -0.735688	 1.338250
H	 2.769747	 0.933054	 1.242325

	symmetry c1
}
set optking {
	frozen_dihedral = ("
		1 2 3 6
	")
}

ee = optimize('scf')
oeprop('DIPOLE', 'QUADRUPOLE', 'MULLIKEN_CHARGES')
f=open( 'psi4out.xyz', 'w' )
f.write( "17  " )
f.write( str(ee) + "\n" )
f.write( MOL.save_string_xyz() )
f.close()
--------------------------------------------------------------------------

    Molecular point group: c1
  Charge       = 0
  Multiplicity = 1
  Basis Set: 6-31G*
  Basis Set:
  @DF-RHF Final Energy:  -344.90586334943777
    Total Energy =                       -344.9058633494375385
    Molecular point group: c1
  Basis Set: 6-31G*
  Basis Set:
  Basis Set: 6-31G*
  Basis Set:
  @DF-RHF Final Energy:  -344.90533851353331
    Total Energy =                       -344.9053385135331382
  Basis Set: 6-31G*
  Basis Set:
  Basis Set: 6-31G*
  Basis Set:
  @DF-RHF Final Energy:  -344.90597435480856
    Total Energy =                       -344.9059743548086203
  Basis Set: 6-31G*
  Basis Set:
  Basis Set: 6-31G*
  Basis Set:
  @DF-RHF Final Energy:  -344.90622074123678
    Total Energy =                       -344.9062207412367798
  Basis Set: 6-31G*
  Basis Set:
  Charge       = 0
  Multiplicity = 1
  Basis Set: 6-31G*
  Basis Set:

    Orbital Energies (a.u.)
    -----------------------

    Doubly Occupied:

       1A    -20.605393     2A    -20.544450     3A    -11.372621
       4A    -11.281160     5A    -11.235556     6A    -11.223819
       7A    -11.215201     8A     -1.470120     9A     -1.362723
      10A     -1.080785    11A     -1.001218    12A     -0.940454
      13A     -0.827532    14A     -0.769012    15A     -0.699823
      16A     -0.682697    17A     -0.672401    18A     -0.637112
      19A     -0.594795    20A     -0.578365    21A     -0.565237
      22A     -0.529953    23A     -0.523286    24A     -0.499772
      25A     -0.485802    26A     -0.479059    27A     -0.456452
      28A     -0.436752

  @DF-RHF Final Energy:  -344.90622139322693

   => Energetics <=

    Nuclear Repulsion Energy =            312.5083303966719086
    One-Electron Energy =               -1089.2860014856028101
    Two-Electron Energy =                 431.8714496957040865
    DFT Exchange-Correlation Energy =       0.0000000000000000
    Empirical Dispersion Energy =           0.0000000000000000
    PCM Polarization Energy =               0.0000000000000000
    EFP Energy =                            0.0000000000000000
    Total Energy =                       -344.9062213932268151
    Molecular point group: c1
  Basis Set: 6-31G*
  Basis Set:

  -Total Gradient:
     Atom            X                  Y                   Z
    ------   -----------------  -----------------  -----------------
       1        0.000233635712    -0.000564142462    -0.000789975990
       2       -0.000482935196     0.001010344944     0.001023408335
       3        0.000542523098    -0.001045079163     0.000270976020
       4        0.000035032147    -0.000038644854     0.000121256262
       5        0.000029955788     0.000005457108    -0.000084619123
       6       -0.000358175717     0.000715460811    -0.000525019465
       7        0.000019898777    -0.000013252418     0.000004572203
       8       -0.000002503986    -0.000016268706     0.000035517021
       9       -0.000005680343    -0.000003295836    -0.000010593227
      10        0.000018814372    -0.000014312843     0.000015769118
      11        0.000008938253     0.000006555552    -0.000000367708
      12        0.000010639519     0.000004413885     0.000007969461
      13       -0.000013393749    -0.000009211172     0.000001558971
      14       -0.000043892643    -0.000077825263    -0.000123369529
      15        0.000034493359     0.000016943386     0.000020742523
      16        0.000003837843     0.000010095130     0.000018352988
      17       -0.000031187243     0.000012761898     0.000013822139

  **** Optimization is complete! (in 5 steps) ****
    Final optimized geometry and variables:
    Molecular point group: c1

    Geometry (in Angstrom), charge = 0, multiplicity = 1:

    O            0.810579704393     1.139621921819    -0.620622963589
    C            0.587007858866     0.100443843734    -0.087218193488
    C           -0.751262509654    -0.598831241920    -0.082445992449
    O            1.514330000226    -0.603319480149     0.547347198124
    C           -1.929799305699     0.372802667488    -0.143236508959
    H           -0.762003316447    -1.246446322768    -0.957051023638
    H           -0.809426819665    -1.244166741799     0.785869973638
    C           -3.271997128845    -0.354627350531    -0.198701201709
    H           -1.815879795693     1.013493185477    -1.009450388256
    H           -1.903098078766     1.023969235480     0.726023061867
    H           -3.340373315057    -0.988110172949    -1.078699087136
    H           -4.094027499271     0.352617501381    -0.236819063936
    H           -3.418274612906    -0.984659224635     0.674142907206
    C            2.827377166457    -0.072609016710     0.558091919298
    H            3.204412267287     0.029630727640    -0.449324582871
    H            3.426248521880    -0.778487008922     1.112156137924
    H            2.841973926737     0.892995992600     1.042542902338

  Mulliken Charges: (a.u.)
   Center  Symbol    Alpha    Beta     Spin     Total
       1     O     4.28644  4.28644  0.00000 -0.57289
       2     C     2.60475  2.60475  0.00000  0.79049
       3     C     3.20695  3.20695  0.00000 -0.41390
       4     O     4.30616  4.30616  0.00000 -0.61231
       5     C     3.15583  3.15583  0.00000 -0.31166
       6     H     0.40060  0.40060  0.00000  0.19879
       7     H     0.40088  0.40088  0.00000  0.19824
       8     C     3.24225  3.24225  0.00000 -0.48449
       9     H     0.40405  0.40405  0.00000  0.19190
      10     H     0.41622  0.41622  0.00000  0.16755
      11     H     0.42069  0.42069  0.00000  0.15863
      12     H     0.41514  0.41514  0.00000  0.16971
      13     H     0.42107  0.42107  0.00000  0.15786
      14     C     3.09322  3.09322  0.00000 -0.18643
      15     H     0.40903  0.40903  0.00000  0.18194
      16     H     0.40831  0.40831  0.00000  0.18338
      17     H     0.40840  0.40840  0.00000  0.18319

   Total alpha = 28.00000, Total beta = 28.00000, Total charge =  0.00000
