  ==> Input File <==

--------------------------------------------------------------------------
set {
	reference rhf
	basis 6-31G*
}

set_num_threads( 1 )
memory 2 gb

molecule MOL {
0 1

O	 2.862325	 1.357334	 0.000267
C	 2.843464	 0.164689	 -0.000222
C	 1.546494	 -0.624492	 -0.000609
C	 4.124123	 -0.644674	 -0.000428
C	 0.291004	 0.242674	 0.000989
H	 1.557904	 -1.283758	 -0.867573
H	 1.558622	 -1.285963	 0.864672
C	 -0.994322	 -0.586602	 0.000262
H	 0.309117	 0.896430	 -0.865270
H	 0.309661	 0.894078	 0.869017
C	 -2.259874	 0.272531	 0.000494
H	 -1.004862	 -1.240012	 -0.870939
H	 -1.005220	 -1.241071	 0.870675
C	 -3.545761	 -0.543779	 -0.141437
H	 -2.202858	 0.996680	 -0.810293
H	 -2.301498	 0.850874	 0.921788
C	 -4.805576	 0.321409	 -0.140603
H	 -3.505838	 -1.121415	 -1.062614
H	 -3.604630	 -1.266989	 0.669341
H	 -4.792750	 1.033227	 -0.961151
H	 -5.700045	 -0.285300	 -0.243217
H	 -4.892873	 0.885747	 0.783544
H	 4.165367	 -1.288615	 -0.874074
H	 4.976217	 0.020734	 -0.001915
H	 4.166763	 -1.286207	 0.874930

	symmetry c1
}
set optking {
	frozen_dihedral = ("
		9 5 8 12,
		15 11 14 18,
		1 2 3 6,
		9 5 3 6
	")
}

ee = energy('scf')
oeprop('DIPOLE', 'QUADRUPOLE', 'MULLIKEN_CHARGES')
f=open( 'psi4out.xyz', 'w' )
f.write( "25  " )
f.write( str(ee) + "\n" )
f.write( MOL.save_string_xyz() )
f.close()
--------------------------------------------------------------------------

    Molecular point group: c1

    Geometry (in Angstrom), charge = 0, multiplicity = 1:

       Center              X                  Y                   Z               Mass
    ------------   -----------------  -----------------  -----------------  -----------------
           O          2.861414109216     1.355983649342     0.032135204062    15.994914619560
           C          2.842553109216     0.163338649342     0.031646204062    12.000000000000
           C          1.545583109216    -0.625842350658     0.031259204062    12.000000000000
           C          4.123212109216    -0.646024350658     0.031440204062    12.000000000000
           C          0.290093109216     0.241323649342     0.032857204062    12.000000000000
           H          1.556993109216    -1.285108350658    -0.835704795938     1.007825032070
           H          1.557711109216    -1.287313350658     0.896540204062     1.007825032070
           C         -0.995232890784    -0.587952350658     0.032130204062    12.000000000000
           H          0.308206109216     0.895079649342    -0.833401795938     1.007825032070
           H          0.308750109216     0.892727649342     0.900885204062     1.007825032070
           C         -2.260784890784     0.271180649342     0.032362204062    12.000000000000
           H         -1.005772890784    -1.241362350658    -0.839070795938     1.007825032070
           H         -1.006130890784    -1.242421350658     0.902543204062     1.007825032070
           C         -3.546671890784    -0.545129350658    -0.109568795938    12.000000000000
           H         -2.203768890784     0.995329649342    -0.778424795938     1.007825032070
           H         -2.302408890784     0.849523649342     0.953656204062     1.007825032070
           C         -4.806486890784     0.320058649342    -0.108734795938    12.000000000000
           H         -3.506748890784    -1.122765350658    -1.030745795938     1.007825032070
           H         -3.605540890784    -1.268339350658     0.701209204062     1.007825032070
           H         -4.793660890784     1.031876649342    -0.929282795938     1.007825032070
           H         -5.700955890784    -0.286650350658    -0.211348795938     1.007825032070
           H         -4.893783890784     0.884396649342     0.815412204062     1.007825032070
           H          4.164456109216    -1.289965350658    -0.842205795938     1.007825032070
           H          4.975306109216     0.019383649342     0.029953204062     1.007825032070
           H          4.165852109216    -1.287557350658     0.906798204062     1.007825032070

  Charge       = 0
  Multiplicity = 1
  Basis Set: 6-31G*
  Basis Set:

    Orbital Energies (a.u.)
    -----------------------

    Doubly Occupied:

       1A    -20.550463     2A    -11.326324     3A    -11.231874
       4A    -11.228346     5A    -11.217086     6A    -11.216494
       7A    -11.215367     8A    -11.213481     9A    -11.208298
      10A     -1.395774    11A     -1.093626    12A     -1.056321
      13A     -1.014514    14A     -0.969252    15A     -0.890704
      16A     -0.814123    17A     -0.790810    18A     -0.729925
      19A     -0.661489    20A     -0.651939    21A     -0.631920
      22A     -0.624075    23A     -0.596008    24A     -0.584257
      25A     -0.566330    26A     -0.560010    27A     -0.540155
      28A     -0.526314    29A     -0.512605    30A     -0.489749
      31A     -0.487878    32A     -0.473328    33A     -0.463764
      34A     -0.462182    35A     -0.450729    36A     -0.399420

  @DF-RHF Final Energy:  -387.13641586525836

   => Energetics <=

    Nuclear Repulsion Energy =            438.3556187371172541
    One-Electron Energy =               -1393.2941450640096264
    Two-Electron Energy =                 567.8021104616316279
    DFT Exchange-Correlation Energy =       0.0000000000000000
    Empirical Dispersion Energy =           0.0000000000000000
    PCM Polarization Energy =               0.0000000000000000
    EFP Energy =                            0.0000000000000000
    Total Energy =                       -387.1364158652606875

  Mulliken Charges: (a.u.)
   Center  Symbol    Alpha    Beta     Spin     Total
       1     O     4.26117  4.26117  0.00000 -0.52234
       2     C     2.73569  2.73569  0.00000  0.52861
       3     C     3.21089  3.21089  0.00000 -0.42179
       4     C     3.28664  3.28664  0.00000 -0.57327
       5     C     3.14809  3.14809  0.00000 -0.29618
       6     H     0.40997  0.40997  0.00000  0.18006
       7     H     0.41002  0.41002  0.00000  0.17997
       8     C     3.15395  3.15395  0.00000 -0.30790
       9     H     0.41211  0.41211  0.00000  0.17579
      10     H     0.41217  0.41217  0.00000  0.17566
      11     C     3.15078  3.15078  0.00000 -0.30157
      12     H     0.42502  0.42502  0.00000  0.14996
      13     H     0.42463  0.42463  0.00000  0.15074
      14     C     3.15156  3.15156  0.00000 -0.30311
      15     H     0.42238  0.42238  0.00000  0.15524
      16     H     0.42238  0.42238  0.00000  0.15524
      17     C     3.23935  3.23935  0.00000 -0.47870
      18     H     0.42347  0.42347  0.00000  0.15306
      19     H     0.42358  0.42358  0.00000  0.15283
      20     H     0.42131  0.42131  0.00000  0.15739
      21     H     0.41953  0.41953  0.00000  0.16093
      22     H     0.42143  0.42143  0.00000  0.15714
      23     H     0.40874  0.40874  0.00000  0.18253
      24     H     0.39646  0.39646  0.00000  0.20709
      25     H     0.40869  0.40869  0.00000  0.18261

   Total alpha = 36.00000, Total beta = 36.00000, Total charge = -0.00000
