                              Psi4 1.0.54 Driver

  ==> Input File <==

--------------------------------------------------------------------------
set {
	reference rhf
	basis cc-pvtz
}

set_num_threads( 4 )
memory 2 gb

molecule MOL {
0 1

H	 2.218374	 1.768207	 -1.513109
C	 1.498368	 1.595179	 -0.723849
C	 1.322304	 0.099773	 -0.484271
H	 1.856183	 2.097751	 0.167644
H	 0.564387	 2.059775	 -1.019098
C	 0.308557	 -0.162619	 0.622645
H	 2.268737	 -0.347430	 -0.206769
H	 0.984958	 -0.386028	 -1.391538
N	 -1.069352	 -0.004081	 0.085342
H	 0.371632	 -1.172932	 0.991288
H	 0.400391	 0.548875	 1.426218
O	 -1.584901	 -0.965470	 -0.377818
O	 -1.548033	 1.079343	 0.130056

	symmetry c1
}
set optking {
	frozen_dihedral = ("
		7 3 6 9
	")
}

ee,wfn = optimize('scf', return_wfn=True)
oeprop( wfn, 'DIPOLE', 'QUADRUPOLE', 'MULLIKEN_CHARGES')
f=open( 'psi4out.xyz', 'w' )
f.write( "13  " )
f.write( str(ee) + "\n" )
f.write( MOL.save_string_xyz() )
f.close()
--------------------------------------------------------------------------

    Molecular point group: c1
  Charge       = 0
  Multiplicity = 1
  Basis Set: CC-PVTZ
  Basis Set:
  @DF-RHF Final Energy:  -321.85906187733690
    Total Energy =                       -321.8590618773368419
    Molecular point group: c1
  Basis Set: CC-PVTZ
  Basis Set:
  Basis Set: CC-PVTZ
  Basis Set:
  @DF-RHF Final Energy:  -321.85946720266350
    Total Energy =                       -321.8594672026633248
  Basis Set: CC-PVTZ
  Basis Set:
  Basis Set: CC-PVTZ
  Basis Set:
  @DF-RHF Final Energy:  -321.85144382158688
    Total Energy =                       -321.8514438215868836
  Basis Set: CC-PVTZ
  Basis Set:
  Basis Set: CC-PVTZ
  Basis Set:
  @DF-RHF Final Energy:  -321.85976737155204
    Total Energy =                       -321.8597673715519818
  Basis Set: CC-PVTZ
  Basis Set:
  @DF-RHF Final Energy:  -321.86010664540800
    Total Energy =                       -321.8601066454079955
  @DF-RHF Final Energy:  -321.86017311304499
    Total Energy =                       -321.8601731130451071
  @DF-RHF Final Energy:  -321.86022741589318
    Total Energy =                       -321.8602274158933483
  @DF-RHF Final Energy:  -321.86024539815162
    Total Energy =                       -321.8602453981516192
  @DF-RHF Final Energy:  -321.86025684460947
    Total Energy =                       -321.8602568446092960
  @DF-RHF Final Energy:  -321.86026673453426
    Total Energy =                       -321.8602667345342070
  @DF-RHF Final Energy:  -321.86027581558039
    Total Energy =                       -321.8602758155805645
  @DF-RHF Final Energy:  -321.86029956306368
    Total Energy =                       -321.8602995630636769
  @DF-RHF Final Energy:  -321.86005913317729
    Total Energy =                       -321.8600591331771739
  @DF-RHF Final Energy:  -321.86031363249162
    Total Energy =                       -321.8603136324915681
  @DF-RHF Final Energy:  -321.86031888349447
    Total Energy =                       -321.8603188834946423
  @DF-RHF Final Energy:  -321.86032312538515
    Total Energy =                       -321.8603231253853210
  @DF-RHF Final Energy:  -321.86030282133186
    Total Energy =                       -321.8603028213317430
  Basis Set: CC-PVTZ
  Basis Set:
  @DF-RHF Final Energy:  -321.86033922744343
    Total Energy =                       -321.8603392274434327
  Basis Set: CC-PVTZ
  Basis Set:
  Basis Set: CC-PVTZ
  Basis Set:
  @DF-RHF Final Energy:  -321.86034597695607
    Total Energy =                       -321.8603459769557276
  Basis Set: CC-PVTZ
  Basis Set:
  Basis Set: CC-PVTZ
  Basis Set:
  @DF-RHF Final Energy:  -321.86034962235635
    Total Energy =                       -321.8603496223564662
  Basis Set: CC-PVTZ
  Basis Set:
  Charge       = 0
  Multiplicity = 1
  Basis Set: CC-PVTZ
  Basis Set:

    Orbital Energies (a.u.)
    -----------------------

    Doubly Occupied:

       1A    -20.592788     2A    -20.589243     3A    -15.837275
       4A    -11.297685     5A    -11.252404     6A    -11.230128
       7A     -1.636478     8A     -1.420727     9A     -1.132308
      10A     -1.022482    11A     -0.892498    12A     -0.826123
      13A     -0.762457    14A     -0.740700    15A     -0.728763
      16A     -0.645379    17A     -0.625313    18A     -0.596112
      19A     -0.531308    20A     -0.519707    21A     -0.513906
      22A     -0.487335    23A     -0.474971    24A     -0.453468

  @DF-RHF Final Energy:  -321.86035048938146

   => Energetics <=

    Nuclear Repulsion Energy =            252.0400321465672846
    One-Electron Energy =                -938.1816473977836495
    Two-Electron Energy =                 364.2812647618348478
    DFT Exchange-Correlation Energy =       0.0000000000000000
    Empirical Dispersion Energy =           0.0000000000000000
    PCM Polarization Energy =               0.0000000000000000
    EFP Energy =                            0.0000000000000000
    Total Energy =                       -321.8603504893814602
    Molecular point group: c1
  Basis Set: CC-PVTZ
  Basis Set:

  -Total Gradient:
     Atom            X                  Y                   Z
    ------   -----------------  -----------------  -----------------
       1       -0.000006345230    -0.000002017904     0.000005837518
       2       -0.000043949925     0.000008628537     0.000167650744
       3        0.000726552952     0.002102790661     0.001542286433
       4       -0.000002758986    -0.000005693770    -0.000006851012
       5       -0.000003349624    -0.000003877988    -0.000000605867
       6       -0.000260984760     0.001837963890     0.000772563489
       7       -0.000674486439    -0.002387834674    -0.001622464448
       8        0.000064730690     0.000148004391    -0.000072189962
       9        0.000059518983    -0.001872509860    -0.000816262204
      10       -0.000018930310     0.000048267219     0.000208780785
      11        0.000086443427     0.000189378131    -0.000140459810
      12        0.000045064590    -0.000072145679    -0.000041179249
      13        0.000028494626     0.000009047046     0.000002893586

  **** Optimization is complete! (in 21 steps) ****
    Final optimized geometry and variables:
    Molecular point group: c1

    Geometry (in Angstrom), charge = 0, multiplicity = 1:

    H            2.320813118461     1.825272429162    -1.266580550347
    C            1.622373990380     1.529795670752    -0.493920510408
    C            1.543312518443     0.010681477689    -0.401392178389
    H            1.955663011292     1.963413218517     0.442076049510
    H            0.658685745702     1.962094007162    -0.735677994775
    C            0.573567973418    -0.490124983585     0.663773946152
    H            2.513367549983    -0.413940395382    -0.170420290483
    H            1.253274166501    -0.413610905323    -1.353679987636
    N           -0.838343416868    -0.377060964707     0.195701929396
    H            0.715547868834    -1.541908961868     0.855733819944
    H            0.632361525837     0.073179275237     1.578957764036
    O           -1.163353292798    -1.075667851278    -0.705397689758
    O           -1.541257655184     0.400094153478     0.748705865490

  Mulliken Charges: (a.u.)
   Center  Symbol    Alpha    Beta     Spin     Total
       1     H     0.44514  0.44514  0.00000  0.10972
       2     C     3.14314  3.14314  0.00000 -0.28629
       3     C     3.09821  3.09821  0.00000 -0.19643
       4     H     0.45386  0.45386  0.00000  0.09228
       5     H     0.44606  0.44606  0.00000  0.10789
       6     C     3.04775  3.04775  0.00000 -0.09550
       7     H     0.44598  0.44598  0.00000  0.10804
       8     H     0.43609  0.43609  0.00000  0.12782
       9     N     3.27776  3.27776  0.00000  0.44449
      10     H     0.42807  0.42807  0.00000  0.14386
      11     H     0.43374  0.43374  0.00000  0.13252
      12     O     4.17445  4.17445  0.00000 -0.34891
      13     O     4.16975  4.16975  0.00000 -0.33949

   Total alpha = 24.00000, Total beta = 24.00000, Total charge = -0.00000

*** Psi4 exiting successfully. Buy a developer a beer!
