  ==> Input File <==

--------------------------------------------------------------------------
set {
	reference rhf
	basis 6-31G*
}

set_num_threads( 4 )
memory 2 gb

molecule MOL {
0 1

O	 0.814447	 0.133504	 -0.890151
C	 0.028650	 0.075053	 -0.000277
C	 -1.233602	 -0.752807	 0.000328
O	 0.163652	 0.747845	 1.135076
C	 -2.501530	 0.091881	 0.000126
H	 -1.193807	 -1.406641	 -0.865785
H	 -1.193516	 -1.405779	 0.867015
H	 -2.545121	 0.729328	 -0.874513
H	 -3.377167	 -0.548497	 0.000561
H	 -2.544818	 0.730135	 0.874258
C	 1.311012	 1.568006	 1.263489
H	 2.211506	 0.975428	 1.190170
H	 1.240874	 2.022728	 2.239282
H	 1.322410	 2.328267	 0.495801

	symmetry c1
}
set optking {
	frozen_dihedral = ("
		4 2 3 6
	")
}

ee = optimize('scf')
oeprop('DIPOLE', 'QUADRUPOLE', 'MULLIKEN_CHARGES')
f=open( 'psi4out.xyz', 'w' )
f.write( "14  " )
f.write( str(ee) + "\n" )
f.write( MOL.save_string_xyz() )
f.close()
--------------------------------------------------------------------------

    Molecular point group: c1
  Charge       = 0
  Multiplicity = 1
  Basis Set: 6-31G*
  Basis Set:
  @DF-RHF Final Energy:  -305.87033409456740
    Total Energy =                       -305.8703340945672835
    Molecular point group: c1
  Basis Set: 6-31G*
  Basis Set:
  Basis Set: 6-31G*
  Basis Set:
  @DF-RHF Final Energy:  -305.87063434213417
    Total Energy =                       -305.8706343421338829
  Basis Set: 6-31G*
  Basis Set:
  Basis Set: 6-31G*
  Basis Set:
  @DF-RHF Final Energy:  -305.87042003270392
    Total Energy =                       -305.8704200327039189
  Basis Set: 6-31G*
  Basis Set:
  Basis Set: 6-31G*
  Basis Set:
  @DF-RHF Final Energy:  -305.87066309183979
    Total Energy =                       -305.8706630918400720
  Basis Set: 6-31G*
  Basis Set:
  Basis Set: 6-31G*
  Basis Set:
  @DF-RHF Final Energy:  -305.87066772866268
    Total Energy =                       -305.8706677286626245
  Basis Set: 6-31G*
  Basis Set:
  Charge       = 0
  Multiplicity = 1
  Basis Set: 6-31G*
  Basis Set:

    Orbital Energies (a.u.)
    -----------------------

    Doubly Occupied:

       1A    -20.605054     2A    -20.544815     3A    -11.371820
       4A    -11.281494     5A    -11.237597     6A    -11.226673
       7A     -1.469667     8A     -1.362425     9A     -1.067702
      10A     -0.976063    11A     -0.884979    12A     -0.774290
      13A     -0.696447    14A     -0.679178    15A     -0.673531
      16A     -0.618601    17A     -0.591112    18A     -0.569238
      19A     -0.544016    20A     -0.518436    21A     -0.512286
      22A     -0.504327    23A     -0.455950    24A     -0.434341

  @DF-RHF Final Energy:  -305.87066792008631

   => Energetics <=

    Nuclear Repulsion Energy =            248.2617524847431127
    One-Electron Energy =                -909.0647543004332647
    Two-Electron Energy =                 354.9323338956041880
    DFT Exchange-Correlation Energy =       0.0000000000000000
    Empirical Dispersion Energy =           0.0000000000000000
    PCM Polarization Energy =               0.0000000000000000
    EFP Energy =                            0.0000000000000000
    Total Energy =                       -305.8706679200859071
    Molecular point group: c1
  Basis Set: 6-31G*
  Basis Set:

  -Total Gradient:
     Atom            X                  Y                   Z
    ------   -----------------  -----------------  -----------------
       1       -0.000006483620     0.000009502303     0.000013402382
       2       -0.000056845082     0.000073931561    -0.000068697775
       3       -0.000067491642     0.000125048727    -0.000089509540
       4        0.000038863154    -0.000048474332     0.000026733840
       5       -0.000000889495    -0.000024272854     0.000026351081
       6        0.000076562191    -0.000119913208     0.000054603556
       7       -0.000006073203    -0.000003242162     0.000002693870
       8        0.000017339533    -0.000011505624     0.000004716374
       9        0.000006213165     0.000010248934     0.000001177334
      10       -0.000020231888     0.000018509843     0.000010343418
      11        0.000042777241    -0.000062174165     0.000031792298
      12        0.000002598472     0.000021795782     0.000003026333
      13       -0.000008055737     0.000009329865    -0.000003369025
      14       -0.000018283088     0.000001215327    -0.000013264140

  **** Optimization is complete! (in 6 steps) ****
    Final optimized geometry and variables:
    Molecular point group: c1

    Geometry (in Angstrom), charge = 0, multiplicity = 1:

    O            1.013997996105    -0.183880010272    -1.159092628006
    C            0.245105128647    -0.262450087168    -0.255765342391
    C           -1.010590107222    -1.098625451353    -0.256624610958
    O            0.394662254257     0.400004730392     0.884620005572
    C           -2.277237122932    -0.234971949472    -0.268335719365
    H           -0.971269016939    -1.736228381956    -1.129461496839
    H           -1.002890134550    -1.725808099048     0.628520757012
    H           -2.302714103245     0.405837357728    -1.143541299682
    H           -3.157982774434    -0.866815506966    -0.292393866895
    H           -2.331823425622     0.389715680196     0.614852534514
    C            1.529914097940     1.239127199421     0.996318866579
    H            2.438625950586     0.662771932140     0.899512137588
    H            1.472210553162     1.685052883700     1.976999420267
    H            1.512128268050     2.005206717823     0.234560287228

  Mulliken Charges: (a.u.)
   Center  Symbol    Alpha    Beta     Spin     Total
       1     O     4.28430  4.28430  0.00000 -0.56860
       2     C     2.61628  2.61628  0.00000  0.76745
       3     C     3.19550  3.19550  0.00000 -0.39100
       4     O     4.30256  4.30256  0.00000 -0.60512
       5     C     3.25049  3.25049  0.00000 -0.50097
       6     H     0.39828  0.39828  0.00000  0.20344
       7     H     0.40360  0.40360  0.00000  0.19280
       8     H     0.41153  0.41153  0.00000  0.17694
       9     H     0.41201  0.41201  0.00000  0.17597
      10     H     0.40702  0.40702  0.00000  0.18596
      11     C     3.09226  3.09226  0.00000 -0.18453
      12     H     0.40852  0.40852  0.00000  0.18297
      13     H     0.40874  0.40874  0.00000  0.18252
      14     H     0.40891  0.40891  0.00000  0.18217

   Total alpha = 24.00000, Total beta = 24.00000, Total charge =  0.00000
