  ==> Input File <==

--------------------------------------------------------------------------
set {
	reference rhf
	basis 6-31G*
}

set_num_threads( 4 )
memory 2 gb

molecule MOL {
0 1

H	 -3.161837	 0.500524	 -0.000234
C	 -2.367097	 -0.232926	 -0.000000
O	 -1.158440	 0.455814	 -0.000122
H	 -2.468853	 -0.861886	 -0.882833
H	 -2.468942	 -0.861421	 0.883154
C	 -0.776271	 0.944633	 -1.250273
C	 0.550576	 1.669886	 -1.108335
H	 -1.538539	 1.622052	 -1.637507
H	 -0.684620	 0.123445	 -1.962423
C	 1.048824	 2.241776	 -2.434823
H	 0.432060	 2.464680	 -0.378322
H	 1.280059	 0.976595	 -0.701023
H	 0.343376	 2.957384	 -2.847949
H	 1.996688	 2.753039	 -2.304402
H	 1.196759	 1.458723	 -3.173299

	symmetry c1
}
set optking {
	frozen_dihedral = ("
		6 3 2 4
	")
}

ee = optimize('scf')
oeprop('DIPOLE', 'QUADRUPOLE', 'MULLIKEN_CHARGES')
f=open( 'psi4out.xyz', 'w' )
f.write( "15  " )
f.write( str(ee) + "\n" )
f.write( MOL.save_string_xyz() )
f.close()
--------------------------------------------------------------------------

    Molecular point group: c1
  Charge       = 0
  Multiplicity = 1
  Basis Set: 6-31G*
  Basis Set:
  @DF-RHF Final Energy:  -232.13743899388129
    Total Energy =                       -232.1374389938811760
    Molecular point group: c1
  Basis Set: 6-31G*
  Basis Set:
  Basis Set: 6-31G*
  Basis Set:
  @DF-RHF Final Energy:  -232.13821834760489
    Total Energy =                       -232.1382183476048340
  Basis Set: 6-31G*
  Basis Set:
  Basis Set: 6-31G*
  Basis Set:
  @DF-RHF Final Energy:  -232.13842146157575
    Total Energy =                       -232.1384214615757173
  Basis Set: 6-31G*
  Basis Set:
  Basis Set: 6-31G*
  Basis Set:
  @DF-RHF Final Energy:  -232.13842277766793
    Total Energy =                       -232.1384227776679268
  Basis Set: 6-31G*
  Basis Set:
  Charge       = 0
  Multiplicity = 1
  Basis Set: 6-31G*
  Basis Set:

    Orbital Energies (a.u.)
    -----------------------

    Doubly Occupied:

       1A    -20.552405     2A    -11.266472     3A    -11.263895
       4A    -11.214152     5A    -11.212894     6A     -1.376972
       7A     -1.057188     8A     -0.955291     9A     -0.877372
      10A     -0.809104    11A     -0.673626    12A     -0.653649
      13A     -0.630416    14A     -0.607108    15A     -0.565518
      16A     -0.541907    17A     -0.502575    18A     -0.489560
      19A     -0.478171    20A     -0.461309    21A     -0.411961

  @DF-RHF Final Energy:  -232.13842310067434

   => Energetics <=

    Nuclear Repulsion Energy =            189.6482068515659876
    One-Electron Energy =                -690.3701727466519742
    Two-Electron Energy =                 268.5835427944119829
    DFT Exchange-Correlation Energy =       0.0000000000000000
    Empirical Dispersion Energy =           0.0000000000000000
    PCM Polarization Energy =               0.0000000000000000
    EFP Energy =                            0.0000000000000000
    Total Energy =                       -232.1384231006740038
    Molecular point group: c1
  Basis Set: 6-31G*
  Basis Set:

  -Total Gradient:
     Atom            X                  Y                   Z
    ------   -----------------  -----------------  -----------------
       1        0.000003874014     0.000001835242    -0.000000144210
       2        0.001918728547    -0.003426760581     0.001516713446
       3       -0.001805407828     0.003205524804     0.000211528959
       4       -0.001158791455     0.002056985371    -0.001311318895
       5        0.000004694794     0.000002181335    -0.000002914895
       6        0.001034812602    -0.001835684982    -0.000418489695
       7       -0.000001702071    -0.000002398854     0.000001827940
       8       -0.000000948731    -0.000003606152     0.000004698791
       9       -0.000001084305     0.000000448716     0.000005936248
      10        0.000008193206    -0.000002531792    -0.000004121373
      11       -0.000005655977    -0.000003376728    -0.000001485733
      12        0.000002359771     0.000003334131     0.000000617013
      13        0.000001163814     0.000001879411     0.000001318245
      14        0.000002211690     0.000000576565    -0.000003558131
      15       -0.000002448070     0.000001593513    -0.000000607709

  **** Optimization is complete! (in 5 steps) ****
    Final optimized geometry and variables:
    Molecular point group: c1

    Geometry (in Angstrom), charge = 0, multiplicity = 1:

    H           -2.645419066870    -0.536255967468     0.979022304390
    C           -1.805284889476    -1.228358966888     0.955131281967
    O           -0.592069630545    -0.544552028460     0.947159774673
    H           -1.918802557647    -1.855499220420     0.073444485321
    H           -1.836413031106    -1.846443578451     1.842070727149
    C           -0.207580352448    -0.050873079085    -0.300829406028
    C            1.120508585518     0.670701613784    -0.152432177806
    H           -0.965758834786     0.630751822860    -0.689147865801
    H           -0.116015940150    -0.870625764992    -1.013877597483
    C            1.627499351329     1.239887086241    -1.476849238141
    H            1.001001084193     1.466381112635     0.576421376331
    H            1.845381306868    -0.024910072522     0.259174296718
    H            0.926509338355     1.957466961766    -1.894121108766
    H            2.576330149353     1.748279887684    -1.342112873401
    H            1.776544116360     0.455835164134    -2.214072352443

  Mulliken Charges: (a.u.)
   Center  Symbol    Alpha    Beta     Spin     Total
       1     H     0.42847  0.42847  0.00000  0.14306
       2     C     3.07806  3.07806  0.00000 -0.15612
       3     O     4.30710  4.30710  0.00000 -0.61420
       4     H     0.43137  0.43137  0.00000  0.13727
       5     H     0.41317  0.41317  0.00000  0.17365
       6     C     2.98163  2.98163  0.00000  0.03673
       7     C     3.15989  3.15989  0.00000 -0.31978
       8     H     0.43378  0.43378  0.00000  0.13245
       9     H     0.43278  0.43278  0.00000  0.13443
      10     C     3.24793  3.24793  0.00000 -0.49586
      11     H     0.41434  0.41434  0.00000  0.17133
      12     H     0.41431  0.41431  0.00000  0.17138
      13     H     0.42085  0.42085  0.00000  0.15831
      14     H     0.41541  0.41541  0.00000  0.16918
      15     H     0.42091  0.42091  0.00000  0.15817

   Total alpha = 21.00000, Total beta = 21.00000, Total charge =  0.00000
