  ==> Input File <==

--------------------------------------------------------------------------
set {
	reference rhf
	basis 6-31G*
}

set_num_threads( 4 )
memory 2 gb

molecule MOL {
0 1

O	 -1.276010	 1.052711	 -0.768302
C	 -1.204840	 0.067374	 -0.106123
C	 -2.388195	 -0.672128	 0.458071
O	 -0.067104	 -0.527208	 0.221609
H	 -2.388023	 -1.694060	 0.097175
H	 -3.300579	 -0.174919	 0.164318
H	 -2.315377	 -0.706351	 1.539059
C	 0.085314	 -1.057980	 1.545610
C	 1.578676	 -1.071586	 1.819968
C	 -0.546783	 -2.439052	 1.621366
H	 -0.414676	 -0.389263	 2.230690
H	 1.991716	 -0.072428	 1.740422
H	 1.771432	 -1.443555	 2.820875
H	 2.092971	 -1.711606	 1.111075
H	 -0.414588	 -2.855927	 2.614722
H	 -1.608349	 -2.387255	 1.415525
H	 -0.081697	 -3.108697	 0.904932

	symmetry c1
}
set optking {
	frozen_dihedral = ("
		8 4 2 1
	")
}

ee = optimize('scf')
oeprop('DIPOLE', 'QUADRUPOLE', 'MULLIKEN_CHARGES')
f=open( 'psi4out.xyz', 'w' )
f.write( "17  " )
f.write( str(ee) + "\n" )
f.write( MOL.save_string_xyz() )
f.close()
--------------------------------------------------------------------------

    Molecular point group: c1
  Charge       = 0
  Multiplicity = 1
  Basis Set: 6-31G*
  Basis Set:
  @DF-RHF Final Energy:  -344.87419007617683
    Total Energy =                       -344.8741900761768875
    Molecular point group: c1
  Basis Set: 6-31G*
  Basis Set:
  Basis Set: 6-31G*
  Basis Set:
  @DF-RHF Final Energy:  -344.89047548755002
    Total Energy =                       -344.8904754875501339
  Basis Set: 6-31G*
  Basis Set:
  Basis Set: 6-31G*
  Basis Set:
  @DF-RHF Final Energy:  -344.89296579847104
    Total Energy =                       -344.8929657984708683
  Basis Set: 6-31G*
  Basis Set:
  Basis Set: 6-31G*
  Basis Set:
  @DF-RHF Final Energy:  -344.89428006486986
    Total Energy =                       -344.8942800648702018
  Basis Set: 6-31G*
  Basis Set:
  @DF-RHF Final Energy:  -344.89485557239112
    Total Energy =                       -344.8948555723912932
  @DF-RHF Final Energy:  -344.89538608648343
    Total Energy =                       -344.8953860864832563
  @DF-RHF Final Energy:  -344.89555952414736
    Total Energy =                       -344.8955595241476999
  @DF-RHF Final Energy:  -344.89559495590453
    Total Energy =                       -344.8955949559044711
  @DF-RHF Final Energy:  -344.89561168295268
    Total Energy =                       -344.8956116829530174
  @DF-RHF Final Energy:  -344.89561566502982
    Total Energy =                       -344.8956156650295952
  @DF-RHF Final Energy:  -344.89561935493589
    Total Energy =                       -344.8956193549360023
  @DF-RHF Final Energy:  -344.89562316167627
    Total Energy =                       -344.8956231616763262
  @DF-RHF Final Energy:  -344.89562622684673
    Total Energy =                       -344.8956262268465025
  @DF-RHF Final Energy:  -344.89563320163040
    Total Energy =                       -344.8956332016305169
  @DF-RHF Final Energy:  -344.89564270011050
    Total Energy =                       -344.8956427001106135
  @DF-RHF Final Energy:  -344.89456564206671
    Total Energy =                       -344.8945656420667660
  @DF-RHF Final Energy:  -344.89565912003263
    Total Energy =                       -344.8956591200326329
  @DF-RHF Final Energy:  -344.89569518535052
    Total Energy =                       -344.8956951853507462
  @DF-RHF Final Energy:  -344.89574721896412
    Total Energy =                       -344.8957472189640612
  @DF-RHF Final Energy:  -344.87790863421219
    Total Energy =                       -344.8779086342123037
  @DF-RHF Final Energy:  -344.86484248999244
    Total Energy =                       -344.8648424899926113
  @DF-RHF Final Energy:  -344.81265861586331
    Total Energy =                       -344.8126586158630857
  @DF-RHF Final Energy:  -344.87075621212546
    Total Energy =                       -344.8707562121253432
  @DF-RHF Final Energy:  -344.84144537684188
    Total Energy =                       -344.8414453768419889
  @DF-RHF Final Energy:  -344.87859944786504
    Total Energy =                       -344.8785994478652128
  @DF-RHF Final Energy:  -344.85952335539110
    Total Energy =                       -344.8595233553911612
  @DF-RHF Final Energy:  -344.87821656246047
    Total Energy =                       -344.8782165624602953
  @DF-RHF Final Energy:  -344.88275342860874
    Total Energy =                       -344.8827534286087371
  @DF-RHF Final Energy:  -344.88482299965506
    Total Energy =                       -344.8848229996551140
  @DF-RHF Final Energy:  -344.88740476795709
    Total Energy =                       -344.8874047679569230
  @DF-RHF Final Energy:  -344.88876216087959
    Total Energy =                       -344.8887621608798213
  @DF-RHF Final Energy:  -344.89005653898852
    Total Energy =                       -344.8900565389886879
  @DF-RHF Final Energy:  -344.89132489268422
    Total Energy =                       -344.8913248926842812
  @DF-RHF Final Energy:  -344.89199450045749
    Total Energy =                       -344.8919945004575993
  @DF-RHF Final Energy:  -344.89236804979180
    Total Energy =                       -344.8923680497917417
  @DF-RHF Final Energy:  -344.89273395546178
    Total Energy =                       -344.8927339554614946
  Basis Set: 6-31G*
  Basis Set:
  @DF-RHF Final Energy:  -344.89323679724146
    Total Energy =                       -344.8932367972411157
  Basis Set: 6-31G*
  Basis Set:
  Basis Set: 6-31G*
  Basis Set:
  @DF-RHF Final Energy:  -344.89384380819928
    Total Energy =                       -344.8938438081992217
  Basis Set: 6-31G*
  Basis Set:
  Basis Set: 6-31G*
  Basis Set:
  @DF-RHF Final Energy:  -344.89452742039254
    Total Energy =                       -344.8945274203925919
  Basis Set: 6-31G*
  Basis Set:
  Charge       = 0
  Multiplicity = 1
  Basis Set: 6-31G*
  Basis Set:

    Orbital Energies (a.u.)
    -----------------------

    Doubly Occupied:

       1A    -20.590497     2A    -20.540238     3A    -11.373962
       4A    -11.304785     5A    -11.238526     6A    -11.224321
       7A    -11.224240     8A     -1.455892     9A     -1.362388
      10A     -1.080160    11A     -1.014420    12A     -0.958269
      13A     -0.854927    14A     -0.777187    15A     -0.696474
      16A     -0.667260    17A     -0.657346    18A     -0.621245
      19A     -0.594090    20A     -0.592108    21A     -0.559993
      22A     -0.555960    23A     -0.541169    24A     -0.525673
      25A     -0.510574    26A     -0.488575    27A     -0.442717
      28A     -0.431268

  @DF-RHF Final Energy:  -344.89507183320956

   => Energetics <=

    Nuclear Repulsion Energy =            322.5185660676141310
    One-Electron Energy =               -1109.0587492955392008
    Two-Electron Energy =                 441.6451113947155704
    DFT Exchange-Correlation Energy =       0.0000000000000000
    Empirical Dispersion Energy =           0.0000000000000000
    PCM Polarization Energy =               0.0000000000000000
    EFP Energy =                            0.0000000000000000
    Total Energy =                       -344.8950718332095562
    Molecular point group: c1
  Basis Set: 6-31G*
  Basis Set:

  -Total Gradient:
     Atom            X                  Y                   Z
    ------   -----------------  -----------------  -----------------
       1       -0.001397167147     0.003656504370     0.003403001149
       2       -0.002077601615    -0.004286492592    -0.003682191417
       3        0.003876717824    -0.005856857326    -0.000559070930
       4        0.002412966681    -0.001675182407    -0.001823490357
       5        0.003466181663     0.000975848770     0.000647260129
       6       -0.000511539780     0.005079564359    -0.001202494453
       7       -0.002393962447     0.000836349029    -0.001657881086
       8       -0.004912447997    -0.000690892288     0.015238183741
       9       -0.001585468167    -0.002510800468    -0.006320900624
      10       -0.005563997265     0.003096956621    -0.006123984217
      11        0.006229568370     0.000729084751    -0.000901057495
      12       -0.001848775998    -0.000612501829    -0.001739194497
      13       -0.000072763669     0.000069988537     0.002228230245
      14       -0.001328957816     0.000398498069     0.001113571761
      15       -0.000658147206    -0.000799346848    -0.002056738888
      16        0.007074595427     0.000806355639     0.002547822823
      17       -0.000709200860     0.000782923616     0.000888934118

    Molecular point group: c1

    Geometry (in Angstrom), charge = 0, multiplicity = 1:

    O           -0.350555379747     1.437336500932    -1.726972360467
    C           -0.628366052427     0.731704091381    -0.817817047371
    C           -1.898450415158     0.929636130211    -0.025659218115
    O            0.161800878471    -0.284710173291    -0.471993641781
    H           -2.318897580188    -0.013550245894     0.292275111235
    H           -2.591654056465     1.488814427742    -0.641233496521
    H           -1.714114505735     1.535995828353     0.855821449639
    C            0.444086241211    -0.647549704085     0.888034391043
    C            1.777624630223    -0.016579489063     1.241395253756
    C            0.481423188940    -2.161962334969     0.908998833552
    H           -0.309775190488    -0.251090544465     1.544887874051
    H            1.733595187443     1.051874485396     1.060628289392
    H            2.017685606013    -0.179639047476     2.291255600685
    H            2.569844634252    -0.430110050463     0.633623218323
    H            0.832041842311    -2.528432419607     1.865854190639
    H           -0.487235803847    -2.589993853768     0.716041373070
    H            1.164797406461    -2.508390573898     0.145112627992

  Mulliken Charges: (a.u.)
   Center  Symbol    Alpha    Beta     Spin     Total
       1     O     4.26193  4.26193  0.00000 -0.52387
       2     C     2.61574  2.61574  0.00000  0.76852
       3     C     3.30578  3.30578  0.00000 -0.61156
       4     O     4.31553  4.31553  0.00000 -0.63106
       5     H     0.40601  0.40601  0.00000  0.18799
       6     H     0.38909  0.38909  0.00000  0.22181
       7     H     0.40148  0.40148  0.00000  0.19704
       8     C     2.93493  2.93493  0.00000  0.13013
       9     C     3.23804  3.23804  0.00000 -0.47607
      10     C     3.24174  3.24174  0.00000 -0.48348
      11     H     0.41422  0.41422  0.00000  0.17155
      12     H     0.41149  0.41149  0.00000  0.17702
      13     H     0.42007  0.42007  0.00000  0.15987
      14     H     0.40781  0.40781  0.00000  0.18438
      15     H     0.41836  0.41836  0.00000  0.16328
      16     H     0.41207  0.41207  0.00000  0.17586
      17     H     0.40570  0.40570  0.00000  0.18859

   Total alpha = 28.00000, Total beta = 28.00000, Total charge = -0.00000
