  ==> Input File <==

--------------------------------------------------------------------------
set {
	reference rhf
	basis cc-pvtz
}

set_num_threads( 4 )
memory 2 gb

molecule MOL {
0 1

H	 -3.144994	 -1.202467	 -0.018751
O	 -2.321472	 -0.864941	 -0.318626
C	 -2.021813	 0.336996	 0.342658
C	 -0.669613	 0.837286	 -0.127252
H	 -2.780861	 1.084746	 0.127159
H	 -2.006390	 0.184138	 1.420053
C	 0.490865	 -0.082543	 0.241244
H	 -0.708709	 0.967192	 -1.204587
H	 -0.507562	 1.822272	 0.303070
C	 1.856663	 0.560359	 0.017907
H	 0.420198	 -0.995337	 -0.339159
H	 0.398677	 -0.373182	 1.285827
C	 3.016924	 -0.355447	 0.393245
H	 1.949896	 0.848955	 -1.025512
H	 1.922933	 1.479447	 0.594601
H	 2.998431	 -1.268618	 -0.192155
H	 3.971766	 0.128424	 0.221634
H	 2.971763	 -0.635302	 1.440664

	symmetry c1
}
set optking {
	frozen_dihedral = ("
		10 7 4 8
	")
}

ee = optimize('scf')
oeprop('DIPOLE', 'QUADRUPOLE', 'MULLIKEN_CHARGES')
f=open( 'psi4out.xyz', 'w' )
f.write( "18  " )
f.write( str(ee) + "\n" )
f.write( MOL.save_string_xyz() )
f.close()
--------------------------------------------------------------------------

    Molecular point group: c1
  Charge       = 0
  Multiplicity = 1
  Basis Set: CC-PVTZ
  Basis Set:
  @DF-RHF Final Energy:  -271.28640446836937
    Total Energy =                       -271.2864044683695965
    Molecular point group: c1
  Basis Set: CC-PVTZ
  Basis Set:
  Basis Set: CC-PVTZ
  Basis Set:
  @DF-RHF Final Energy:  -271.28645207300309
    Total Energy =                       -271.2864520730028062
  Basis Set: CC-PVTZ
  Basis Set:
  Basis Set: CC-PVTZ
  Basis Set:
  @DF-RHF Final Energy:  -271.28647301146731
    Total Energy =                       -271.2864730114676490
  Basis Set: CC-PVTZ
  Basis Set:
  Charge       = 0
  Multiplicity = 1
  Basis Set: CC-PVTZ
  Basis Set:

    Orbital Energies (a.u.)
    -----------------------

    Doubly Occupied:

       1A    -20.546116     2A    -11.265736     3A    -11.210447
       4A    -11.209372     5A    -11.205143     6A    -11.202906
       7A     -1.364044     8A     -1.076512     9A     -1.010284
      10A     -0.914372    11A     -0.818644    12A     -0.784672
      13A     -0.707610    14A     -0.646331    15A     -0.625055
      16A     -0.580835    17A     -0.572982    18A     -0.559565
      19A     -0.524181    20A     -0.504130    21A     -0.487817
      22A     -0.468319    23A     -0.459094    24A     -0.449608
      25A     -0.431458

  @DF-RHF Final Energy:  -271.28647335363655

   => Energetics <=

    Nuclear Repulsion Energy =            249.2717580607622097
    One-Electron Energy =                -861.8659956686835812
    Two-Electron Energy =                 341.3077642542848480
    DFT Exchange-Correlation Energy =       0.0000000000000000
    Empirical Dispersion Energy =           0.0000000000000000
    PCM Polarization Energy =               0.0000000000000000
    EFP Energy =                            0.0000000000000000
    Total Energy =                       -271.2864733536365520
    Molecular point group: c1
  Basis Set: CC-PVTZ
  Basis Set:

  -Total Gradient:
     Atom            X                  Y                   Z
    ------   -----------------  -----------------  -----------------
       1        0.000004474876    -0.000002316115     0.000000280780
       2       -0.000014823390    -0.000018405573     0.000004576221
       3        0.000003301759     0.000006117400    -0.000004756854
       4        0.001604157395     0.002291465680     0.000687186774
       5       -0.000000467856     0.000015482679     0.000010061620
       6       -0.000007072652    -0.000011277744     0.000001748719
       7       -0.000280892313    -0.001162240382    -0.002025957000
       8       -0.001292425461    -0.001674008767    -0.000157150821
       9        0.000012184177    -0.000030596039     0.000007852874
      10       -0.000022552134     0.000589535504     0.001484489944
      11       -0.000017825590     0.000021060151     0.000010150037
      12        0.000008151751    -0.000004911297     0.000014722188
      13        0.000002727529    -0.000018502014    -0.000038221447
      14        0.000011063410     0.000004634135     0.000003464899
      15       -0.000012802583    -0.000003001482     0.000003589691
      16        0.000006760150    -0.000013408085     0.000010018480
      17        0.000001166658    -0.000004360068    -0.000010254661
      18       -0.000005125729     0.000014732016    -0.000001801446

  **** Optimization is complete! (in 4 steps) ****
    Final optimized geometry and variables:
    Molecular point group: c1

    Geometry (in Angstrom), charge = 0, multiplicity = 1:

    H           -3.129731220689    -1.263650765529    -0.110495185195
    O           -2.304248400883    -0.922315249940    -0.400249900436
    C           -2.033281683178     0.297415895675     0.240309967578
    C           -0.678555488375     0.804373511570    -0.216025236092
    H           -2.797892650659     1.030456116549    -0.004758548911
    H           -2.035326598484     0.167410609982     1.320739315098
    C            0.479882284129    -0.115345683397     0.163483207270
    H           -0.715355747970     0.922388327771    -1.294793186813
    H           -0.526449313165     1.790405942922     0.214176345416
    C            1.847949114614     0.521214093984    -0.065144386663
    H            0.402917937329    -1.039956129819    -0.396334885934
    H            0.390998777919    -0.386080202673     1.213726417877
    C            3.005684292158    -0.407343127559     0.285594811394
    H            1.935142856545     0.826256475416    -1.104800332926
    H            1.923797042258     1.430368505677     0.525355591667
    H            2.978110453732    -1.310168841542    -0.315188931369
    H            3.962019228766     0.074181721119     0.115733809373
    H            2.965986514696    -0.705057950866     1.328309846235

  Mulliken Charges: (a.u.)
   Center  Symbol    Alpha    Beta     Spin     Total
       1     H     0.39593  0.39593  0.00000  0.20813
       2     O     4.19887  4.19887  0.00000 -0.39774
       3     C     2.97353  2.97353  0.00000  0.05294
       4     C     3.09184  3.09184  0.00000 -0.18369
       5     H     0.46604  0.46604  0.00000  0.06791
       6     H     0.47405  0.47405  0.00000  0.05191
       7     C     3.08472  3.08472  0.00000 -0.16944
       8     H     0.45155  0.45155  0.00000  0.09690
       9     H     0.45457  0.45457  0.00000  0.09085
      10     C     3.08373  3.08373  0.00000 -0.16747
      11     H     0.44426  0.44426  0.00000  0.11148
      12     H     0.45985  0.45985  0.00000  0.08031
      13     C     3.14978  3.14978  0.00000 -0.29957
      14     H     0.45496  0.45496  0.00000  0.09008
      15     H     0.45661  0.45661  0.00000  0.08678
      16     H     0.45439  0.45439  0.00000  0.09121
      17     H     0.44941  0.44941  0.00000  0.10119
      18     H     0.45589  0.45589  0.00000  0.08822

   Total alpha = 25.00000, Total beta = 25.00000, Total charge = -0.00000
