                              Psi4 1.0.54 Driver

  ==> Input File <==

--------------------------------------------------------------------------
set {
	reference rhf
	basis cc-pvtz
}

set_num_threads( 4 )
memory 2 gb

molecule MOL {
0 1

H	 0.013941	 2.222571	 -4.844689
C	 0.265932	 1.842406	 -3.873015
C	 -0.171816	 2.502600	 -2.738924
C	 1.026971	 0.694482	 -3.758672
H	 -0.762489	 3.393550	 -2.828446
C	 0.152396	 2.013480	 -1.490668
H	 1.365958	 0.183237	 -4.638779
C	 1.352434	 0.203476	 -2.509478
H	 -0.178163	 2.512014	 -0.602269
C	 0.915580	 0.862319	 -1.371236
H	 1.941650	 -0.685276	 -2.417429
C	 1.238974	 0.374429	 0.000004
O	 1.968286	 -0.725612	 -0.000027
O	 0.881408	 0.913749	 0.993211
C	 3.373556	 -0.568203	 0.000011
H	 3.695416	 -0.031588	 -0.879663
H	 3.782700	 -1.565294	 -0.000152
H	 3.695405	 -0.031851	 0.879862

	symmetry c1
}
set optking {
	frozen_dihedral = ("
		10 12 13 15
	")
}

ee,wfn = optimize('scf', return_wfn=True)
oeprop( wfn, 'DIPOLE', 'QUADRUPOLE', 'MULLIKEN_CHARGES')
f=open( 'psi4out.xyz', 'w' )
f.write( "18  " )
f.write( str(ee) + "\n" )
f.write( MOL.save_string_xyz() )
f.close()
--------------------------------------------------------------------------

    Molecular point group: c1
  Charge       = 0
  Multiplicity = 1
  Basis Set: CC-PVTZ
  Basis Set:
  @DF-RHF Final Energy:  -457.48962411900817
    Total Energy =                       -457.4896241190083401
    Molecular point group: c1
  Basis Set: CC-PVTZ
  Basis Set:
  Basis Set: CC-PVTZ
  Basis Set:
  @DF-RHF Final Energy:  -457.48973808867009
    Total Energy =                       -457.4897380886704923
  Basis Set: CC-PVTZ
  Basis Set:
  Basis Set: CC-PVTZ
  Basis Set:
  @DF-RHF Final Energy:  -457.49132406919728
    Total Energy =                       -457.4913240691973897
  Basis Set: CC-PVTZ
  Basis Set:
  Basis Set: CC-PVTZ
  Basis Set:
  @DF-RHF Final Energy:  -457.49125306272759
    Total Energy =                       -457.4912530627274236
  Basis Set: CC-PVTZ
  Basis Set:
  Basis Set: CC-PVTZ
  Basis Set:
  @DF-RHF Final Energy:  -457.49140181356125
    Total Energy =                       -457.4914018135614242
  Basis Set: CC-PVTZ
  Basis Set:
  Basis Set: CC-PVTZ
  Basis Set:
  @DF-RHF Final Energy:  -457.49141855211144
    Total Energy =                       -457.4914185521110994
  Basis Set: CC-PVTZ
  Basis Set:
  Charge       = 0
  Multiplicity = 1
  Basis Set: CC-PVTZ
  Basis Set:

    Orbital Energies (a.u.)
    -----------------------

    Doubly Occupied:

       1A    -20.581236     2A    -20.545600     3A    -11.373866
       4A    -11.289118     5A    -11.249256     6A    -11.248322
       7A    -11.247963     8A    -11.244781     9A    -11.241036
      10A    -11.239993    11A     -1.464895    12A     -1.371665
      13A     -1.174975    14A     -1.050201    15A     -1.033843
      16A     -0.975456    17A     -0.874682    18A     -0.844167
      19A     -0.782781    20A     -0.742191    21A     -0.689552
      22A     -0.680162    23A     -0.665490    24A     -0.641967
      25A     -0.633457    26A     -0.612232    27A     -0.601519
      28A     -0.562671    29A     -0.532229    30A     -0.525926
      31A     -0.508434    32A     -0.499155    33A     -0.465967
      34A     -0.447238    35A     -0.354832    36A     -0.351064

  @DF-RHF Final Energy:  -457.49141887341881

   => Energetics <=

    Nuclear Repulsion Energy =            496.9532822492848823
    One-Electron Energy =               -1608.1935542188921318
    Two-Electron Energy =                 653.7488530961888955
    DFT Exchange-Correlation Energy =       0.0000000000000000
    Empirical Dispersion Energy =           0.0000000000000000
    PCM Polarization Energy =               0.0000000000000000
    EFP Energy =                            0.0000000000000000
    Total Energy =                       -457.4914188734182972
    Molecular point group: c1
  Basis Set: CC-PVTZ
  Basis Set:

  -Total Gradient:
     Atom            X                  Y                   Z
    ------   -----------------  -----------------  -----------------
       1       -0.000005274664     0.000003037880     0.000001639179
       2        0.000001062945     0.000026087609     0.000020047283
       3       -0.000023632927    -0.000014156537    -0.000025358745
       4        0.000025809680    -0.000005513817     0.000025600072
       5        0.000004967726     0.000004787873    -0.000002722142
       6        0.000015082867    -0.000003792586     0.000005514370
       7        0.000000144430    -0.000002176373     0.000004524166
       8       -0.000032441382    -0.000004916164    -0.000017348410
       9       -0.000005515970     0.000003197104    -0.000000532341
      10        0.001895119800     0.001286525165    -0.000102894195
      11        0.000000474163    -0.000003965733     0.000006970379
      12       -0.002740790469    -0.002015529133    -0.000996005448
      13        0.000949864694     0.000747078095     0.003520899935
      14       -0.000043101127     0.000042244869     0.000008803721
      15       -0.000004934241    -0.000051687222    -0.002457673583
      16       -0.000001117666    -0.000003066137     0.000007768224
      17       -0.000011242787     0.000003049253     0.000005241616
      18       -0.000024475073    -0.000011204145    -0.000004474077

  **** Optimization is complete! (in 7 steps) ****
    Final optimized geometry and variables:
    Molecular point group: c1

    Geometry (in Angstrom), charge = 0, multiplicity = 1:

    H           -1.352329361992     1.443314315627    -3.402960833509
    C           -1.042562538560     1.067953603895    -2.446263529043
    C           -1.241098747167     1.831380598936    -1.308329167602
    C           -0.450623309561    -0.176409685438    -2.353595264307
    H           -1.703226315654     2.796671757315    -1.381858384603
    C           -0.847500136183     1.348060508802    -0.079148201190
    H           -0.304172494687    -0.770810551319    -3.234524822565
    C           -0.049098284913    -0.658740771014    -1.122161398025
    H           -1.000979870064     1.923229346486     0.811383736243
    C           -0.243176958722     0.102211698553     0.019023360263
    H            0.400731896089    -1.627561811836    -1.045695407995
    C            0.167756225765    -0.386825828972     1.367603808941
    O            0.919450351050    -1.503845662663     1.368837978881
    O           -0.134156422111     0.151465844368     2.371030249303
    C            2.318049506058    -1.317149472798     1.305718116333
    H            2.601396966231    -0.793716819635     0.400351891791
    H            2.760569306582    -2.299924047050     1.304992960638
    H            2.664530791656    -0.765036033475     2.169529263771

  Mulliken Charges: (a.u.)
   Center  Symbol    Alpha    Beta     Spin     Total
       1     H     0.41958  0.41958  0.00000  0.16084
       2     C     3.06999  3.06999  0.00000 -0.13998
       3     C     3.07409  3.07409  0.00000 -0.14817
       4     C     3.07530  3.07530  0.00000 -0.15060
       5     H     0.41988  0.41988  0.00000  0.16025
       6     C     3.07938  3.07938  0.00000 -0.15876
       7     H     0.42082  0.42082  0.00000  0.15835
       8     C     3.08973  3.08973  0.00000 -0.17947
       9     H     0.40671  0.40671  0.00000  0.18659
      10     C     3.03228  3.03228  0.00000 -0.06455
      11     H     0.40722  0.40722  0.00000  0.18555
      12     C     2.76037  2.76037  0.00000  0.47926
      13     O     4.17096  4.17096  0.00000 -0.34192
      14     O     4.18049  4.18049  0.00000 -0.36097
      15     C     3.04481  3.04481  0.00000 -0.08962
      16     H     0.45957  0.45957  0.00000  0.08085
      17     H     0.44181  0.44181  0.00000  0.11638
      18     H     0.44700  0.44700  0.00000  0.10599

   Total alpha = 36.00000, Total beta = 36.00000, Total charge =  0.00000

*** Psi4 exiting successfully. Buy a developer a beer!
