  ==> Input File <==

--------------------------------------------------------------------------
set {
	reference rhf
	basis cc-pvtz
}

set_num_threads( 4 )
memory 2 gb

molecule MOL {
0 1

H	 3.889604	 0.356866	 -0.089510
N	 3.091268	 -0.241216	 -0.065538
C	 1.860978	 0.530248	 0.016256
H	 3.192566	 -0.835836	 0.730398
C	 0.644130	 -0.381765	 -0.031064
H	 1.835721	 1.204666	 -0.833114
H	 1.808789	 1.151975	 0.911067
C	 -0.678115	 0.376691	 0.025731
H	 0.693998	 -0.977147	 -0.936845
H	 0.693309	 -1.082142	 0.800523
C	 -0.566134	 1.822981	 -0.448514
H	 -1.055999	 0.364567	 1.045540
H	 -1.419978	 -0.140076	 -0.578805
C	 -1.888649	 2.579609	 -0.384152
H	 0.174920	 2.340903	 0.153889
H	 -0.192323	 1.837764	 -1.468719
H	 -2.271654	 2.612694	 0.630467
H	 -1.774038	 3.601484	 -0.727140
H	 -2.641866	 2.105271	 -1.004639

	symmetry c1
}
set optking {
	frozen_dihedral = ("
		12 8 5 9
	")
}

ee = optimize('scf')
oeprop('DIPOLE', 'QUADRUPOLE', 'MULLIKEN_CHARGES')
f=open( 'psi4out.xyz', 'w' )
f.write( "19  " )
f.write( str(ee) + "\n" )
f.write( MOL.save_string_xyz() )
f.close()
--------------------------------------------------------------------------

    Molecular point group: c1
  Charge       = 0
  Multiplicity = 1
  Basis Set: CC-PVTZ
  Basis Set:
  @DF-RHF Final Energy:  -251.43789601909455
    Total Energy =                       -251.4378960190947510
    Molecular point group: c1
  Basis Set: CC-PVTZ
  Basis Set:
  Basis Set: CC-PVTZ
  Basis Set:
  @DF-RHF Final Energy:  -251.43936230688436
    Total Energy =                       -251.4393623068845045
  Basis Set: CC-PVTZ
  Basis Set:
  Basis Set: CC-PVTZ
  Basis Set:
  @DF-RHF Final Energy:  -251.44135067351360
    Total Energy =                       -251.4413506735134547
  Basis Set: CC-PVTZ
  Basis Set:
  Basis Set: CC-PVTZ
  Basis Set:
  @DF-RHF Final Energy:  -251.44155946215790
    Total Energy =                       -251.4415594621576702
  Basis Set: CC-PVTZ
  Basis Set:
  Basis Set: CC-PVTZ
  Basis Set:
  @DF-RHF Final Energy:  -251.44158044819443
    Total Energy =                       -251.4415804481943155
  Basis Set: CC-PVTZ
  Basis Set:
  Basis Set: CC-PVTZ
  Basis Set:
  @DF-RHF Final Energy:  -251.44158755918485
    Total Energy =                       -251.4415875591848248
  Basis Set: CC-PVTZ
  Basis Set:
  Charge       = 0
  Multiplicity = 1
  Basis Set: CC-PVTZ
  Basis Set:

    Orbital Energies (a.u.)
    -----------------------

    Doubly Occupied:

       1A    -15.526255     2A    -11.237770     3A    -11.212576
       4A    -11.210883     5A    -11.208142     6A    -11.205864
       7A     -1.178222     8A     -1.072065     9A     -0.996559
      10A     -0.900544    11A     -0.835911    12A     -0.769547
      13A     -0.665110    14A     -0.640330    15A     -0.614637
      16A     -0.591957    17A     -0.572449    18A     -0.550724
      19A     -0.525460    20A     -0.502702    21A     -0.490610
      22A     -0.459204    23A     -0.454053    24A     -0.447994
      25A     -0.383480

  @DF-RHF Final Energy:  -251.44158808026680

   => Energetics <=

    Nuclear Repulsion Energy =            249.7271248084119861
    One-Electron Energy =                -833.8313311711499409
    Two-Electron Energy =                 332.6626182824712714
    DFT Exchange-Correlation Energy =       0.0000000000000000
    Empirical Dispersion Energy =           0.0000000000000000
    PCM Polarization Energy =               0.0000000000000000
    EFP Energy =                            0.0000000000000000
    Total Energy =                       -251.4415880802666834
    Molecular point group: c1
  Basis Set: CC-PVTZ
  Basis Set:

  -Total Gradient:
     Atom            X                  Y                   Z
    ------   -----------------  -----------------  -----------------
       1       -0.000002164278     0.000004467930     0.000000095927
       2       -0.000005487098     0.000000150735    -0.000021494374
       3       -0.000005092132     0.000004370344     0.000023243843
       4       -0.000007142122     0.000005464194     0.000001268680
       5        0.002427509883     0.004761997615    -0.004000718703
       6       -0.000000904908    -0.000002692643     0.000001818295
       7        0.000014842737     0.000005471890     0.000008504760
       8        0.003316440224     0.005227352144     0.002186571738
       9       -0.002579085592    -0.004822368928     0.003003590860
      10        0.000001849601     0.000006006421     0.000007251978
      11        0.000001579246     0.000003368580     0.000011621781
      12       -0.003175873322    -0.005199583175    -0.001184238313
      13        0.000012264439    -0.000002315360    -0.000017310154
      14        0.000004315456     0.000010434300     0.000012264307
      15        0.000008120607    -0.000006102792    -0.000016123125
      16       -0.000013711320     0.000003398687    -0.000015823647
      17        0.000000377899    -0.000001023078     0.000000061997
      18       -0.000002543559     0.000001488917     0.000000339793
      19        0.000004704239     0.000000114220    -0.000000925644

  **** Optimization is complete! (in 7 steps) ****
    Final optimized geometry and variables:
    Molecular point group: c1

    Geometry (in Angstrom), charge = 0, multiplicity = 1:

    H            3.530181896535    -0.643668846804     0.131028758551
    N            2.679936939701    -1.165053820946     0.102499453951
    C            1.523694818743    -0.286205773649     0.182003534288
    H            2.698183852956    -1.802133664141     0.871285824371
    C            0.241235465395    -1.096673104976     0.066849555034
    H            1.593678666983     0.420814197907    -0.635341293279
    H            1.500098299711     0.298700046513     1.102642502799
    C           -1.081215108087    -0.315842101182     0.187814624475
    H            0.254288781168    -1.675810972788    -0.849617552094
    H            0.253113096290    -1.845999860559     0.855886324669
    C           -1.088258761312     1.115837163609    -0.342190432093
    H           -1.427394594237    -0.339196370091     1.217468319263
    H           -1.837753561799    -0.875479480085    -0.356317439379
    C           -2.467602202485     1.761114344774    -0.254092276416
    H           -0.378134399080     1.723743237318     0.208234734818
    H           -0.757477545871     1.119872643414    -1.377192485304
    H           -2.817242357906     1.796974305289     0.772466882812
    H           -2.451082547050     2.776591209807    -0.633081464804
    H           -3.198294275661     1.204270370258    -0.831118030548

  Mulliken Charges: (a.u.)
   Center  Symbol    Alpha    Beta     Spin     Total
       1     H     0.43021  0.43021  0.00000  0.13957
       2     N     3.69011  3.69011  0.00000 -0.38022
       3     C     3.02849  3.02849  0.00000 -0.05698
       4     H     0.43104  0.43104  0.00000  0.13791
       5     C     3.08881  3.08881  0.00000 -0.17761
       6     H     0.45331  0.45331  0.00000  0.09337
       7     H     0.46664  0.46664  0.00000  0.06673
       8     C     3.09809  3.09809  0.00000 -0.19618
       9     H     0.44663  0.44663  0.00000  0.10675
      10     H     0.45829  0.45829  0.00000  0.08341
      11     C     3.09034  3.09034  0.00000 -0.18067
      12     H     0.45320  0.45320  0.00000  0.09360
      13     H     0.45202  0.45202  0.00000  0.09597
      14     C     3.15020  3.15020  0.00000 -0.30039
      15     H     0.45240  0.45240  0.00000  0.09520
      16     H     0.45189  0.45189  0.00000  0.09621
      17     H     0.45540  0.45540  0.00000  0.08920
      18     H     0.44843  0.44843  0.00000  0.10314
      19     H     0.45450  0.45450  0.00000  0.09099

   Total alpha = 25.00000, Total beta = 25.00000, Total charge = -0.00000
