                              Psi4 1.0.54 Driver

  ==> Input File <==

--------------------------------------------------------------------------
set {
	reference rhf
	basis cc-pvtz
}

set_num_threads( 4 )
memory 2 gb

molecule MOL {
0 1

H	 0.101018	 -0.062709	 0.297884
N	 -0.625934	 -0.663929	 -0.000707
C	 -1.978635	 -0.158664	 0.001017
C	 -0.295573	 -1.915197	 -0.390285
H	 -2.519057	 -0.493535	 -0.876362
H	 -1.938890	 0.917202	 -0.004137
H	 -2.514266	 -0.485137	 0.884506
C	 1.182472	 -2.229024	 -0.314681
O	 -1.096582	 -2.716391	 -0.771793
H	 1.539394	 -2.125762	 0.703426
H	 1.342910	 -3.240249	 -0.650465
H	 1.747233	 -1.547024	 -0.939613

	symmetry c1
}
set optking {
	frozen_dihedral = ("
		4 2 3 5
	")
}

ee,wfn = optimize('scf', return_wfn=True)
oeprop( wfn, 'DIPOLE', 'QUADRUPOLE', 'MULLIKEN_CHARGES')
f=open( 'psi4out.xyz', 'w' )
f.write( "12  " )
f.write( str(ee) + "\n" )
f.write( MOL.save_string_xyz() )
f.close()
--------------------------------------------------------------------------

    Molecular point group: c1
  Charge       = 0
  Multiplicity = 1
  Basis Set: CC-PVTZ
  Basis Set:
  @DF-RHF Final Energy:  -247.10094419519257
    Total Energy =                       -247.1009441951924828
    Molecular point group: c1
  Basis Set: CC-PVTZ
  Basis Set:
  Basis Set: CC-PVTZ
  Basis Set:
  @DF-RHF Final Energy:  -247.10112869181063
    Total Energy =                       -247.1011286918106862
  Basis Set: CC-PVTZ
  Basis Set:
  Basis Set: CC-PVTZ
  Basis Set:
  @DF-RHF Final Energy:  -247.10092979762612
    Total Energy =                       -247.1009297976260655
  Basis Set: CC-PVTZ
  Basis Set:
  Basis Set: CC-PVTZ
  Basis Set:
  @DF-RHF Final Energy:  -247.10119298452597
    Total Energy =                       -247.1011929845259942
  Basis Set: CC-PVTZ
  Basis Set:
  @DF-RHF Final Energy:  -247.10120430408332
    Total Energy =                       -247.1012043040832395
  @DF-RHF Final Energy:  -247.10123211551965
    Total Energy =                       -247.1012321155196787
  @DF-RHF Final Energy:  -247.10123832939385
    Total Energy =                       -247.1012383293939365
  @DF-RHF Final Energy:  -247.10124072533679
    Total Energy =                       -247.1012407253368224
  @DF-RHF Final Energy:  -247.10124500204051
    Total Energy =                       -247.1012450020405140
  @DF-RHF Final Energy:  -247.10087786137859
    Total Energy =                       -247.1008778613787626
  @DF-RHF Final Energy:  -247.10128362359958
    Total Energy =                       -247.1012836235996701
  @DF-RHF Final Energy:  -247.09992746982050
    Total Energy =                       -247.0999274698204999
  @DF-RHF Final Energy:  -247.10062211334019
    Total Energy =                       -247.1006221133402505
  @DF-RHF Final Energy:  -247.10119457046622
    Total Energy =                       -247.1011945704661912
  @DF-RHF Final Energy:  -247.10134862468135
    Total Energy =                       -247.1013486246814637
  Basis Set: CC-PVTZ
  Basis Set:
  @DF-RHF Final Energy:  -247.10138080842017
    Total Energy =                       -247.1013808084202310
  Basis Set: CC-PVTZ
  Basis Set:
  Basis Set: CC-PVTZ
  Basis Set:
  @DF-RHF Final Energy:  -247.10139590266212
    Total Energy =                       -247.1013959026619773
  Basis Set: CC-PVTZ
  Basis Set:
  Basis Set: CC-PVTZ
  Basis Set:
  @DF-RHF Final Energy:  -247.10141760048518
    Total Energy =                       -247.1014176004852061
  Basis Set: CC-PVTZ
  Basis Set:
  Charge       = 0
  Multiplicity = 1
  Basis Set: CC-PVTZ
  Basis Set:

    Orbital Energies (a.u.)
    -----------------------

    Doubly Occupied:

       1A    -20.504398     2A    -15.576913     3A    -11.335753
       4A    -11.253860     5A    -11.228441     6A     -1.387584
       7A     -1.231751     8A     -1.016039     9A     -0.934241
      10A     -0.790062    11A     -0.690837    12A     -0.652061
      13A     -0.635684    14A     -0.585833    15A     -0.583037
      16A     -0.555598    17A     -0.548075    18A     -0.506007
      19A     -0.416890    20A     -0.390838

  @DF-RHF Final Energy:  -247.10141830845049

   => Energetics <=

    Nuclear Repulsion Energy =            181.8316662073098655
    One-Electron Energy =                -696.2183633501585973
    Two-Electron Energy =                 267.2852788343984116
    DFT Exchange-Correlation Energy =       0.0000000000000000
    Empirical Dispersion Energy =           0.0000000000000000
    PCM Polarization Energy =               0.0000000000000000
    EFP Energy =                            0.0000000000000000
    Total Energy =                       -247.1014183084503770
    Molecular point group: c1
  Basis Set: CC-PVTZ
  Basis Set:

  -Total Gradient:
     Atom            X                  Y                   Z
    ------   -----------------  -----------------  -----------------
       1       -0.000000778498    -0.000001834851    -0.000001513628
       2        0.000015764929    -0.000120164942     0.000338609270
       3        0.000029493410     0.000225860184    -0.000300863585
       4        0.000044993492     0.000102544773    -0.000196649509
       5       -0.000036964189    -0.000147865463     0.000166965847
       6       -0.000001134160    -0.000019440867     0.000008175811
       7        0.000005724407     0.000001186324    -0.000012569927
       8       -0.000011980067     0.000033145612    -0.000005419185
       9       -0.000037590472    -0.000052678602    -0.000004105269
      10       -0.000005832246    -0.000005500629     0.000005261420
      11       -0.000005673771    -0.000007712615     0.000001374280
      12        0.000003977163    -0.000007538922     0.000000734477

  **** Optimization is complete! (in 19 steps) ****
    Final optimized geometry and variables:
    Molecular point group: c1

    Geometry (in Angstrom), charge = 0, multiplicity = 1:

    H            0.688361578773     1.560991047543     0.290353608455
    N           -0.037443096891     0.917538440115     0.099812830832
    C           -1.406181659447     1.371581863813     0.186842616914
    C            0.279026048401    -0.383769757147    -0.060381398852
    H           -2.012119575744     0.827309455266    -0.519797333541
    H           -1.444558136340     2.425437298384    -0.051567476283
    H           -1.822060245648     1.220798412390     1.176589760575
    C            1.754858745668    -0.711543906424    -0.041497151377
    O           -0.548059291122    -1.236346416567    -0.201947360904
    H            1.985514945537    -1.194282265939     0.900200322480
    H            1.960856115015    -1.414839341044    -0.834786094560
    H            2.388397800499     0.158221616149    -0.154428639132

  Mulliken Charges: (a.u.)
   Center  Symbol    Alpha    Beta     Spin     Total
       1     H     0.41083  0.41083  0.00000  0.17834
       2     N     3.61402  3.61402  0.00000 -0.22804
       3     C     3.07851  3.07851  0.00000 -0.15701
       4     C     2.84245  2.84245  0.00000  0.31510
       5     H     0.43816  0.43816  0.00000  0.12367
       6     H     0.45537  0.45537  0.00000  0.08925
       7     H     0.45662  0.45662  0.00000  0.08675
       8     C     3.14404  3.14404  0.00000 -0.28807
       9     O     4.22032  4.22032  0.00000 -0.44064
      10     H     0.44339  0.44339  0.00000  0.11323
      11     H     0.43786  0.43786  0.00000  0.12428
      12     H     0.45843  0.45843  0.00000  0.08315

   Total alpha = 20.00000, Total beta = 20.00000, Total charge =  0.00000

*** Psi4 exiting successfully. Buy a developer a beer!
