  ==> Input File <==

--------------------------------------------------------------------------
set {
	reference rhf
	basis 6-31G*
}

set_num_threads( 1 )
memory 2 gb

molecule MOL {
0 1

H	 -2.798360	 -0.862255	 -0.071053
N	 -1.863561	 -0.715187	 0.256814
C	 -1.344686	 0.554728	 -0.219830
H	 -1.300452	 -1.461917	 -0.101532
C	 0.081427	 0.741154	 0.254071
H	 -1.362155	 0.656231	 -1.305829
H	 -1.952773	 1.354456	 0.191809
O	 0.874168	 -0.245412	 -0.342030
H	 0.444037	 1.730782	 -0.023037
H	 0.121165	 0.653424	 1.337565
C	 0.155749	 -1.237168	 -1.003744
H	 0.868364	 -1.936872	 -1.418821
H	 -0.505194	 -1.771046	 -0.323222
H	 -0.443109	 -0.822203	 -1.811817

	symmetry c1
}
set optking {
	frozen_dihedral = ("
		8 5 3 6,
		6 3 2 4,
		5 8 11 13
	")
}

ee = energy('scf')
oeprop('DIPOLE', 'QUADRUPOLE', 'MULLIKEN_CHARGES')
f=open( 'psi4out.xyz', 'w' )
f.write( "14  " )
f.write( str(ee) + "\n" )
f.write( MOL.save_string_xyz() )
f.close()
--------------------------------------------------------------------------

    Molecular point group: c1

    Geometry (in Angstrom), charge = 0, multiplicity = 1:

       Center              X                  Y                   Z               Mass
    ------------   -----------------  -----------------  -----------------  -----------------
           H         -2.366938168382    -0.652922785029     0.156234588489     1.007825032070
           N         -1.432139168382    -0.505854785029     0.484101588489    14.003074004780
           C         -0.913264168382     0.764060214971     0.007457588489    12.000000000000
           H         -0.869030168382    -1.252584785029     0.125755588489     1.007825032070
           C          0.512848831618     0.950486214971     0.481358588489    12.000000000000
           H         -0.930733168382     0.865563214971    -1.078541411511     1.007825032070
           H         -1.521351168382     1.563788214971     0.419096588489     1.007825032070
           O          1.305589831618    -0.036079785029    -0.114742411511    15.994914619560
           H          0.875458831618     1.940114214971     0.204250588489     1.007825032070
           H          0.552586831618     0.862756214971     1.564852588489     1.007825032070
           C          0.587170831618    -1.027835785029    -0.776456411511    12.000000000000
           H          1.299785831618    -1.727539785029    -1.191533411511     1.007825032070
           H         -0.073772168382    -1.561713785029    -0.095934411511     1.007825032070
           H         -0.011687168382    -0.612870785029    -1.584529411511     1.007825032070

  Charge       = 0
  Multiplicity = 1
  Basis Set: 6-31G*
  Basis Set:

    Orbital Energies (a.u.)
    -----------------------

    Doubly Occupied:

       1A    -20.559224     2A    -15.521365     3A    -11.269485
       4A    -11.267587     5A    -11.246617     6A     -1.389543
       7A     -1.196418     8A     -1.019601     9A     -0.923831
      10A     -0.843218    11A     -0.722796    12A     -0.693359
      13A     -0.645176    14A     -0.622206    15A     -0.591461
      16A     -0.554112    17A     -0.542850    18A     -0.511732
      19A     -0.438999    20A     -0.414814    21A     -0.378616

  @DF-RHF Final Energy:  -248.00614187729298

   => Energetics <=

    Nuclear Repulsion Energy =            207.0993912286703562
    One-Electron Energy =                -747.5050349859405969
    Two-Electron Energy =                 292.3995018799774925
    DFT Exchange-Correlation Energy =       0.0000000000000000
    Empirical Dispersion Energy =           0.0000000000000000
    PCM Polarization Energy =               0.0000000000000000
    EFP Energy =                            0.0000000000000000
    Total Energy =                       -248.0061418772927482

  Mulliken Charges: (a.u.)
   Center  Symbol    Alpha    Beta     Spin     Total
       1     H     0.33569  0.33569  0.00000  0.32862
       2     N     3.92861  3.92861  0.00000 -0.85723
       3     C     3.11191  3.11191  0.00000 -0.22382
       4     H     0.31748  0.31748  0.00000  0.36505
       5     C     2.97596  2.97596  0.00000  0.04808
       6     H     0.42444  0.42444  0.00000  0.15112
       7     H     0.40973  0.40973  0.00000  0.18054
       8     O     4.30816  4.30816  0.00000 -0.61632
       9     H     0.42173  0.42173  0.00000  0.15654
      10     H     0.41624  0.41624  0.00000  0.16752
      11     C     3.09293  3.09293  0.00000 -0.18587
      12     H     0.40711  0.40711  0.00000  0.18579
      13     H     0.42931  0.42931  0.00000  0.14137
      14     H     0.42070  0.42070  0.00000  0.15859

   Total alpha = 21.00000, Total beta = 21.00000, Total charge =  0.00000
