  ==> Input File <==

--------------------------------------------------------------------------
set {
	reference rhf
	basis 6-31G*
}

set_num_threads( 4 )
memory 2 gb

molecule MOL {
0 1

H	 -3.420663	 1.227371	 -1.044276
O	 -3.452007	 0.283848	 -0.965577
C	 -3.181085	 -0.079926	 0.364119
C	 -1.765924	 0.277073	 0.805136
H	 -3.327791	 -1.152017	 0.410903
H	 -3.905698	 0.375695	 1.036898
C	 -0.677594	 -0.417312	 -0.014550
H	 -1.637766	 1.358238	 0.744969
H	 -1.659588	 0.017670	 1.857098
C	 0.738335	 -0.034840	 0.421385
H	 -0.814977	 -0.178223	 -1.064632
H	 -0.802730	 -1.495410	 0.071702
C	 1.822265	 -0.738362	 -0.399735
H	 0.853533	 1.043532	 0.342250
H	 0.871597	 -0.279636	 1.474438
C	 3.258060	 -0.455774	 0.057203
H	 1.718003	 -0.459167	 -1.447053
H	 1.651028	 -1.811884	 -0.354513
C	 3.597974	 1.028520	 0.204630
H	 3.941880	 -0.899574	 -0.662325
H	 3.441323	 -0.963763	 1.001959
H	 3.412338	 1.565016	 -0.722112
H	 4.645511	 1.160814	 0.457618
H	 3.013071	 1.503958	 0.985021

	symmetry c1
}
set optking {
	frozen_dihedral = ("
		20 16 13 17
	")
}

ee = optimize('scf')
oeprop('DIPOLE', 'QUADRUPOLE', 'MULLIKEN_CHARGES')
f=open( 'psi4out.xyz', 'w' )
f.write( "24  " )
f.write( str(ee) + "\n" )
f.write( MOL.save_string_xyz() )
f.close()
--------------------------------------------------------------------------

    Molecular point group: c1
  Charge       = 0
  Multiplicity = 1
  Basis Set: 6-31G*
  Basis Set:
  @DF-RHF Final Energy:  -349.24674915932383
    Total Energy =                       -349.2467491593237128
    Molecular point group: c1
  Basis Set: 6-31G*
  Basis Set:
  Basis Set: 6-31G*
  Basis Set:
  @DF-RHF Final Energy:  -349.24666592187901
    Total Energy =                       -349.2466659218788436
  Basis Set: 6-31G*
  Basis Set:
  Basis Set: 6-31G*
  Basis Set:
  @DF-RHF Final Energy:  -349.24693447835421
    Total Energy =                       -349.2469344783547172
  Basis Set: 6-31G*
  Basis Set:
  Basis Set: 6-31G*
  Basis Set:
  @DF-RHF Final Energy:  -349.24693878705841
    Total Energy =                       -349.2469387870586388
  Basis Set: 6-31G*
  Basis Set:
  Basis Set: 6-31G*
  Basis Set:
  @DF-RHF Final Energy:  -349.24694274632293
    Total Energy =                       -349.2469427463228158
  Basis Set: 6-31G*
  Basis Set:
  Basis Set: 6-31G*
  Basis Set:
  @DF-RHF Final Energy:  -349.24694419613809
    Total Energy =                       -349.2469441961378607
  Basis Set: 6-31G*
  Basis Set:
  Charge       = 0
  Multiplicity = 1
  Basis Set: 6-31G*
  Basis Set:

    Orbital Energies (a.u.)
    -----------------------

    Doubly Occupied:

       1A    -20.553592     2A    -11.267727     3A    -11.217485
       4A    -11.214196     5A    -11.212584     6A    -11.211588
       7A    -11.211169     8A    -11.207102     9A     -1.360195
      10A     -1.088552    11A     -1.048108    12A     -0.985274
      13A     -0.915167    14A     -0.851998    15A     -0.801330
      16A     -0.773486    17A     -0.679150    18A     -0.654055
      19A     -0.627306    20A     -0.618910    21A     -0.595265
      22A     -0.585596    23A     -0.556308    24A     -0.542877
      25A     -0.514366    26A     -0.506316    27A     -0.502333
      28A     -0.472412    29A     -0.467635    30A     -0.458945
      31A     -0.454149    32A     -0.451178    33A     -0.419275

  @DF-RHF Final Energy:  -349.24694422243249

   => Energetics <=

    Nuclear Repulsion Energy =            384.9348957591010958
    One-Electron Energy =               -1236.3124205893043381
    Two-Electron Energy =                 502.1305806077706393
    DFT Exchange-Correlation Energy =       0.0000000000000000
    Empirical Dispersion Energy =           0.0000000000000000
    PCM Polarization Energy =               0.0000000000000000
    EFP Energy =                            0.0000000000000000
    Total Energy =                       -349.2469442224326031
    Molecular point group: c1
  Basis Set: 6-31G*
  Basis Set:

  -Total Gradient:
     Atom            X                  Y                   Z
    ------   -----------------  -----------------  -----------------
       1        0.000001156498    -0.000003739089     0.000002676222
       2        0.000011613720    -0.000010272270    -0.000007661076
       3       -0.000005447647     0.000023911895     0.000003080663
       4       -0.000001929160    -0.000018327012     0.000005949738
       5        0.000000694328     0.000002490281     0.000000379831
       6       -0.000000915119     0.000000628090     0.000001255055
       7       -0.000000558063     0.000011452367     0.000002798142
       8       -0.000003591596    -0.000004253077     0.000000541396
       9        0.000002409099    -0.000003596168     0.000002609345
      10       -0.000013697059     0.000004100232     0.000017611295
      11       -0.000005005459     0.000001756223    -0.000011010765
      12        0.000001706807     0.000002262643     0.000002220091
      13       -0.000869489997     0.003865585233     0.000649023491
      14        0.000000008689    -0.000001287670     0.000001871528
      15       -0.000012066503     0.000003233126     0.000005867798
      16        0.000079809804    -0.003639928758     0.001635644677
      17        0.000728812735    -0.002702440955    -0.000800248953
      18        0.000014309392     0.000005294502    -0.000009348218
      19        0.000000382053    -0.000001875896    -0.000005842749
      20        0.000078400662     0.002462682708    -0.001499994459
      21       -0.000009361363     0.000002096235     0.000004701955
      22        0.000000403200     0.000002510705     0.000002233622
      23       -0.000000655439    -0.000001644617    -0.000003828259
      24        0.000003010419    -0.000000638727    -0.000000530370

  **** Optimization is complete! (in 7 steps) ****
    Final optimized geometry and variables:
    Molecular point group: c1

    Geometry (in Angstrom), charge = 0, multiplicity = 1:

    H           -3.423029284163     1.196410088589    -1.095841119869
    O           -3.446941414545     0.253268425623    -1.010662086480
    C           -3.174572880124    -0.099079343453     0.321819942245
    C           -1.762741348475     0.272284195904     0.761673199298
    H           -3.312590769025    -1.171895785876     0.375709512995
    H           -3.903527256870     0.355156115240     0.990765070159
    C           -0.668154102213    -0.416344034623    -0.054493530857
    H           -1.644076758710     1.354211707939     0.696408878592
    H           -1.654471117082     0.018754522437     1.814896926039
    C            0.744132614942    -0.018192077112     0.379169927943
    H           -0.807622565650    -0.183844985018    -1.105815787735
    H           -0.783400306754    -1.495016587370     0.037206969839
    C            1.832060985328    -0.706785650878    -0.447328598007
    H            0.846563642009     1.061314354272     0.302063417675
    H            0.882617940250    -0.263727517997     1.431638643661
    C            3.271008386260    -0.462522126686     0.025516804228
    H            1.743594690255    -0.417830655286    -1.493273262223
    H            1.652231105748    -1.780394357643    -0.430576095454
    C            3.658424958128     1.012415476120     0.160590774395
    H            3.945756653831    -0.919454599169    -0.694110950887
    H            3.433493119440    -0.965694278668     0.975835361738
    H            3.472630609603     1.552265857735    -0.764401589791
    H            4.714466507870     1.111422918328     0.392611057931
    H            3.104304967526     1.508485784546     0.950304171502

  Mulliken Charges: (a.u.)
   Center  Symbol    Alpha    Beta     Spin     Total
       1     H     0.28338  0.28338  0.00000  0.43323
       2     O     4.36829  4.36829  0.00000 -0.73658
       3     C     2.99615  2.99615  0.00000  0.00769
       4     C     3.16908  3.16908  0.00000 -0.33816
       5     H     0.41632  0.41632  0.00000  0.16737
       6     H     0.42815  0.42815  0.00000  0.14370
       7     C     3.15185  3.15185  0.00000 -0.30371
       8     H     0.42830  0.42830  0.00000  0.14340
       9     H     0.42238  0.42238  0.00000  0.15525
      10     C     3.15416  3.15416  0.00000 -0.30832
      11     H     0.41203  0.41203  0.00000  0.17594
      12     H     0.42350  0.42350  0.00000  0.15300
      13     C     3.15259  3.15259  0.00000 -0.30519
      14     H     0.42219  0.42219  0.00000  0.15562
      15     H     0.42546  0.42546  0.00000  0.14907
      16     C     3.15130  3.15130  0.00000 -0.30261
      17     H     0.42330  0.42330  0.00000  0.15341
      18     H     0.42243  0.42243  0.00000  0.15514
      19     C     3.24207  3.24207  0.00000 -0.48413
      20     H     0.42124  0.42124  0.00000  0.15751
      21     H     0.42323  0.42323  0.00000  0.15353
      22     H     0.42268  0.42268  0.00000  0.15465
      23     H     0.41969  0.41969  0.00000  0.16063
      24     H     0.42022  0.42022  0.00000  0.15955

   Total alpha = 33.00000, Total beta = 33.00000, Total charge = -0.00000
