  ==> Input File <==

--------------------------------------------------------------------------
set {
	reference rhf
	basis 6-31G*
}

set_num_threads( 4 )
memory 2 gb

molecule MOL {
0 1

H	 1.631100	 -2.037133	 2.744345
O	 1.568969	 -1.821975	 1.818817
C	 0.780268	 -0.754768	 1.694579
C	 0.624473	 -0.343591	 0.253101
O	 0.282292	 -0.224924	 2.633888
C	 -0.265902	 0.883932	 0.072916
H	 1.622972	 -0.185014	 -0.140886
H	 0.225736	 -1.200224	 -0.284431
C	 -1.728698	 0.646073	 0.462102
H	 -0.209144	 1.219470	 -0.958188
H	 0.135059	 1.692851	 0.673903
C	 -2.482460	 -0.343073	 -0.431425
H	 -2.245265	 1.602650	 0.432430
H	 -1.779332	 0.308348	 1.496285
C	 -3.960546	 -0.461025	 -0.060175
H	 -2.395034	 -0.026811	 -1.468912
H	 -2.024850	 -1.327147	 -0.371646
H	 -4.472726	 -1.168004	 -0.705284
H	 -4.465146	 0.496508	 -0.151489
H	 -4.081218	 -0.800940	 0.964585

	symmetry c1
}
set optking {
	frozen_dihedral = ("
		7 4 6 10
	")
}

ee = optimize('scf')
oeprop('DIPOLE', 'QUADRUPOLE', 'MULLIKEN_CHARGES')
f=open( 'psi4out.xyz', 'w' )
f.write( "20  " )
f.write( str(ee) + "\n" )
f.write( MOL.save_string_xyz() )
f.close()
--------------------------------------------------------------------------

    Molecular point group: c1
  Charge       = 0
  Multiplicity = 1
  Basis Set: 6-31G*
  Basis Set:
  @DF-RHF Final Energy:  -383.94697354764941
    Total Energy =                       -383.9469735476493497
    Molecular point group: c1
  Basis Set: 6-31G*
  Basis Set:
  Basis Set: 6-31G*
  Basis Set:
  @DF-RHF Final Energy:  -383.94778188261171
    Total Energy =                       -383.9477818826113662
  Basis Set: 6-31G*
  Basis Set:
  Basis Set: 6-31G*
  Basis Set:
  @DF-RHF Final Energy:  -383.94625238779992
    Total Energy =                       -383.9462523877997455
  Basis Set: 6-31G*
  Basis Set:
  Basis Set: 6-31G*
  Basis Set:
  @DF-RHF Final Energy:  -383.94801006420516
    Total Energy =                       -383.9480100642049365
  Basis Set: 6-31G*
  Basis Set:
  Basis Set: 6-31G*
  Basis Set:
  @DF-RHF Final Energy:  -383.94801523209134
    Total Energy =                       -383.9480152320913930
  Basis Set: 6-31G*
  Basis Set:
  Basis Set: 6-31G*
  Basis Set:
  @DF-RHF Final Energy:  -383.94814095781180
    Total Energy =                       -383.9481409578115745
  Basis Set: 6-31G*
  Basis Set:
  Basis Set: 6-31G*
  Basis Set:
  @DF-RHF Final Energy:  -383.94815112112269
    Total Energy =                       -383.9481511211224642
  Basis Set: 6-31G*
  Basis Set:
  Charge       = 0
  Multiplicity = 1
  Basis Set: 6-31G*
  Basis Set:

    Orbital Energies (a.u.)
    -----------------------

    Doubly Occupied:

       1A    -20.613662     2A    -20.552229     3A    -11.382071
       4A    -11.240464     5A    -11.223947     6A    -11.217545
       7A    -11.213907     8A    -11.209582     9A     -1.475621
      10A     -1.366298    11A     -1.093730    12A     -1.038838
      13A     -0.958309    14A     -0.870643    15A     -0.815723
      16A     -0.773131    17A     -0.701936    18A     -0.687674
      19A     -0.662954    20A     -0.632844    21A     -0.602632
      22A     -0.592399    23A     -0.574388    24A     -0.555909
      25A     -0.533801    26A     -0.512566    27A     -0.500221
      28A     -0.482095    29A     -0.467168    30A     -0.463359
      31A     -0.453264    32A     -0.441165

  @DF-RHF Final Energy:  -383.94815172555406

   => Energetics <=

    Nuclear Repulsion Energy =            385.2598094308561372
    One-Electron Energy =               -1286.5957752750737200
    Two-Electron Energy =                 517.3878141186635276
    DFT Exchange-Correlation Energy =       0.0000000000000000
    Empirical Dispersion Energy =           0.0000000000000000
    PCM Polarization Energy =               0.0000000000000000
    EFP Energy =                            0.0000000000000000
    Total Energy =                       -383.9481517255539984
    Molecular point group: c1
  Basis Set: 6-31G*
  Basis Set:

  -Total Gradient:
     Atom            X                  Y                   Z
    ------   -----------------  -----------------  -----------------
       1        0.000008808295    -0.000020258339    -0.000010239140
       2        0.000059194352    -0.000055239594     0.000140143334
       3       -0.000121220140     0.000102529743     0.000043056957
       4       -0.000237253761    -0.000076693956    -0.000219295847
       5        0.000073140403    -0.000088150187     0.000000241077
       6        0.000184435235     0.000059842578     0.000143727533
       7        0.000063504563     0.000080548370     0.000090992005
       8        0.000030387796     0.000076553733    -0.000043477283
       9        0.000042238039    -0.000009291180    -0.000019325302
      10       -0.000201063287    -0.000134723390    -0.000055985193
      11       -0.000017525308     0.000002193577     0.000024459231
      12        0.000047635535    -0.000024876469     0.000002615743
      13        0.000035816224     0.000102391026     0.000006258026
      14        0.000037233576    -0.000005237097    -0.000139578335
      15       -0.000002047168    -0.000005527563     0.000058313099
      16        0.000009398757     0.000050304451     0.000024496314
      17        0.000017407207    -0.000049623170    -0.000052338087
      18        0.000013263611    -0.000021572624     0.000017377117
      19       -0.000021728335    -0.000008407249    -0.000019708494
      20       -0.000021625590     0.000025237343     0.000008267243

  **** Optimization is complete! (in 8 steps) ****
    Final optimized geometry and variables:
    Molecular point group: c1

    Geometry (in Angstrom), charge = 0, multiplicity = 1:

    H            2.203215245332    -1.768837214006     1.897531950734
    O            2.053026990999    -1.593112113014     0.973696180208
    C            1.466332176629    -0.401437952294     0.869547839765
    C            1.234157347422    -0.017419193760    -0.570679855164
    O            1.203108247234     0.256399272061     1.823626855808
    C            0.316783537281     1.192831498570    -0.750213584405
    H            2.217944432121     0.194470526687    -0.983589603666
    H            0.875808473826    -0.891283711086    -1.101373183538
    C           -1.153577487292     0.962410696695    -0.380586399545
    H            0.376360817057     1.506324017606    -1.789608126274
    H            0.706390321231     2.009703861344    -0.153321335310
    C           -1.899309054675    -0.013860555925    -1.294943145084
    H           -1.660225544981     1.924334562051    -0.416373346914
    H           -1.220400009796     0.625708127771     0.649419703254
    C           -3.378599605958    -0.142159725199    -0.931047150752
    H           -1.809566417229     0.318603486044    -2.327372636514
    H           -1.440614464436    -0.998596990799    -1.250678357065
    H           -3.885597586325    -0.843855894876    -1.586120305068
    H           -3.886672899007     0.814399852234    -1.013329734623
    H           -3.501421205977    -0.493500359799     0.089425322923

  Mulliken Charges: (a.u.)
   Center  Symbol    Alpha    Beta     Spin     Total
       1     H     0.26790  0.26790  0.00000  0.46419
       2     O     4.35056  4.35056  0.00000 -0.70112
       3     C     2.62316  2.62316  0.00000  0.75368
       4     C     3.21379  3.21379  0.00000 -0.42758
       5     O     4.28055  4.28055  0.00000 -0.56109
       6     C     3.15663  3.15663  0.00000 -0.31326
       7     H     0.39574  0.39574  0.00000  0.20852
       8     H     0.39699  0.39699  0.00000  0.20602
       9     C     3.15899  3.15899  0.00000 -0.31798
      10     H     0.41871  0.41871  0.00000  0.16259
      11     H     0.40558  0.40558  0.00000  0.18885
      12     C     3.15438  3.15438  0.00000 -0.30875
      13     H     0.41992  0.41992  0.00000  0.16015
      14     H     0.40938  0.40938  0.00000  0.18124
      15     C     3.23894  3.23894  0.00000 -0.47788
      16     H     0.42375  0.42375  0.00000  0.15249
      17     H     0.42441  0.42441  0.00000  0.15118
      18     H     0.41935  0.41935  0.00000  0.16129
      19     H     0.42101  0.42101  0.00000  0.15798
      20     H     0.42026  0.42026  0.00000  0.15948

   Total alpha = 32.00000, Total beta = 32.00000, Total charge = -0.00000
