  ==> Input File <==

--------------------------------------------------------------------------
set {
	reference rhf
	basis 6-31G*
}

set_num_threads( 4 )
memory 2 gb

molecule MOL {
0 1

H	 -1.667522	 1.089359	 4.751862
O	 -0.832866	 1.100411	 5.197169
C	 -0.254858	 -0.179389	 5.151650
C	 0.274743	 -0.551030	 3.771022
H	 0.560927	 -0.159340	 5.862823
H	 -0.964898	 -0.930641	 5.495516
C	 -0.809492	 -0.653969	 2.695520
H	 1.013801	 0.188749	 3.474565
H	 0.794816	 -1.504042	 3.852631
C	 -0.253408	 -1.081199	 1.334247
H	 -1.308478	 0.306218	 2.598468
H	 -1.567206	 -1.370648	 3.012666
C	 -1.309753	 -1.282496	 0.241564
H	 0.475813	 -0.346014	 0.998708
H	 0.292962	 -2.013496	 1.460747
C	 -2.037799	 -0.007733	 -0.193645
H	 -0.822664	 -1.717725	 -0.628572
H	 -2.039305	 -2.017604	 0.578026
C	 -3.489788	 0.042957	 0.286558
H	 -2.017067	 0.064384	 -1.280144
H	 -1.513726	 0.868678	 0.179924
C	 -4.216917	 1.317354	 -0.141063
H	 -4.025645	 -0.823308	 -0.095450
H	 -3.513059	 -0.038752	 1.371301
H	 -4.239342	 1.411634	 -1.223113
H	 -5.243387	 1.322503	 0.212445
H	 -3.726170	 2.201406	 0.256408

	symmetry c1
}
set optking {
	frozen_dihedral = ("
		10 13 16 20
	")
}

ee = optimize('scf')
oeprop('DIPOLE', 'QUADRUPOLE', 'MULLIKEN_CHARGES')
f=open( 'psi4out.xyz', 'w' )
f.write( "27  " )
f.write( str(ee) + "\n" )
f.write( MOL.save_string_xyz() )
f.close()
--------------------------------------------------------------------------

    Molecular point group: c1
  Charge       = 0
  Multiplicity = 1
  Basis Set: 6-31G*
  Basis Set:
  @DF-RHF Final Energy:  -388.27665499747906
    Total Energy =                       -388.2766549974786585
    Molecular point group: c1
  Basis Set: 6-31G*
  Basis Set:
  Basis Set: 6-31G*
  Basis Set:
  @DF-RHF Final Energy:  -388.27690439235334
    Total Energy =                       -388.2769043923537993
  Basis Set: 6-31G*
  Basis Set:
  Basis Set: 6-31G*
  Basis Set:
  @DF-RHF Final Energy:  -388.27694940333157
    Total Energy =                       -388.2769494033318551
  Basis Set: 6-31G*
  Basis Set:
  Basis Set: 6-31G*
  Basis Set:
  @DF-RHF Final Energy:  -388.27701643646770
    Total Energy =                       -388.2770164364678749
  Basis Set: 6-31G*
  Basis Set:
  Basis Set: 6-31G*
  Basis Set:
  @DF-RHF Final Energy:  -388.27701774805638
    Total Energy =                       -388.2770177480565508
  Basis Set: 6-31G*
  Basis Set:
  Charge       = 0
  Multiplicity = 1
  Basis Set: 6-31G*
  Basis Set:

    Orbital Energies (a.u.)
    -----------------------

    Doubly Occupied:

       1A    -20.552488     2A    -11.267199     3A    -11.219937
       4A    -11.217361     5A    -11.217321     6A    -11.215547
       7A    -11.215338     8A    -11.214580     9A    -11.210067
      10A     -1.359220    11A     -1.094745    12A     -1.060325
      13A     -1.011451    14A     -0.948210    15A     -0.889315
      16A     -0.824370    17A     -0.797464    18A     -0.779359
      19A     -0.694033    20A     -0.651781    21A     -0.635362
      22A     -0.611872    23A     -0.599763    24A     -0.589505
      25A     -0.578369    26A     -0.558207    27A     -0.543992
      28A     -0.518923    29A     -0.508993    30A     -0.494913
      31A     -0.486884    32A     -0.478085    33A     -0.470370
      34A     -0.459942    35A     -0.446740    36A     -0.441800
      37A     -0.422875

  @DF-RHF Final Energy:  -388.27701773092139

   => Energetics <=

    Nuclear Repulsion Energy =            468.9821850705554311
    One-Electron Energy =               -1455.9449930199973551
    Two-Electron Energy =                 598.6857902185205376
    DFT Exchange-Correlation Energy =       0.0000000000000000
    Empirical Dispersion Energy =           0.0000000000000000
    PCM Polarization Energy =               0.0000000000000000
    EFP Energy =                            0.0000000000000000
    Total Energy =                       -388.2770177309213295
    Molecular point group: c1
  Basis Set: 6-31G*
  Basis Set:

  -Total Gradient:
     Atom            X                  Y                   Z
    ------   -----------------  -----------------  -----------------
       1        0.000016354948    -0.000004912417     0.000023795405
       2        0.000033477028     0.000023113576     0.000043969799
       3       -0.000129760288    -0.000044987719    -0.000037093114
       4        0.000063820251    -0.000038713874    -0.000086758040
       5       -0.000010124385     0.000011201653    -0.000018961113
       6       -0.000001881243    -0.000001165935     0.000022007097
       7       -0.000084616168     0.000036132033    -0.000053671892
       8       -0.000009119162     0.000006861020    -0.000019837859
       9        0.000017106242     0.000005788650    -0.000021778154
      10        0.000457565361    -0.000076070681    -0.000563016299
      11        0.000033136923     0.000022492351    -0.000008995470
      12       -0.000037880551     0.000029289680    -0.000002540159
      13       -0.000517888554    -0.000004171725     0.000881486093
      14       -0.000037027346    -0.000006406355    -0.000090049171
      15        0.000054741021    -0.000018756091     0.000048304599
      16       -0.000640529544    -0.000543111566    -0.000281126663
      17        0.000119587019    -0.000025933933     0.000092177639
      18        0.000114510420    -0.000092434300     0.000063601631
      19        0.000127565194     0.000092674149    -0.000064043477
      20        0.000748929134     0.000533198802     0.000004972602
      21       -0.000217514016     0.000012933715     0.000008834304
      22       -0.000121304305     0.000040131808     0.000033673413
      23        0.000056237969     0.000020065980    -0.000021526548
      24        0.000007282694    -0.000001098229     0.000044508418
      25        0.000003382168    -0.000013823432     0.000017463848
      26       -0.000045310001     0.000065418752    -0.000009516577
      27       -0.000000740813    -0.000027715916    -0.000005880303

  **** Optimization is complete! (in 6 steps) ****
    Final optimized geometry and variables:
    Molecular point group: c1

    Geometry (in Angstrom), charge = 0, multiplicity = 1:

    H           -0.258022727521     1.174371843044     2.652319452157
    O            0.579944186417     1.214823912599     3.089648784517
    C            1.193935469619    -0.048445254988     3.053928475343
    C            1.728432869617    -0.417949374716     1.674601909543
    H            2.011743840410     0.002044599978     3.761212951850
    H            0.507207356134    -0.816261854709     3.408309744567
    C            0.643239193012    -0.560741780260     0.604817124224
    H            2.445602614272     0.339059735930     1.368107282485
    H            2.274899562737    -1.355494907831     1.762605157716
    C            1.202870685735    -0.994986273591    -0.752008532342
    H            0.122693221076     0.387110436691     0.494544936469
    H           -0.097776001166    -1.288634068278     0.935081371556
    C            0.149422242066    -1.189330599154    -1.848961692847
    H            1.935096614861    -0.263133095962    -1.088008930278
    H            1.745042662351    -1.929443570116    -0.621916364116
    C           -0.597914965158     0.095569795391    -2.271664942454
    H            0.651074349007    -1.612884860135    -2.714450375557
    H           -0.566746535013    -1.942195103732    -1.525521599627
    C           -2.054283001734     0.160615051876    -1.803007841571
    H           -0.579390496945     0.187402277428    -3.354728777543
    H           -0.066538176099     0.968786025573    -1.898652610972
    C           -2.755472423651     1.455234518822    -2.212348403362
    H           -2.596965243386    -0.688759963548    -2.212185844183
    H           -2.096725652159     0.053116889347    -0.721522726684
    H           -2.758660238557     1.574011262591    -3.292212840768
    H           -3.787572995707     1.468866591679    -1.875564961676
    H           -2.257490591031     2.322547558031    -1.787848188455

  Mulliken Charges: (a.u.)
   Center  Symbol    Alpha    Beta     Spin     Total
       1     H     0.27994  0.27994  0.00000  0.44012
       2     O     4.37092  4.37092  0.00000 -0.74184
       3     C     2.99748  2.99748  0.00000  0.00504
       4     C     3.16079  3.16079  0.00000 -0.32158
       5     H     0.41443  0.41443  0.00000  0.17114
       6     H     0.43196  0.43196  0.00000  0.13608
       7     C     3.16322  3.16322  0.00000 -0.32645
       8     H     0.41505  0.41505  0.00000  0.16990
       9     H     0.42423  0.42423  0.00000  0.15154
      10     C     3.15238  3.15238  0.00000 -0.30476
      11     H     0.42296  0.42296  0.00000  0.15408
      12     H     0.42537  0.42537  0.00000  0.14927
      13     C     3.15704  3.15704  0.00000 -0.31407
      14     H     0.42155  0.42155  0.00000  0.15689
      15     H     0.42233  0.42233  0.00000  0.15534
      16     C     3.15657  3.15657  0.00000 -0.31315
      17     H     0.41858  0.41858  0.00000  0.16285
      18     H     0.42175  0.42175  0.00000  0.15650
      19     C     3.15269  3.15269  0.00000 -0.30538
      20     H     0.42014  0.42014  0.00000  0.15971
      21     H     0.42135  0.42135  0.00000  0.15729
      22     C     3.24029  3.24029  0.00000 -0.48057
      23     H     0.42216  0.42216  0.00000  0.15567
      24     H     0.42463  0.42463  0.00000  0.15074
      25     H     0.42108  0.42108  0.00000  0.15785
      26     H     0.41935  0.41935  0.00000  0.16130
      27     H     0.42175  0.42175  0.00000  0.15649

   Total alpha = 37.00000, Total beta = 37.00000, Total charge =  0.00000
