  ==> Input File <==

--------------------------------------------------------------------------
set {
	reference rhf
	basis 6-31G*
}

set_num_threads( 1 )
memory 2 gb

molecule MOL {
0 1

H	 -2.499100	 -0.730091	 -0.745082
O	 -2.347518	 -0.290803	 0.079804
C	 -1.184022	 0.487508	 -0.006784
C	 0.062599	 -0.378592	 0.031606
H	 -1.176523	 1.099369	 -0.904519
H	 -1.187323	 1.153111	 0.844927
O	 1.171513	 0.459272	 -0.058250
H	 0.050699	 -1.089204	 -0.797170
H	 0.078739	 -0.954914	 0.954740
C	 1.155736	 1.534692	 0.826265
H	 1.135996	 1.198369	 1.861218
H	 2.058062	 2.106885	 0.661018
H	 0.294127	 2.176766	 0.655498

	symmetry c1
}
set optking {
	frozen_dihedral = ("
		8 4 3 5,
		1 2 3 5,
		4 7 10 13
	")
}

ee = energy('scf')
oeprop('DIPOLE', 'QUADRUPOLE', 'MULLIKEN_CHARGES')
f=open( 'psi4out.xyz', 'w' )
f.write( "13  " )
f.write( str(ee) + "\n" )
f.write( MOL.save_string_xyz() )
f.close()
--------------------------------------------------------------------------

    Molecular point group: c1

    Geometry (in Angstrom), charge = 0, multiplicity = 1:

       Center              X                  Y                   Z               Mass
    ------------   -----------------  -----------------  -----------------  -----------------
           H         -2.240680756987    -1.090592944369    -0.917439816016     1.007825032070
           O         -2.089098756987    -0.651304944369    -0.092553816016    15.994914619560
           C         -0.925602756987     0.127006055631    -0.179141816016    12.000000000000
           C          0.321018243013    -0.739093944369    -0.140751816016    12.000000000000
           H         -0.918103756987     0.738867055631    -1.076876816016     1.007825032070
           H         -0.928903756987     0.792609055631     0.672569183984     1.007825032070
           O          1.429932243013     0.098770055631    -0.230607816016    15.994914619560
           H          0.309118243013    -1.449705944369    -0.969527816016     1.007825032070
           H          0.337158243013    -1.315415944369     0.782382183984     1.007825032070
           C          1.414155243013     1.174190055631     0.653907183984    12.000000000000
           H          1.394415243013     0.837867055631     1.688860183984     1.007825032070
           H          2.316481243013     1.746383055631     0.488660183984     1.007825032070
           H          0.552546243013     1.816264055631     0.483140183984     1.007825032070

  Charge       = 0
  Multiplicity = 1
  Basis Set: 6-31G*
  Basis Set:

    Orbital Energies (a.u.)
    -----------------------

    Doubly Occupied:

       1A    -20.561851     2A    -20.560620     3A    -11.271975
       4A    -11.270708     5A    -11.269585     6A     -1.390802
       7A     -1.366688     8A     -1.011314     9A     -0.941770
      10A     -0.828542    11A     -0.715635    12A     -0.684713
      13A     -0.655522    14A     -0.640862    15A     -0.592906
      16A     -0.562855    17A     -0.542010    18A     -0.526992
      19A     -0.473491    20A     -0.448168    21A     -0.405463

  @DF-RHF Final Energy:  -267.93711406391435

   => Energetics <=

    Nuclear Repulsion Energy =            195.4638911360545421
    One-Electron Energy =                -753.3570593011274923
    Two-Electron Energy =                 289.9560541011582018
    DFT Exchange-Correlation Energy =       0.0000000000000000
    Empirical Dispersion Energy =           0.0000000000000000
    PCM Polarization Energy =               0.0000000000000000
    EFP Energy =                            0.0000000000000000
    Total Energy =                       -267.9371140639146915

  Mulliken Charges: (a.u.)
   Center  Symbol    Alpha    Beta     Spin     Total
       1     H     0.28115  0.28115  0.00000  0.43770
       2     O     4.37328  4.37328  0.00000 -0.74657
       3     C     3.01615  3.01615  0.00000 -0.03230
       4     C     2.99839  2.99839  0.00000  0.00322
       5     H     0.42195  0.42195  0.00000  0.15610
       6     H     0.41135  0.41135  0.00000  0.17730
       7     O     4.30448  4.30448  0.00000 -0.60897
       8     H     0.41953  0.41953  0.00000  0.16095
       9     H     0.42183  0.42183  0.00000  0.15634
      10     C     3.09113  3.09113  0.00000 -0.18227
      11     H     0.42677  0.42677  0.00000  0.14646
      12     H     0.40862  0.40862  0.00000  0.18275
      13     H     0.42537  0.42537  0.00000  0.14927

   Total alpha = 21.00000, Total beta = 21.00000, Total charge = -0.00000
