  ==> Input File <==

--------------------------------------------------------------------------
set {
	reference rhf
	basis 6-31G*
}

set_num_threads( 4 )
memory 2 gb

molecule MOL {
0 1

H	 -3.269016	 -0.876744	 0.468090
C	 -2.809304	 0.000122	 0.025886
N	 -1.391456	 0.000019	 0.300661
H	 -3.037557	 -0.000063	 -1.044252
H	 -3.269223	 0.876956	 0.468000
C	 -1.102617	 -0.232649	 1.702169
C	 -0.740550	 1.208980	 -0.164682
H	 -1.515468	 0.559251	 2.334590
H	 -1.563442	 -1.167947	 2.002868
C	 0.398831	 -0.316846	 1.928299
H	 -0.937344	 1.325079	 -1.225507
H	 -1.129432	 2.096313	 0.344160
C	 0.760898	 1.124782	 0.061448
H	 0.595625	 -0.432946	 2.989124
H	 0.787712	 -1.204178	 1.419457
N	 1.049737	 0.892115	 1.462956
H	 1.221722	 2.060081	 -0.239251
H	 1.173748	 0.332883	 -0.570973
C	 2.467584	 0.892013	 1.737732
H	 2.635090	 0.777897	 2.802951
H	 2.901398	 1.837293	 1.431009
H	 3.003130	 0.089244	 1.221931

	symmetry c1
}
set optking {
	frozen_dihedral = ("
		6 3 2 4
	")
}

ee = optimize('scf')
oeprop('DIPOLE', 'QUADRUPOLE', 'MULLIKEN_CHARGES')
f=open( 'psi4out.xyz', 'w' )
f.write( "22  " )
f.write( str(ee) + "\n" )
f.write( MOL.save_string_xyz() )
f.close()
--------------------------------------------------------------------------

    Molecular point group: c1
  Charge       = 0
  Multiplicity = 1
  Basis Set: 6-31G*
  Basis Set:
  @DF-RHF Final Energy:  -344.22961832015858
    Total Energy =                       -344.2296183201584654
    Molecular point group: c1
  Basis Set: 6-31G*
  Basis Set:
  Basis Set: 6-31G*
  Basis Set:
  @DF-RHF Final Energy:  -344.23039549578249
    Total Energy =                       -344.2303954957825454
  Basis Set: 6-31G*
  Basis Set:
  Basis Set: 6-31G*
  Basis Set:
  @DF-RHF Final Energy:  -344.23050553287561
    Total Energy =                       -344.2305055328754406
  Basis Set: 6-31G*
  Basis Set:
  Charge       = 0
  Multiplicity = 1
  Basis Set: 6-31G*
  Basis Set:

    Orbital Energies (a.u.)
    -----------------------

    Doubly Occupied:

       1A    -15.541961     2A    -15.541511     3A    -11.238804
       4A    -11.238754     5A    -11.238169     6A    -11.238129
       7A    -11.235939     8A    -11.235878     9A     -1.255192
      10A     -1.204113    11A     -1.024800    12A     -0.991755
      13A     -0.911452    14A     -0.867054    15A     -0.835254
      16A     -0.754660    17A     -0.665446    18A     -0.636874
      19A     -0.630117    20A     -0.626619    21A     -0.621376
      22A     -0.581030    23A     -0.549247    24A     -0.546307
      25A     -0.542320    26A     -0.517973    27A     -0.495847
      28A     -0.490705    29A     -0.465083    30A     -0.455837
      31A     -0.350147    32A     -0.344134

  @DF-RHF Final Energy:  -344.23050653984183

   => Energetics <=

    Nuclear Repulsion Energy =            421.3946924460764194
    One-Electron Energy =               -1301.5054237274653133
    Two-Electron Energy =                 535.8802247415470674
    DFT Exchange-Correlation Energy =       0.0000000000000000
    Empirical Dispersion Energy =           0.0000000000000000
    PCM Polarization Energy =               0.0000000000000000
    EFP Energy =                            0.0000000000000000
    Total Energy =                       -344.2305065398418265
    Molecular point group: c1
  Basis Set: 6-31G*
  Basis Set:

  -Total Gradient:
     Atom            X                  Y                   Z
    ------   -----------------  -----------------  -----------------
       1        0.000059223664    -0.000013239092     0.000019372331
       2       -0.000009795231     0.001486878361    -0.000026688506
       3        0.000002496752     0.001091226373     0.000255233948
       4        0.000058944382    -0.001486551845    -0.000002498959
       5        0.000023609110     0.000003096798     0.000011259820
       6       -0.000050378948    -0.001093727103    -0.000091884881
       7       -0.000040350759     0.000042662133    -0.000031538810
       8        0.000003183983    -0.000000178952    -0.000028747037
       9       -0.000014427937    -0.000011218999    -0.000007703639
      10       -0.000016398396     0.000014586245    -0.000117602691
      11       -0.000002515251     0.000005017119    -0.000009814228
      12        0.000011118363    -0.000020924112     0.000001479333
      13       -0.000031372112    -0.000018072605     0.000025994901
      14       -0.000040042026     0.000002280811    -0.000014360545
      15        0.000015774862    -0.000017290872     0.000000193883
      16        0.000020532577     0.000010390379     0.000005304281
      17       -0.000003804509     0.000000396052     0.000003377260
      18        0.000000431976    -0.000001610159     0.000002151829
      19        0.000005849790     0.000009368542     0.000002393569
      20        0.000003551366     0.000000007123     0.000000956193
      21        0.000004835631    -0.000001223811     0.000002839126
      22       -0.000000467284    -0.000001872386     0.000000282821

  **** Optimization is complete! (in 4 steps) ****
    Final optimized geometry and variables:
    Molecular point group: c1

    Geometry (in Angstrom), charge = 0, multiplicity = 1:

    H           -3.089818297820    -1.345499649880    -0.457733293282
    C           -2.641132126517    -0.440918716985    -0.852803320322
    N           -1.224851675329    -0.439107564523    -0.572005612344
    H           -2.803614265896    -0.437664471032    -1.925210590474
    H           -3.166966111790     0.414818282674    -0.419419667464
    C           -0.931609476714    -0.675385579386     0.827686539090
    C           -0.570325815522     0.763544173177    -1.046272697793
    H           -1.338886728470     0.115456515141     1.465162926956
    H           -1.392627729152    -1.610645542487     1.127579835554
    C            0.570863745788    -0.763606025775     1.045479490373
    H           -0.771386353977     0.874970546139    -2.106961246580
    H           -0.953875191018     1.655079629298    -0.540750996321
    C            0.931439676544     0.674258520339    -0.824895073527
    H            0.773016112902    -0.880241713520     2.105227567040
    H            0.954414669182    -1.652132748548     0.534591498829
    N            1.223318230259     0.443311786554     0.576442539673
    H            1.395002489114     1.607182420088    -1.128765441554
    H            1.339696547509    -0.120513924133    -1.456691246492
    C            2.641842612453     0.439990365566     0.847416674133
    H            2.812208108984     0.327385461406     1.912367881034
    H            3.077261693297     1.383576926983     0.537777578790
    H            3.174038383724    -0.364976777048     0.331521927507

  Mulliken Charges: (a.u.)
   Center  Symbol    Alpha    Beta     Spin     Total
       1     H     0.41751  0.41751  0.00000  0.16499
       2     C     3.13993  3.13993  0.00000 -0.27985
       3     N     3.78800  3.78800  0.00000 -0.57600
       4     H     0.41639  0.41639  0.00000  0.16723
       5     H     0.43313  0.43313  0.00000  0.13373
       6     C     3.05561  3.05561  0.00000 -0.11123
       7     C     3.05574  3.05574  0.00000 -0.11148
       8     H     0.42873  0.42873  0.00000  0.14254
       9     H     0.41799  0.41799  0.00000  0.16401
      10     C     3.05665  3.05665  0.00000 -0.11330
      11     H     0.41801  0.41801  0.00000  0.16398
      12     H     0.42850  0.42850  0.00000  0.14300
      13     C     3.05646  3.05646  0.00000 -0.11293
      14     H     0.41798  0.41798  0.00000  0.16404
      15     H     0.42853  0.42853  0.00000  0.14293
      16     N     3.78709  3.78709  0.00000 -0.57418
      17     H     0.41796  0.41796  0.00000  0.16408
      18     H     0.42855  0.42855  0.00000  0.14289
      19     C     3.14026  3.14026  0.00000 -0.28052
      20     H     0.41676  0.41676  0.00000  0.16648
      21     H     0.41676  0.41676  0.00000  0.16648
      22     H     0.43344  0.43344  0.00000  0.13312

   Total alpha = 32.00000, Total beta = 32.00000, Total charge =  0.00000
