  ==> Input File <==

--------------------------------------------------------------------------
set {
	reference rhf
	basis 6-31G*
}

set_num_threads( 4 )
memory 2 gb

molecule MOL {
0 1

H	 -3.161837	 0.500524	 -0.000234
C	 -2.367097	 -0.232926	 -0.000000
O	 -1.158440	 0.455814	 -0.000122
H	 -2.468853	 -0.861886	 -0.882833
H	 -2.468942	 -0.861421	 0.883154
C	 -0.029776	 -0.365156	 0.000148
C	 0.802676	 -0.054457	 -1.231579
H	 -0.328662	 -1.414235	 0.000408
H	 0.555920	 -0.197807	 0.905058
C	 2.065264	 -0.911080	 -1.314950
H	 0.186067	 -0.208877	 -2.111698
H	 1.064538	 0.999012	 -1.213406
H	 1.824033	 -1.969526	 -1.358798
H	 2.639979	 -0.668310	 -2.202425
H	 2.708532	 -0.753590	 -0.453668

	symmetry c1
}
set optking {
	frozen_dihedral = ("
		8 6 3 2
	")
}

ee = optimize('scf')
oeprop('DIPOLE', 'QUADRUPOLE', 'MULLIKEN_CHARGES')
f=open( 'psi4out.xyz', 'w' )
f.write( "15  " )
f.write( str(ee) + "\n" )
f.write( MOL.save_string_xyz() )
f.close()
--------------------------------------------------------------------------

    Molecular point group: c1
  Charge       = 0
  Multiplicity = 1
  Basis Set: 6-31G*
  Basis Set:
  @DF-RHF Final Energy:  -232.13510529564351
    Total Energy =                       -232.1351052956435410
    Molecular point group: c1
  Basis Set: 6-31G*
  Basis Set:
  Basis Set: 6-31G*
  Basis Set:
  @DF-RHF Final Energy:  -232.13548490720140
    Total Energy =                       -232.1354849072013167
  Basis Set: 6-31G*
  Basis Set:
  Basis Set: 6-31G*
  Basis Set:
  @DF-RHF Final Energy:  -232.13559362134575
    Total Energy =                       -232.1355936213457198
  Basis Set: 6-31G*
  Basis Set:
  Basis Set: 6-31G*
  Basis Set:
  @DF-RHF Final Energy:  -232.13559479784689
    Total Energy =                       -232.1355947978469771
  Basis Set: 6-31G*
  Basis Set:
  Charge       = 0
  Multiplicity = 1
  Basis Set: 6-31G*
  Basis Set:

    Orbital Energies (a.u.)
    -----------------------

    Doubly Occupied:

       1A    -20.549959     2A    -11.265869     3A    -11.264830
       4A    -11.214140     5A    -11.213042     6A     -1.373173
       7A     -1.056295     8A     -0.956354     9A     -0.879134
      10A     -0.808233    11A     -0.669756    12A     -0.652590
      13A     -0.634624    14A     -0.600364    15A     -0.568980
      16A     -0.538934    17A     -0.505372    18A     -0.493758
      19A     -0.480923    20A     -0.461992    21A     -0.404293

  @DF-RHF Final Energy:  -232.13559491582726

   => Energetics <=

    Nuclear Repulsion Energy =            190.0116660331773346
    One-Electron Energy =                -691.1092900460090505
    Two-Electron Energy =                 268.9620290970046881
    DFT Exchange-Correlation Energy =       0.0000000000000000
    Empirical Dispersion Energy =           0.0000000000000000
    PCM Polarization Energy =               0.0000000000000000
    EFP Energy =                            0.0000000000000000
    Total Energy =                       -232.1355949158270278
    Molecular point group: c1
  Basis Set: 6-31G*
  Basis Set:

  -Total Gradient:
     Atom            X                  Y                   Z
    ------   -----------------  -----------------  -----------------
       1        0.000003089760    -0.000003833356    -0.000001410909
       2       -0.000012457428    -0.000002825436    -0.000339524666
       3        0.000055710119    -0.000003729554     0.000597703575
       4        0.000001943665     0.000001032339     0.000004697689
       5       -0.000000444689    -0.000003366907    -0.000001197666
       6       -0.000063604639     0.000039456119    -0.000677375329
       7       -0.000015602264    -0.000012395972     0.000010633455
       8        0.000008139108    -0.000020613907     0.000414454761
       9        0.000004861701     0.000001363508    -0.000000340009
      10        0.000014112671     0.000016275628    -0.000000535380
      11       -0.000004691998     0.000000215045     0.000003873265
      12        0.000002689195    -0.000003135609    -0.000005109594
      13       -0.000001806988     0.000003587688    -0.000004834448
      14        0.000010924646    -0.000004245094    -0.000001108775
      15       -0.000002862858    -0.000007784494     0.000000074030

  **** Optimization is complete! (in 5 steps) ****
    Final optimized geometry and variables:
    Molecular point group: c1

    Geometry (in Angstrom), charge = 0, multiplicity = 1:

    H           -2.999035595036     0.777812419345     0.525838409815
    C           -2.229681482090     0.017500422042     0.527264770317
    O           -0.999593935877     0.669079312278     0.510975000279
    H           -2.362385284464    -0.614565102673    -0.348696252681
    H           -2.348853158634    -0.596982485737     1.417382457034
    C            0.133200827206    -0.157179485136     0.471985446112
    C            0.979696151289     0.165666378229    -0.750452648328
    H           -0.157005444954    -1.205605499001     0.460787753415
    H            0.708681264804     0.004481075006     1.379913511238
    C            2.262457828384    -0.662634881121    -0.810601289028
    H            0.382911139583    -0.002581716503    -1.642929681371
    H            1.218302568735     1.224682243251    -0.731268084061
    H            2.046176442485    -1.726610488196    -0.857119812067
    H            2.849120921599    -0.408593009331    -1.687117515540
    H            2.885032289954    -0.490358160815     0.062965813307

  Mulliken Charges: (a.u.)
   Center  Symbol    Alpha    Beta     Spin     Total
       1     H     0.41311  0.41311  0.00000  0.17379
       2     C     3.07897  3.07897  0.00000 -0.15795
       3     O     4.30899  4.30899  0.00000 -0.61798
       4     H     0.43090  0.43090  0.00000  0.13820
       5     H     0.42971  0.42971  0.00000  0.14058
       6     C     2.98504  2.98504  0.00000  0.02992
       7     C     3.15773  3.15773  0.00000 -0.31547
       8     H     0.43191  0.43191  0.00000  0.13618
       9     H     0.42374  0.42374  0.00000  0.15251
      10     C     3.24892  3.24892  0.00000 -0.49784
      11     H     0.41999  0.41999  0.00000  0.16002
      12     H     0.41358  0.41358  0.00000  0.17283
      13     H     0.42176  0.42176  0.00000  0.15649
      14     H     0.41554  0.41554  0.00000  0.16892
      15     H     0.42010  0.42010  0.00000  0.15979

   Total alpha = 21.00000, Total beta = 21.00000, Total charge =  0.00000
