  ==> Input File <==

--------------------------------------------------------------------------
set {
	reference rhf
	basis 6-31G*
}

set_num_threads( 4 )
memory 2 gb

molecule MOL {
0 1

H	 -3.650283	 0.221984	 0.000000
C	 -2.577024	 0.154109	 0.000000
C	 -1.960329	 -1.089307	 0.000000
C	 -1.811733	 1.307557	 0.000000
H	 -2.554473	 -1.985285	 0.000000
C	 -0.581547	 -1.175855	 0.000000
H	 -2.287118	 2.271701	 0.000000
C	 -0.428719	 1.219221	 0.000000
H	 -0.090826	 -2.129898	 0.000000
C	 0.198341	 -0.021559	 0.000000
H	 0.149947	 2.124040	 0.000000
C	 1.691355	 -0.173192	 0.000000
C	 2.400851	 -0.476221	 1.303200
O	 2.313887	 -0.056697	 -1.014030
H	 2.223034	 0.307472	 2.032574
H	 3.461036	 -0.549272	 1.107849
H	 2.048539	 -1.410644	 1.728065

	symmetry c1
}
set optking {
	frozen_dihedral = ("
		13 12 10 8
	")
}

ee = optimize('scf')
oeprop('DIPOLE', 'QUADRUPOLE', 'MULLIKEN_CHARGES')
f=open( 'psi4out.xyz', 'w' )
f.write( "17  " )
f.write( str(ee) + "\n" )
f.write( MOL.save_string_xyz() )
f.close()
--------------------------------------------------------------------------

    Molecular point group: c1
  Charge       = 0
  Multiplicity = 1
  Basis Set: 6-31G*
  Basis Set:
  @DF-RHF Final Energy:  -382.46541223615480
    Total Energy =                       -382.4654122361550890
    Molecular point group: c1
  Basis Set: 6-31G*
  Basis Set:
  Basis Set: 6-31G*
  Basis Set:
  @DF-RHF Final Energy:  -382.46613547672558
    Total Energy =                       -382.4661354767258672
  Basis Set: 6-31G*
  Basis Set:
  Basis Set: 6-31G*
  Basis Set:
  @DF-RHF Final Energy:  -382.46629180809850
    Total Energy =                       -382.4662918080980489
  Basis Set: 6-31G*
  Basis Set:
  Basis Set: 6-31G*
  Basis Set:
  @DF-RHF Final Energy:  -382.46639223083184
    Total Energy =                       -382.4663922308313886
  Basis Set: 6-31G*
  Basis Set:
  Basis Set: 6-31G*
  Basis Set:
  @DF-RHF Final Energy:  -382.46640267106557
    Total Energy =                       -382.4664026710656799
  Basis Set: 6-31G*
  Basis Set:
  Basis Set: 6-31G*
  Basis Set:
  @DF-RHF Final Energy:  -382.46640474468251
    Total Energy =                       -382.4664047446823361
  Basis Set: 6-31G*
  Basis Set:
  Charge       = 0
  Multiplicity = 1
  Basis Set: 6-31G*
  Basis Set:

    Orbital Energies (a.u.)
    -----------------------

    Doubly Occupied:

       1A    -20.557837     2A    -11.334278     3A    -11.247723
       4A    -11.244150     5A    -11.242952     6A    -11.241412
       7A    -11.240757     8A    -11.239235     9A    -11.231458
      10A     -1.402605    11A     -1.165928    12A     -1.050694
      13A     -1.025768    14A     -0.998399    15A     -0.858982
      16A     -0.837624    17A     -0.761763    18A     -0.702361
      19A     -0.663457    20A     -0.642540    21A     -0.627468
      22A     -0.620252    23A     -0.599057    24A     -0.589943
      25A     -0.562321    26A     -0.522035    27A     -0.512150
      28A     -0.506294    29A     -0.491837    30A     -0.409515
      31A     -0.343891    32A     -0.341433

  @DF-RHF Final Energy:  -382.46640524738115

   => Energetics <=

    Nuclear Repulsion Energy =            402.5943972409166349
    One-Electron Energy =               -1316.4893686964101107
    Two-Electron Energy =                 531.4285662081126702
    DFT Exchange-Correlation Energy =       0.0000000000000000
    Empirical Dispersion Energy =           0.0000000000000000
    PCM Polarization Energy =               0.0000000000000000
    EFP Energy =                            0.0000000000000000
    Total Energy =                       -382.4664052473808624
    Molecular point group: c1
  Basis Set: 6-31G*
  Basis Set:

  -Total Gradient:
     Atom            X                  Y                   Z
    ------   -----------------  -----------------  -----------------
       1       -0.000001438591    -0.000003618787    -0.000002422079
       2       -0.000006881869    -0.000035337149     0.000008664215
       3       -0.000023812648     0.000026032820    -0.000014870264
       4        0.000047472414     0.000015788165     0.000008946503
       5       -0.000000480471     0.000001572413    -0.000002255763
       6        0.000006336251     0.000023919907     0.000022916281
       7        0.000001919795    -0.000001983937    -0.000008076667
       8       -0.000034401472    -0.000030542321     0.002295623555
       9        0.000014253050    -0.000011029353    -0.000002966462
      10        0.000081780555     0.000922118761    -0.003164977439
      11        0.000005706243     0.000006621120     0.000001901499
      12       -0.000239631970    -0.002940737840     0.000473496166
      13        0.000124368603     0.002049338808     0.000401997860
      14        0.000015988013     0.000005421027    -0.000003667815
      15        0.000004474500    -0.000018348943    -0.000005907399
      16        0.000010734480     0.000003093749    -0.000006379382
      17       -0.000006386888    -0.000012308440    -0.000002022808

  **** Optimization is complete! (in 7 steps) ****
    Final optimized geometry and variables:
    Molecular point group: c1

    Geometry (in Angstrom), charge = 0, multiplicity = 1:

    H           -3.641520109135     0.273044959420     0.009576322092
    C           -2.569612081278     0.191000036048    -0.007469891833
    C           -1.969003060495    -1.057229122710    -0.023977563026
    C           -1.785477357880     1.333458341761    -0.012971289685
    H           -2.573158584303    -1.946651541206    -0.022612731074
    C           -0.587781610578    -1.163276173476    -0.039434615500
    H           -2.247268689754     2.304363716194    -0.000119352265
    C           -0.404724038164     1.228879954795    -0.040031110040
    H           -0.127564198985    -2.136179501832    -0.048980331741
    C            0.199995209136    -0.020587490500    -0.059124753682
    H            0.201164003997     2.117552010158    -0.057698717020
    C            1.705471005494    -0.121406486228    -0.064033634571
    C            2.366791702350    -0.419719830346     1.262345401111
    O            2.336488419766     0.075151826754    -1.055631077150
    H            2.137195449527     0.374714117479     1.966439948985
    H            3.437687775244    -0.494578611727     1.131207302093
    H            1.980135174183    -1.341100786945     1.686785366962

  Mulliken Charges: (a.u.)
   Center  Symbol    Alpha    Beta     Spin     Total
       1     H     0.39673  0.39673  0.00000  0.20654
       2     C     3.09934  3.09934  0.00000 -0.19868
       3     C     3.09788  3.09788  0.00000 -0.19576
       4     C     3.09791  3.09791  0.00000 -0.19582
       5     H     0.39625  0.39625  0.00000  0.20749
       6     C     3.10520  3.10520  0.00000 -0.21039
       7     H     0.39602  0.39602  0.00000  0.20796
       8     C     3.10313  3.10313  0.00000 -0.20626
       9     H     0.39500  0.39500  0.00000  0.21000
      10     C     3.02804  3.02804  0.00000 -0.05609
      11     H     0.39154  0.39154  0.00000  0.21692
      12     C     2.75195  2.75195  0.00000  0.49610
      13     C     3.28638  3.28638  0.00000 -0.57277
      14     O     4.24678  4.24678  0.00000 -0.49356
      15     H     0.40377  0.40377  0.00000  0.19247
      16     H     0.39756  0.39756  0.00000  0.20488
      17     H     0.40652  0.40652  0.00000  0.18696

   Total alpha = 32.00000, Total beta = 32.00000, Total charge = -0.00000
