  ==> Input File <==

--------------------------------------------------------------------------
set {
	reference rhf
	basis cc-pvtz
}

set_num_threads( 4 )
memory 2 gb

molecule MOL {
0 1

O	 -0.694481	 1.313155	 -0.204815
C	 -0.862519	 0.151932	 -0.046791
C	 -2.171428	 -0.477048	 0.339095
O	 0.085519	 -0.757083	 -0.192238
H	 -2.467997	 -1.191667	 -0.417688
H	 -2.923379	 0.287970	 0.444097
H	 -2.053854	 -1.015120	 1.270901
C	 1.392036	 -0.330828	 -0.560749
C	 2.384871	 -1.474030	 -0.525147
H	 1.700514	 0.472518	 0.089860
H	 1.282031	 0.051894	 -1.564329
H	 3.350692	 -1.127268	 -0.874998
H	 2.503638	 -1.851624	 0.481183
H	 2.060154	 -2.282998	 -1.168361

	symmetry c1
}
set optking {
	frozen_dihedral = ("
		10 8 4 2
	")
}

ee = optimize('scf')
oeprop('DIPOLE', 'QUADRUPOLE', 'MULLIKEN_CHARGES')
f=open( 'psi4out.xyz', 'w' )
f.write( "14  " )
f.write( str(ee) + "\n" )
f.write( MOL.save_string_xyz() )
f.close()
--------------------------------------------------------------------------

    Molecular point group: c1
  Charge       = 0
  Multiplicity = 1
  Basis Set: CC-PVTZ
  Basis Set:
  @DF-RHF Final Energy:  -305.99061598143658
    Total Energy =                       -305.9906159814368038
    Molecular point group: c1
  Basis Set: CC-PVTZ
  Basis Set:
  Basis Set: CC-PVTZ
  Basis Set:
  @DF-RHF Final Energy:  -305.99179240663614
    Total Energy =                       -305.9917924066361365
  Basis Set: CC-PVTZ
  Basis Set:
  Basis Set: CC-PVTZ
  Basis Set:
  @DF-RHF Final Energy:  -305.99204847506996
    Total Energy =                       -305.9920484750699075
  Basis Set: CC-PVTZ
  Basis Set:
  Basis Set: CC-PVTZ
  Basis Set:
  @DF-RHF Final Energy:  -305.99181912316669
    Total Energy =                       -305.9918191231665787
  Basis Set: CC-PVTZ
  Basis Set:
  Basis Set: CC-PVTZ
  Basis Set:
  @DF-RHF Final Energy:  -305.99206064676059
    Total Energy =                       -305.9920606467608195
  Basis Set: CC-PVTZ
  Basis Set:
  Charge       = 0
  Multiplicity = 1
  Basis Set: CC-PVTZ
  Basis Set:

    Orbital Energies (a.u.)
    -----------------------

    Doubly Occupied:

       1A    -20.594957     2A    -20.533088     3A    -11.367097
       4A    -11.283259     5A    -11.231777     6A    -11.221066
       7A     -1.471548     8A     -1.365743     9A     -1.059013
      10A     -1.001179    11A     -0.872228    12A     -0.782397
      13A     -0.693371    14A     -0.690549    15A     -0.669664
      16A     -0.612178    17A     -0.581617    18A     -0.565223
      19A     -0.553987    20A     -0.541724    21A     -0.509950
      22A     -0.504669    23A     -0.456964    24A     -0.442515

  @DF-RHF Final Energy:  -305.99206130444372

   => Energetics <=

    Nuclear Repulsion Energy =            246.0913476667809334
    One-Electron Energy =                -904.9552940830178613
    Two-Electron Energy =                 352.8718851117930058
    DFT Exchange-Correlation Energy =       0.0000000000000000
    Empirical Dispersion Energy =           0.0000000000000000
    PCM Polarization Energy =               0.0000000000000000
    EFP Energy =                            0.0000000000000000
    Total Energy =                       -305.9920613044438937
    Molecular point group: c1
  Basis Set: CC-PVTZ
  Basis Set:

  -Total Gradient:
     Atom            X                  Y                   Z
    ------   -----------------  -----------------  -----------------
       1        0.000006363934     0.000028473214     0.000029721883
       2        0.000191686516     0.000017816942     0.000614195347
       3        0.000003155210     0.000003843058     0.000023122164
       4       -0.000300988229     0.000089311297    -0.001097963942
       5        0.000001708329    -0.000001205036    -0.000003690349
       6        0.000006894930     0.000001396423    -0.000002344964
       7       -0.000002412507    -0.000001442995     0.000002022038
       8        0.000482595187    -0.000686387970     0.000903739092
       9       -0.000025237727    -0.000002797749     0.000031186398
      10       -0.000364829473     0.000539238749    -0.000494737613
      11       -0.000022467486    -0.000001352144     0.000000902662
      12        0.000022993087     0.000007163411    -0.000006256731
      13        0.000005652305    -0.000010826667    -0.000003269605
      14       -0.000005114079     0.000016769466     0.000003373619

  **** Optimization is complete! (in 6 steps) ****
    Final optimized geometry and variables:
    Molecular point group: c1

    Geometry (in Angstrom), charge = 0, multiplicity = 1:

    O           -0.723730481781     1.569648521632    -0.012338964653
    C           -0.884104740559     0.408455391748     0.151651694118
    C           -2.181289102153    -0.227857668702     0.563490023405
    O            0.069463023931    -0.491735521416    -0.009111056387
    H           -2.488143249060    -0.944983293077    -0.186880143741
    H           -2.935649406692     0.532876306638     0.681206363730
    H           -2.043486660443    -0.764049533344     1.493556679577
    C            1.361395469763    -0.032498572453    -0.382900386495
    C            2.310674272269    -1.204899917075    -0.305107581283
    H            1.657011177706     0.769847066803     0.276753350347
    H            1.311597723595     0.369903162261    -1.385765920080
    H            3.305839321845    -0.889072540151    -0.595183445390
    H            2.356083189398    -1.598139776333     0.702707493922
    H            1.996861250196    -2.000497249102    -0.969043888343

  Mulliken Charges: (a.u.)
   Center  Symbol    Alpha    Beta     Spin     Total
       1     O     4.19730  4.19730  0.00000 -0.39459
       2     C     2.80746  2.80746  0.00000  0.38508
       3     C     3.13795  3.13795  0.00000 -0.27589
       4     O     4.15228  4.15228  0.00000 -0.30457
       5     H     0.44570  0.44570  0.00000  0.10860
       6     H     0.43803  0.43803  0.00000  0.12395
       7     H     0.44603  0.44603  0.00000  0.10794
       8     C     2.97808  2.97808  0.00000  0.04383
       9     C     3.13278  3.13278  0.00000 -0.26555
      10     H     0.45184  0.45184  0.00000  0.09632
      11     H     0.45528  0.45528  0.00000  0.08944
      12     H     0.45438  0.45438  0.00000  0.09124
      13     H     0.45155  0.45155  0.00000  0.09691
      14     H     0.45135  0.45135  0.00000  0.09730

   Total alpha = 24.00000, Total beta = 24.00000, Total charge =  0.00000
