                              Psi4 1.0.54 Driver

  ==> Input File <==

--------------------------------------------------------------------------
set {
	reference rhf
	basis cc-pvtz
}

set_num_threads( 4 )
memory 2 gb

molecule MOL {
0 1

H	 -0.109694	 0.482284	 -2.635217
C	 -0.846405	 0.773247	 -1.893435
O	 -0.775228	 0.000056	 -0.739966
H	 -1.828816	 0.614094	 -2.314968
H	 -0.733739	 1.833397	 -1.690902
C	 0.406133	 -0.000384	 0.036994
C	 1.526415	 -0.003194	 -0.997339
C	 0.498772	 1.259027	 0.900673
C	 0.495883	 -1.257378	 0.904465
H	 1.452279	 0.872071	 -1.630204
H	 1.451276	 -0.881020	 -1.626529
H	 2.497919	 -0.002741	 -0.517601
H	 0.368981	 2.144239	 0.289753
H	 1.470064	 1.313479	 1.377660
H	 -0.248448	 1.271586	 1.684297
H	 0.363971	 -2.144195	 0.296316
H	 1.467114	 -1.312636	 1.381470
H	 -0.251246	 -1.265768	 1.688235

	symmetry c1
}
set optking {
	frozen_dihedral = ("
		2 3 6 7
	")
}

ee,wfn = optimize('scf', return_wfn=True)
oeprop( wfn, 'DIPOLE', 'QUADRUPOLE', 'MULLIKEN_CHARGES')
f=open( 'psi4out.xyz', 'w' )
f.write( "18  " )
f.write( str(ee) + "\n" )
f.write( MOL.save_string_xyz() )
f.close()
--------------------------------------------------------------------------

    Molecular point group: c1
  Charge       = 0
  Multiplicity = 1
  Basis Set: CC-PVTZ
  Basis Set:
  @DF-RHF Final Energy:  -271.26541068111050
    Total Energy =                       -271.2654106811105521
    Molecular point group: c1
  Basis Set: CC-PVTZ
  Basis Set:
  Basis Set: CC-PVTZ
  Basis Set:
  @DF-RHF Final Energy:  -271.15117192571887
    Total Energy =                       -271.1511719257188133
  Basis Set: CC-PVTZ
  Basis Set:
  Basis Set: CC-PVTZ
  Basis Set:
  @DF-RHF Final Energy:  -271.24536169081557
    Total Energy =                       -271.2453616908154572
  Basis Set: CC-PVTZ
  Basis Set:
  Basis Set: CC-PVTZ
  Basis Set:
  @DF-RHF Final Energy:  -271.27345400109397
    Total Energy =                       -271.2734540010944784
  Basis Set: CC-PVTZ
  Basis Set:
  @DF-RHF Final Energy:  -271.16540435568288
    Total Energy =                       -271.1654043556825968
  @DF-RHF Final Energy:  -271.26550415126223
    Total Energy =                       -271.2655041512622347
  @DF-RHF Final Energy:  -271.27586979671980
    Total Energy =                       -271.2758697967197463
  @DF-RHF Final Energy:  -271.27593803239756
    Total Energy =                       -271.2759380323974483
  Basis Set: CC-PVTZ
  Basis Set:
  @DF-RHF Final Energy:  -271.27601013381445
    Total Energy =                       -271.2760101338145660
  Basis Set: CC-PVTZ
  Basis Set:
  Basis Set: CC-PVTZ
  Basis Set:
  @DF-RHF Final Energy:  -271.27602845253568
    Total Energy =                       -271.2760284525356269
  Basis Set: CC-PVTZ
  Basis Set:
  Basis Set: CC-PVTZ
  Basis Set:
  @DF-RHF Final Energy:  -271.27603090160005
    Total Energy =                       -271.2760309015999383
  Basis Set: CC-PVTZ
  Basis Set:
  Charge       = 0
  Multiplicity = 1
  Basis Set: CC-PVTZ
  Basis Set:

    Orbital Energies (a.u.)
    -----------------------

    Doubly Occupied:

       1A    -20.539879     2A    -11.280254     3A    -11.258788
       4A    -11.209683     5A    -11.204535     6A    -11.202154
       7A     -1.372882     8A     -1.074769     9A     -0.949445
      10A     -0.938231    11A     -0.913100    12A     -0.753181
      13A     -0.657247    14A     -0.647378    15A     -0.639824
      16A     -0.590412    17A     -0.575202    18A     -0.552738
      19A     -0.535370    20A     -0.526219    21A     -0.515401
      22A     -0.491021    23A     -0.486817    24A     -0.442465
      25A     -0.404452

  @DF-RHF Final Energy:  -271.27603094444441

   => Energetics <=

    Nuclear Repulsion Energy =            272.6617006535267365
    One-Electron Energy =                -908.3525728700234367
    Two-Electron Energy =                 364.4148412720517172
    DFT Exchange-Correlation Energy =       0.0000000000000000
    Empirical Dispersion Energy =           0.0000000000000000
    PCM Polarization Energy =               0.0000000000000000
    EFP Energy =                            0.0000000000000000
    Total Energy =                       -271.2760309444449831
    Molecular point group: c1
  Basis Set: CC-PVTZ
  Basis Set:

  -Total Gradient:
     Atom            X                  Y                   Z
    ------   -----------------  -----------------  -----------------
       1        0.000021189114    -0.000001706519    -0.000002355498
       2        0.001757443821    -0.001277542833     0.000274367157
       3       -0.002853508848     0.002616356388    -0.000722178726
       4       -0.000008895834    -0.000011255384    -0.000011126874
       5       -0.000007843099     0.000008349865    -0.000000800503
       6        0.001562504061    -0.002949259231     0.001274503051
       7       -0.000459014351     0.001626666150    -0.000810967703
       8       -0.000003170765    -0.000020208068     0.000008533740
       9       -0.000017113495     0.000023129178    -0.000025317490
      10        0.000012838548    -0.000000675636    -0.000024890084
      11        0.000004053185    -0.000015268247     0.000009224422
      12       -0.000002132813     0.000018361083     0.000006150107
      13       -0.000004305692     0.000001527684    -0.000022172718
      14        0.000016907482     0.000011401390     0.000021532957
      15       -0.000011810845    -0.000004717658    -0.000003489461
      16        0.000031541763    -0.000023493687    -0.000014243507
      17        0.000001783462     0.000022950973     0.000045087930
      18       -0.000040465695    -0.000024615446    -0.000001856802

  **** Optimization is complete! (in 12 steps) ****
    Final optimized geometry and variables:
    Molecular point group: c1

    Geometry (in Angstrom), charge = 0, multiplicity = 1:

    H            1.201665613392    -0.406613106305    -2.090475454342
    C            0.132722057818    -0.245289950807    -2.001025548545
    O           -0.362035201895    -0.655310226211    -0.768247996732
    H           -0.364373695732    -0.843354387584    -2.751715202988
    H           -0.077243400749     0.800066590486    -2.209846423571
    C           -0.018485285034     0.056521752208     0.406417698814
    C            1.445231429038     0.499434469586     0.416391517352
    C           -0.938309312620     1.272052451067     0.541062119202
    C           -0.277759627698    -0.926908490937     1.541268444229
    H            1.652066319761     1.242908218017    -0.342795277848
    H            2.106531993072    -0.344701429689     0.259655433615
    H            1.684380746106     0.938290268600     1.377219752950
    H           -0.796883143728     1.967011506813    -0.278198307010
    H           -0.740993446631     1.805667072966     1.463817800144
    H           -1.974079397921     0.956448565230     0.541095511715
    H            0.379078024642    -1.783525865299     1.454488200011
    H           -0.113194992897    -0.459881862593     2.505349688762
    H           -1.299989419616    -1.280686804671     1.498924230913

  Mulliken Charges: (a.u.)
   Center  Symbol    Alpha    Beta     Spin     Total
       1     H     0.46686  0.46686  0.00000  0.06628
       2     C     3.04397  3.04397  0.00000 -0.08793
       3     O     4.19289  4.19289  0.00000 -0.38578
       4     H     0.44190  0.44190  0.00000  0.11619
       5     H     0.47030  0.47030  0.00000  0.05940
       6     C     2.87433  2.87433  0.00000  0.25133
       7     C     3.17203  3.17203  0.00000 -0.34407
       8     C     3.15283  3.15283  0.00000 -0.30565
       9     C     3.14120  3.14120  0.00000 -0.28239
      10     H     0.44605  0.44605  0.00000  0.10790
      11     H     0.44505  0.44505  0.00000  0.10989
      12     H     0.44494  0.44494  0.00000  0.11013
      13     H     0.44998  0.44998  0.00000  0.10005
      14     H     0.45247  0.45247  0.00000  0.09505
      15     H     0.44778  0.44778  0.00000  0.10444
      16     H     0.45071  0.45071  0.00000  0.09859
      17     H     0.45919  0.45919  0.00000  0.08161
      18     H     0.44752  0.44752  0.00000  0.10495

   Total alpha = 25.00000, Total beta = 25.00000, Total charge = -0.00000

*** Psi4 exiting successfully. Buy a developer a beer!
