                              Psi4 1.0.54 Driver

  ==> Input File <==

--------------------------------------------------------------------------
set {
	reference rhf
	basis cc-pvtz
}

set_num_threads( 4 )
memory 2 gb

molecule MOL {
0 1

H	 -3.306667	 0.850634	 1.701858
O	 -2.457178	 1.131005	 1.415855
C	 -2.021813	 0.336996	 0.342658
C	 -0.669613	 0.837286	 -0.127252
H	 -1.937383	 -0.701541	 0.652554
H	 -2.737560	 0.379401	 -0.476055
C	 0.490865	 -0.082543	 0.241244
H	 -0.708709	 0.967192	 -1.204587
H	 -0.507562	 1.822272	 0.303070
C	 1.839800	 0.429565	 -0.255472
H	 0.305636	 -1.070211	 -0.165276
H	 0.527397	 -0.195943	 1.322876
C	 3.001144	 -0.485193	 0.119072
H	 1.804373	 0.541073	 -1.335756
H	 2.020437	 1.423114	 0.146921
H	 2.866892	 -1.477297	 -0.298806
H	 3.943543	 -0.095749	 -0.249061
H	 3.085064	 -0.590459	 1.195790

	symmetry c1
}
set optking {
	frozen_dihedral = ("
		2 3 4 8
	")
}

ee,wfn = optimize('scf', return_wfn=True)
oeprop( wfn, 'DIPOLE', 'QUADRUPOLE', 'MULLIKEN_CHARGES')
f=open( 'psi4out.xyz', 'w' )
f.write( "18  " )
f.write( str(ee) + "\n" )
f.write( MOL.save_string_xyz() )
f.close()
--------------------------------------------------------------------------

    Molecular point group: c1
  Charge       = 0
  Multiplicity = 1
  Basis Set: CC-PVTZ
  Basis Set:
  @DF-RHF Final Energy:  -271.28158490693335
    Total Energy =                       -271.2815849069334604
    Molecular point group: c1
  Basis Set: CC-PVTZ
  Basis Set:
  Basis Set: CC-PVTZ
  Basis Set:
  @DF-RHF Final Energy:  -271.28195487052017
    Total Energy =                       -271.2819548705202806
  Basis Set: CC-PVTZ
  Basis Set:
  Basis Set: CC-PVTZ
  Basis Set:
  @DF-RHF Final Energy:  -271.28202785309571
    Total Energy =                       -271.2820278530958262
  Basis Set: CC-PVTZ
  Basis Set:
  Basis Set: CC-PVTZ
  Basis Set:
  @DF-RHF Final Energy:  -271.28203146244545
    Total Energy =                       -271.2820314624455023
  Basis Set: CC-PVTZ
  Basis Set:
  Charge       = 0
  Multiplicity = 1
  Basis Set: CC-PVTZ
  Basis Set:

    Orbital Energies (a.u.)
    -----------------------

    Doubly Occupied:

       1A    -20.545346     2A    -11.265528     3A    -11.211508
       4A    -11.210592     5A    -11.209090     6A    -11.205159
       7A     -1.362385     8A     -1.078623     9A     -1.009519
      10A     -0.914163    11A     -0.820813    12A     -0.790194
      13A     -0.705408    14A     -0.641704    15A     -0.630458
      16A     -0.581125    17A     -0.572961    18A     -0.560894
      19A     -0.528165    20A     -0.498520    21A     -0.489356
      22A     -0.470411    23A     -0.462463    24A     -0.454549
      25A     -0.428063

  @DF-RHF Final Energy:  -271.28203196146785

   => Energetics <=

    Nuclear Repulsion Energy =            246.7985696489849659
    One-Electron Energy =                -856.8672101043755447
    Two-Electron Energy =                 338.7866084939225857
    DFT Exchange-Correlation Energy =       0.0000000000000000
    Empirical Dispersion Energy =           0.0000000000000000
    PCM Polarization Energy =               0.0000000000000000
    EFP Energy =                            0.0000000000000000
    Total Energy =                       -271.2820319614679647
    Molecular point group: c1
  Basis Set: CC-PVTZ
  Basis Set:

  -Total Gradient:
     Atom            X                  Y                   Z
    ------   -----------------  -----------------  -----------------
       1        0.000016287673     0.000032098170     0.000026446156
       2       -0.001250145851     0.001423744318    -0.001671731215
       3        0.001342791983    -0.001216186396     0.002138847316
       4        0.000999153788    -0.003485751277    -0.000907743712
       5       -0.000021350317     0.000035012205     0.000029737193
       6       -0.000023344106     0.000021874961     0.000040185943
       7       -0.000051483353     0.000037880868    -0.000019619314
       8       -0.001021902446     0.003106883029     0.000345615137
       9        0.000008163184     0.000010806779     0.000012778359
      10        0.000002658061     0.000002316666     0.000023987662
      11       -0.000023998098     0.000017279596     0.000016206653
      12       -0.000004137248     0.000021147129    -0.000018767245
      13        0.000019308039    -0.000000823217    -0.000026341100
      14       -0.000000565531    -0.000000638587     0.000010563145
      15        0.000002865577    -0.000003387201     0.000002786800
      16       -0.000000799243     0.000000455615     0.000006315633
      17        0.000011147258    -0.000010095508    -0.000003310116
      18       -0.000004649366     0.000007382849    -0.000005957298

  **** Optimization is complete! (in 5 steps) ****
    Final optimized geometry and variables:
    Molecular point group: c1

    Geometry (in Angstrom), charge = 0, multiplicity = 1:

    H           -3.238699857042     0.432705484201     1.419433510226
    O           -2.432286997393     0.755248192009     1.061249340455
    C           -2.013342913131    -0.068342877957     0.001157030139
    C           -0.655443667083     0.425146642951    -0.501127306932
    H           -1.943047289629    -1.101663459121     0.330489275026
    H           -2.746088273135    -0.032123733398    -0.799953650599
    C            0.519743027267    -0.453618485517    -0.085389446152
    H           -0.680880215208     0.537709879809    -1.580307595873
    H           -0.517898999134     1.425017134700    -0.105162266148
    C            1.870825607598     0.092688543082    -0.535859675076
    H            0.385327279721    -1.453986284633    -0.490916194822
    H            0.516004817170    -0.558873122869     0.996607348790
    C            3.042982041858    -0.791475905258    -0.123523863203
    H            1.869215946765     0.207482292083    -1.616595597063
    H            2.008398403739     1.088754698100    -0.124627322128
    H            2.951750980632    -1.785942679883    -0.547876621922
    H            3.986258427886    -0.375125863145    -0.458053892578
    H            3.092246046089    -0.897193524063     0.955110610969

  Mulliken Charges: (a.u.)
   Center  Symbol    Alpha    Beta     Spin     Total
       1     H     0.39532  0.39532  0.00000  0.20935
       2     O     4.19870  4.19870  0.00000 -0.39740
       3     C     2.96638  2.96638  0.00000  0.06724
       4     C     3.09133  3.09133  0.00000 -0.18266
       5     H     0.47555  0.47555  0.00000  0.04889
       6     H     0.47113  0.47113  0.00000  0.05775
       7     C     3.09178  3.09178  0.00000 -0.18356
       8     H     0.45210  0.45210  0.00000  0.09581
       9     H     0.44718  0.44718  0.00000  0.10564
      10     C     3.08521  3.08521  0.00000 -0.17042
      11     H     0.45728  0.45728  0.00000  0.08545
      12     H     0.45051  0.45051  0.00000  0.09899
      13     C     3.14982  3.14982  0.00000 -0.29965
      14     H     0.45546  0.45546  0.00000  0.08907
      15     H     0.45288  0.45288  0.00000  0.09424
      16     H     0.45595  0.45595  0.00000  0.08811
      17     H     0.44865  0.44865  0.00000  0.10271
      18     H     0.45478  0.45478  0.00000  0.09045

   Total alpha = 25.00000, Total beta = 25.00000, Total charge =  0.00000

*** Psi4 exiting successfully. Buy a developer a beer!
