  ==> Input File <==

--------------------------------------------------------------------------
set {
	reference rhf
	basis cc-pvtz
}

set_num_threads( 4 )
memory 2 gb

molecule MOL {
0 1

H	 -1.752232	 -2.214755	 -0.011938
C	 -1.343852	 -1.221619	 -0.018179
N	 -0.058800	 -1.097635	 -0.261688
C	 -2.148159	 -0.124236	 0.219734
C	 0.449026	 0.119242	 -0.273393
H	 -3.196988	 -0.237571	 0.417076
N	 -1.655094	 1.094230	 0.209506
C	 -0.370318	 1.215445	 -0.035100
C	 1.924033	 0.265863	 -0.538106
H	 0.033214	 2.210441	 -0.046812
C	 2.378418	 1.726293	 -0.549381
H	 2.460796	 -0.271926	 0.234184
H	 2.167596	 -0.202387	 -1.484485
H	 3.448318	 1.789325	 -0.708368
H	 2.145511	 2.204975	 0.392742
H	 1.887832	 2.281556	 -1.340933

	symmetry c1
}
set optking {
	frozen_dihedral = ("
		12 9 5 3
	")
}

ee = optimize('scf')
oeprop('DIPOLE', 'QUADRUPOLE', 'MULLIKEN_CHARGES')
f=open( 'psi4out.xyz', 'w' )
f.write( "16  " )
f.write( str(ee) + "\n" )
f.write( MOL.save_string_xyz() )
f.close()
--------------------------------------------------------------------------

    Molecular point group: c1
  Charge       = 0
  Multiplicity = 1
  Basis Set: CC-PVTZ
  Basis Set:
  @DF-RHF Final Energy:  -340.86859603668285
    Total Energy =                       -340.8685960366826748
    Molecular point group: c1
  Basis Set: CC-PVTZ
  Basis Set:
  Basis Set: CC-PVTZ
  Basis Set:
  @DF-RHF Final Energy:  -340.86973307485431
    Total Energy =                       -340.8697330748544800
  Basis Set: CC-PVTZ
  Basis Set:
  Basis Set: CC-PVTZ
  Basis Set:
  @DF-RHF Final Energy:  -340.87027937748871
    Total Energy =                       -340.8702793774882025
  Basis Set: CC-PVTZ
  Basis Set:
  Basis Set: CC-PVTZ
  Basis Set:
  @DF-RHF Final Energy:  -340.87030329239911
    Total Energy =                       -340.8703032923991714
  Basis Set: CC-PVTZ
  Basis Set:
  Basis Set: CC-PVTZ
  Basis Set:
  @DF-RHF Final Energy:  -340.87031160370157
    Total Energy =                       -340.8703116037013388
  Basis Set: CC-PVTZ
  Basis Set:
  Basis Set: CC-PVTZ
  Basis Set:
  @DF-RHF Final Energy:  -340.87032025354421
    Total Energy =                       -340.8703202535439232
  Basis Set: CC-PVTZ
  Basis Set:
  Basis Set: CC-PVTZ
  Basis Set:
  @DF-RHF Final Energy:  -340.87032133311300
    Total Energy =                       -340.8703213331127699
  Basis Set: CC-PVTZ
  Basis Set:
  Charge       = 0
  Multiplicity = 1
  Basis Set: CC-PVTZ
  Basis Set:

    Orbital Energies (a.u.)
    -----------------------

    Doubly Occupied:

       1A    -15.579655     2A    -15.574604     3A    -11.278960
       4A    -11.272276     5A    -11.267279     6A    -11.266440
       7A    -11.232238     8A    -11.221523     9A     -1.315179
      10A     -1.222880    11A     -1.087172    12A     -1.016295
      13A     -0.910688    14A     -0.893167    15A     -0.831385
      16A     -0.716895    17A     -0.711038    18A     -0.652433
      19A     -0.632699    20A     -0.611629    21A     -0.571606
      22A     -0.565005    23A     -0.520001    24A     -0.512936
      25A     -0.508638    26A     -0.486348    27A     -0.430858
      28A     -0.396847    29A     -0.346494

  @DF-RHF Final Energy:  -340.87032171069734

   => Energetics <=

    Nuclear Repulsion Energy =            350.0228539082562520
    One-Electron Energy =               -1154.5200193585724264
    Two-Electron Energy =                 463.6268437396186641
    DFT Exchange-Correlation Energy =       0.0000000000000000
    Empirical Dispersion Energy =           0.0000000000000000
    PCM Polarization Energy =               0.0000000000000000
    EFP Energy =                            0.0000000000000000
    Total Energy =                       -340.8703217106975103
    Molecular point group: c1
  Basis Set: CC-PVTZ
  Basis Set:

  -Total Gradient:
     Atom            X                  Y                   Z
    ------   -----------------  -----------------  -----------------
       1        0.000005715307     0.000000708285    -0.000002354683
       2       -0.000116970792     0.000041844019     0.000014419453
       3        0.000093033412     0.000107567221    -0.000126497144
       4        0.000013521309    -0.000138133300     0.000008557827
       5        0.000032738671    -0.000139101722     0.000188600849
       6       -0.000001444315     0.000001882510    -0.000011924074
       7        0.000109140482     0.000074207698    -0.000006117139
       8       -0.000106773537     0.000062378473     0.000001606579
       9        0.000008976339    -0.000084917314    -0.000131029586
      10        0.000002831190     0.000003429208    -0.000004155872
      11       -0.000020917458    -0.000008531612    -0.000006749562
      12       -0.000010415352     0.000082404923     0.000069640659
      13       -0.000011985980    -0.000007616302     0.000004325210
      14       -0.000006988622    -0.000013411226     0.000002836282
      15        0.000005741607     0.000007472997     0.000005646995
      16        0.000003797737     0.000009816141    -0.000006805793

  **** Optimization is complete! (in 8 steps) ****
    Final optimized geometry and variables:
    Molecular point group: c1

    Geometry (in Angstrom), charge = 0, multiplicity = 1:

    H           -1.646360251785    -2.514704130957     0.110584434490
    C           -1.267739684611    -1.509811935374     0.123100820891
    N            0.012812335970    -1.343996596768    -0.103558940042
    C           -2.107019150662    -0.438878352898     0.368926532675
    C            0.490900917913    -0.112195768049    -0.091062837409
    H           -3.154293058689    -0.584632712991     0.553094160775
    N           -1.647601971154     0.789735104441     0.383378110332
    C           -0.361410665785     0.954568870275     0.155588102102
    C            1.971501799130     0.028898158814    -0.352385204361
    H            0.001066385629     1.962378470195     0.169117610113
    C            2.519191474580     1.449228092636    -0.418308501621
    H            2.490297818103    -0.526574211827     0.421497030400
    H            2.183848798887    -0.489995454539    -1.280085814413
    H            3.581803297835     1.421611576047    -0.623949555829
    H            2.381417520515     1.979495604206     0.516853028630
    H            2.047500866780     2.026457329683    -1.205275212323

  Mulliken Charges: (a.u.)
   Center  Symbol    Alpha    Beta     Spin     Total
       1     H     0.41365  0.41365  0.00000  0.17270
       2     C     3.04263  3.04263  0.00000 -0.08526
       3     N     3.59478  3.59478  0.00000 -0.18957
       4     C     3.04898  3.04898  0.00000 -0.09796
       5     C     2.95373  2.95373  0.00000  0.09254
       6     H     0.41431  0.41431  0.00000  0.17138
       7     N     3.58843  3.58843  0.00000 -0.17687
       8     C     3.07639  3.07639  0.00000 -0.15278
       9     C     3.05857  3.05857  0.00000 -0.11715
      10     H     0.41203  0.41203  0.00000  0.17593
      11     C     3.16511  3.16511  0.00000 -0.33022
      12     H     0.44463  0.44463  0.00000  0.11074
      13     H     0.44409  0.44409  0.00000  0.11183
      14     H     0.44208  0.44208  0.00000  0.11584
      15     H     0.45091  0.45091  0.00000  0.09818
      16     H     0.44967  0.44967  0.00000  0.10067

   Total alpha = 29.00000, Total beta = 29.00000, Total charge =  0.00000
