  ==> Input File <==

--------------------------------------------------------------------------
set {
	reference rhf
	basis 6-31G*
}

set_num_threads( 4 )
memory 2 gb

molecule MOL {
0 1

H	 -3.407059	 -1.043082	 0.000000
O	 -3.119761	 -0.140267	 0.000000
C	 -1.777559	 -0.059267	 0.000000
C	 -0.991841	 -0.770310	 -0.902256
C	 -1.188063	 0.770877	 0.945210
H	 -1.456714	 -1.411528	 -1.631669
C	 0.381018	 -0.648237	 -0.855598
H	 -1.815417	 1.308869	 1.630238
C	 0.186277	 0.882499	 0.979330
H	 0.999427	 -1.190962	 -1.545612
C	 0.986566	 0.178878	 0.084857
H	 0.643602	 1.525675	 1.711614
C	 2.456216	 0.308415	 0.133447
O	 3.212313	 -0.257353	 -0.593864
H	 2.834995	 0.982862	 0.908570

	symmetry c1
}
set optking {
	frozen_dihedral = ("
		5 3 2 1
	")
}

ee = optimize('scf')
oeprop('DIPOLE', 'QUADRUPOLE', 'MULLIKEN_CHARGES')
f=open( 'psi4out.xyz', 'w' )
f.write( "15  " )
f.write( str(ee) + "\n" )
f.write( MOL.save_string_xyz() )
f.close()
--------------------------------------------------------------------------

    Molecular point group: c1
  Charge       = 0
  Multiplicity = 1
  Basis Set: 6-31G*
  Basis Set:
  @DF-RHF Final Energy:  -418.28611346331098
    Total Energy =                       -418.2861134633108122
    Molecular point group: c1
  Basis Set: 6-31G*
  Basis Set:
  Basis Set: 6-31G*
  Basis Set:
  @DF-RHF Final Energy:  -418.28636167371508
    Total Energy =                       -418.2863616737148504
  Basis Set: 6-31G*
  Basis Set:
  Basis Set: 6-31G*
  Basis Set:
  @DF-RHF Final Energy:  -418.28634726268706
    Total Energy =                       -418.2863472626868315
  Basis Set: 6-31G*
  Basis Set:
  Basis Set: 6-31G*
  Basis Set:
  @DF-RHF Final Energy:  -418.28623597375167
    Total Energy =                       -418.2862359737519000
  Basis Set: 6-31G*
  Basis Set:
  Basis Set: 6-31G*
  Basis Set:
  @DF-RHF Final Energy:  -418.28639569966896
    Total Energy =                       -418.2863956996689012
  Basis Set: 6-31G*
  Basis Set:
  Charge       = 0
  Multiplicity = 1
  Basis Set: 6-31G*
  Basis Set:

    Orbital Energies (a.u.)
    -----------------------

    Doubly Occupied:

       1A    -20.599938     2A    -20.559014     3A    -11.330195
       4A    -11.317260     5A    -11.260387     6A    -11.255089
       7A    -11.243574     8A    -11.242617     9A    -11.240842
      10A     -1.418813    11A     -1.400098    12A     -1.170702
      13A     -1.041427    14A     -1.037634    15A     -0.887358
      16A     -0.862068    17A     -0.795204    18A     -0.753234
      19A     -0.711175    20A     -0.665834    21A     -0.647219
      22A     -0.629573    23A     -0.616831    24A     -0.607332
      25A     -0.562671    26A     -0.553002    27A     -0.544553
      28A     -0.501275    29A     -0.483504    30A     -0.420816
      31A     -0.356292    32A     -0.334805

  @DF-RHF Final Energy:  -418.28639632246995

   => Energetics <=

    Nuclear Repulsion Energy =            401.0077792463132482
    One-Electron Energy =               -1364.4876733611895361
    Two-Electron Energy =                 545.1934977924064469
    DFT Exchange-Correlation Energy =       0.0000000000000000
    Empirical Dispersion Energy =           0.0000000000000000
    PCM Polarization Energy =               0.0000000000000000
    EFP Energy =                            0.0000000000000000
    Total Energy =                       -418.2863963224698409
    Molecular point group: c1
  Basis Set: 6-31G*
  Basis Set:

  -Total Gradient:
     Atom            X                  Y                   Z
    ------   -----------------  -----------------  -----------------
       1       -0.000080116149    -0.000005395734     0.003375181083
       2        0.000083346291    -0.000920064076    -0.003439760008
       3       -0.000088258919     0.002721453068    -0.001643869064
       4       -0.000137624738    -0.000005759019     0.000074135144
       5        0.000189453523    -0.001811267824     0.001628755195
       6        0.000004765843     0.000002478415    -0.000006732460
       7        0.000105437139     0.000081964101     0.000042185803
       8       -0.000001282934    -0.000006252243    -0.000012071716
       9       -0.000081837003    -0.000001224826     0.000072622755
      10       -0.000008817186    -0.000004475695    -0.000001343246
      11        0.000007487231    -0.000072607342    -0.000088321286
      12        0.000014908741     0.000004611620    -0.000007935425
      13        0.000009094490     0.000037647062    -0.000005706856
      14       -0.000011425227    -0.000014400059     0.000005206585
      15       -0.000005131092    -0.000006707446     0.000007653494

  **** Optimization is complete! (in 6 steps) ****
    Final optimized geometry and variables:
    Molecular point group: c1

    Geometry (in Angstrom), charge = 0, multiplicity = 1:

    H           -3.406436512240    -1.062786544589     0.009699276247
    O           -3.127774253713    -0.156953023147     0.013933484141
    C           -1.773115353118    -0.071130307058     0.038055902144
    C           -0.991456335866    -0.785092111471    -0.864796600152
    C           -1.184198714348     0.753660825169     0.982485563944
    H           -1.466614122051    -1.413143587452    -1.597325920910
    C            0.381275776950    -0.667145538353    -0.820642886058
    H           -1.809772789302     1.287915994491     1.672202761779
    C            0.193202784973     0.874718900069     1.009292933458
    H            0.999700833802    -1.210042790986    -1.510438498500
    C            0.986653432701     0.166774873517     0.116246432744
    H            0.653374693680     1.518209434757     1.739431403686
    C            2.458679386120     0.297763934511     0.162326818818
    O            3.212540824806    -0.276676791861    -0.559624890802
    H            2.838568151718     0.980326195660     0.929374385073

  Mulliken Charges: (a.u.)
   Center  Symbol    Alpha    Beta     Spin     Total
       1     H     0.26890  0.26890  0.00000  0.46221
       2     O     4.38106  4.38106  0.00000 -0.76211
       3     C     2.79817  2.79817  0.00000  0.40366
       4     C     3.13435  3.13435  0.00000 -0.26871
       5     C     3.12405  3.12405  0.00000 -0.24811
       6     H     0.39304  0.39304  0.00000  0.21392
       7     C     3.08175  3.08175  0.00000 -0.16349
       8     H     0.38692  0.38692  0.00000  0.22617
       9     C     3.09614  3.09614  0.00000 -0.19227
      10     H     0.37483  0.37483  0.00000  0.25034
      11     C     3.06386  3.06386  0.00000 -0.12772
      12     H     0.38984  0.38984  0.00000  0.22031
      13     C     2.83065  2.83065  0.00000  0.33870
      14     O     4.25256  4.25256  0.00000 -0.50513
      15     H     0.42388  0.42388  0.00000  0.15224

   Total alpha = 32.00000, Total beta = 32.00000, Total charge = -0.00000
