  ==> Input File <==

--------------------------------------------------------------------------
set {
	reference rhf
	basis 6-31G*
}

set_num_threads( 4 )
memory 2 gb

molecule MOL {
0 1

H	 2.591676	 2.013956	 0.335017
O	 3.341076	 1.666752	 -0.126416
C	 3.569581	 0.339145	 0.272707
C	 2.539767	 -0.640285	 -0.279495
H	 4.553106	 0.084646	 -0.100901
H	 3.608576	 0.269204	 1.359154
C	 1.115811	 -0.397273	 0.226630
H	 2.556196	 -0.582511	 -1.364741
H	 2.852081	 -1.648031	 -0.010655
C	 0.393973	 0.709435	 -0.547298
H	 1.150958	 -0.138826	 1.281303
H	 0.541392	 -1.320491	 0.148838
C	 -1.065802	 0.935241	 -0.136923
H	 0.946482	 1.640998	 -0.438798
H	 0.419626	 0.464001	 -1.606923
C	 -1.259886	 1.478023	 1.281596
H	 -1.514158	 1.634258	 -0.839894
H	 -1.617885	 0.002856	 -0.245093
C	 -2.722977	 1.786149	 1.606961
H	 -0.667345	 2.383620	 1.403663
H	 -0.880827	 0.765396	 2.010142
C	 -2.920285	 2.322055	 3.024543
H	 -3.106036	 2.510332	 0.891201
H	 -3.318188	 0.884764	 1.476139
H	 -2.363013	 3.242076	 3.176966
H	 -3.966520	 2.532537	 3.223854
H	 -2.580518	 1.604536	 3.766222

	symmetry c1
}
set optking {
	frozen_dihedral = ("
		10 7 4 8
	")
}

ee = optimize('scf')
oeprop('DIPOLE', 'QUADRUPOLE', 'MULLIKEN_CHARGES')
f=open( 'psi4out.xyz', 'w' )
f.write( "27  " )
f.write( str(ee) + "\n" )
f.write( MOL.save_string_xyz() )
f.close()
--------------------------------------------------------------------------

    Molecular point group: c1
  Charge       = 0
  Multiplicity = 1
  Basis Set: 6-31G*
  Basis Set:
  @DF-RHF Final Energy:  -388.27609557783205
    Total Energy =                       -388.2760955778325069
    Molecular point group: c1
  Basis Set: 6-31G*
  Basis Set:
  Basis Set: 6-31G*
  Basis Set:
  @DF-RHF Final Energy:  -388.27784255103597
    Total Energy =                       -388.2778425510363149
  Basis Set: 6-31G*
  Basis Set:
  Basis Set: 6-31G*
  Basis Set:
  @DF-RHF Final Energy:  -388.27804509603493
    Total Energy =                       -388.2780450960348162
  Basis Set: 6-31G*
  Basis Set:
  Basis Set: 6-31G*
  Basis Set:
  @DF-RHF Final Energy:  -388.27790576392584
    Total Energy =                       -388.2779057639252187
  Basis Set: 6-31G*
  Basis Set:
  Basis Set: 6-31G*
  Basis Set:
  @DF-RHF Final Energy:  -388.27807473311879
    Total Energy =                       -388.2780747331186149
  Basis Set: 6-31G*
  Basis Set:
  Basis Set: 6-31G*
  Basis Set:
  @DF-RHF Final Energy:  -388.27807854883616
    Total Energy =                       -388.2780785488362199
  Basis Set: 6-31G*
  Basis Set:
  Charge       = 0
  Multiplicity = 1
  Basis Set: 6-31G*
  Basis Set:

    Orbital Energies (a.u.)
    -----------------------

    Doubly Occupied:

       1A    -20.552700     2A    -11.267567     3A    -11.219114
       4A    -11.216591     5A    -11.215722     6A    -11.215463
       7A    -11.215374     8A    -11.214773     9A    -11.210053
      10A     -1.359382    11A     -1.093971    12A     -1.060182
      13A     -1.011990    14A     -0.948724    15A     -0.888622
      16A     -0.821945    17A     -0.800437    18A     -0.776105
      19A     -0.699140    20A     -0.647906    21A     -0.635998
      22A     -0.616745    23A     -0.594563    24A     -0.582959
      25A     -0.571932    26A     -0.556178    27A     -0.546312
      28A     -0.529082    29A     -0.515371    30A     -0.494843
      31A     -0.490002    32A     -0.473053    33A     -0.467093
      34A     -0.458685    35A     -0.448375    36A     -0.439910
      37A     -0.421004

  @DF-RHF Final Energy:  -388.27807885661679

   => Energetics <=

    Nuclear Repulsion Energy =            466.7226679693765732
    One-Electron Energy =               -1451.4457621144820223
    Two-Electron Energy =                 596.4450152884880936
    DFT Exchange-Correlation Energy =       0.0000000000000000
    Empirical Dispersion Energy =           0.0000000000000000
    PCM Polarization Energy =               0.0000000000000000
    EFP Energy =                            0.0000000000000000
    Total Energy =                       -388.2780788566174124
    Molecular point group: c1
  Basis Set: 6-31G*
  Basis Set:

  -Total Gradient:
     Atom            X                  Y                   Z
    ------   -----------------  -----------------  -----------------
       1       -0.000016324592     0.000055284052    -0.000020786761
       2       -0.000115030749     0.000110561860     0.000030694585
       3        0.000108384710    -0.000070126270    -0.000083691221
       4        0.000113326012     0.000498642490     0.000078647811
       5        0.000003503878    -0.000093467675     0.000023723393
       6       -0.000023315794    -0.000023110288    -0.000024855719
       7       -0.000156727693    -0.000266677100    -0.000144993830
       8       -0.000004177065    -0.000323350028    -0.000002330016
       9       -0.000007292432     0.000001938510    -0.000004206460
      10        0.000022884733     0.000159120555     0.000165875279
      11       -0.000008294420    -0.000003114575     0.000012908116
      12       -0.000026297505     0.000033421751    -0.000013244333
      13        0.000036255602    -0.000138794920     0.000015985051
      14        0.000059676397    -0.000025259815     0.000031744166
      15       -0.000010521403     0.000001745599    -0.000031503901
      16        0.000013756137     0.000044081250    -0.000011526372
      17        0.000055899025     0.000010586044     0.000018357383
      18       -0.000036098953    -0.000016409893    -0.000031237935
      19        0.000000099443     0.000014179997    -0.000001953917
      20       -0.000002181923     0.000025649182    -0.000016375607
      21        0.000004891792     0.000027727456    -0.000007088886
      22       -0.000006663412    -0.000038740361     0.000013332694
      23        0.000004410995     0.000019971268     0.000017938907
      24       -0.000008531693     0.000006702722    -0.000020591121
      25       -0.000005948924    -0.000003675706    -0.000011568026
      26       -0.000001773296    -0.000010545000     0.000006825944
      27        0.000006091125     0.000003658894     0.000009920774

  **** Optimization is complete! (in 7 steps) ****
    Final optimized geometry and variables:
    Molecular point group: c1

    Geometry (in Angstrom), charge = 0, multiplicity = 1:

    H            2.475725133122     1.130166206873    -0.199991312855
    O            3.132024834138     0.699013209221    -0.726668123851
    C            3.248303775331    -0.645190905568    -0.333589567171
    C            2.157308531934    -1.560601718049    -0.881213592956
    H            4.209433580935    -0.978922727813    -0.704280905213
    H            3.279994829790    -0.720385584970     0.752536900943
    C            0.729204609014    -1.278220246753    -0.384941123069
    H            2.184108918208    -1.531556173751    -1.967405288588
    H            2.430872356365    -2.574038954915    -0.593016135630
    C           -0.019958612676    -0.183347323208    -1.156023719296
    H            0.761546369947    -1.043701956332     0.677544965742
    H            0.150085553097    -2.195230703601    -0.466991857252
    C           -1.480948263540     0.000880661337    -0.729274964792
    H            0.498164655326     0.767438269843    -1.076315702213
    H            0.001021170583    -0.439713951195    -2.212634510814
    C           -1.673943823387     0.570692835524     0.678922293569
    H           -1.963548745579     0.667351663934    -1.441019863523
    H           -2.001572106386    -0.952370930445    -0.806888256650
    C           -3.142909334156     0.823667443522     1.024740187256
    H           -1.120839975164     1.505428518475     0.766590346732
    H           -1.250884766865    -0.105428025289     1.417941599789
    C           -3.338435258231     1.381308468088     2.434142791895
    H           -3.569144117168     1.514898438330     0.300931212881
    H           -3.700551507489    -0.105066274155     0.923959026449
    H           -2.820488872739     2.328476256856     2.556490358827
    H           -4.389253543714     1.549565305260     2.648694275555
    H           -2.953726854395     0.695975139047     3.184276659390

  Mulliken Charges: (a.u.)
   Center  Symbol    Alpha    Beta     Spin     Total
       1     H     0.27895  0.27895  0.00000  0.44210
       2     O     4.36968  4.36968  0.00000 -0.73935
       3     C     2.99759  2.99759  0.00000  0.00482
       4     C     3.16332  3.16332  0.00000 -0.32664
       5     H     0.41541  0.41541  0.00000  0.16918
       6     H     0.43233  0.43233  0.00000  0.13534
       7     C     3.16479  3.16479  0.00000 -0.32957
       8     H     0.41521  0.41521  0.00000  0.16958
       9     H     0.42260  0.42260  0.00000  0.15480
      10     C     3.15167  3.15167  0.00000 -0.30335
      11     H     0.42466  0.42466  0.00000  0.15069
      12     H     0.41894  0.41894  0.00000  0.16212
      13     C     3.15421  3.15421  0.00000 -0.30842
      14     H     0.42632  0.42632  0.00000  0.14735
      15     H     0.41854  0.41854  0.00000  0.16292
      16     C     3.15272  3.15272  0.00000 -0.30543
      17     H     0.42076  0.42076  0.00000  0.15848
      18     H     0.42376  0.42376  0.00000  0.15248
      19     C     3.15100  3.15100  0.00000 -0.30199
      20     H     0.42717  0.42717  0.00000  0.14567
      21     H     0.42275  0.42275  0.00000  0.15450
      22     C     3.23929  3.23929  0.00000 -0.47859
      23     H     0.42255  0.42255  0.00000  0.15491
      24     H     0.42269  0.42269  0.00000  0.15463
      25     H     0.42200  0.42200  0.00000  0.15600
      26     H     0.41893  0.41893  0.00000  0.16214
      27     H     0.42218  0.42218  0.00000  0.15565

   Total alpha = 37.00000, Total beta = 37.00000, Total charge = -0.00000
