  ==> Input File <==

--------------------------------------------------------------------------
set {
	reference rhf
	basis 6-31G*
}

set_num_threads( 4 )
memory 2 gb

molecule MOL {
0 1

H	 1.992140	 0.213700	 0.462608
C	 1.153677	 0.235170	 -0.219905
O	 0.000000	 0.000000	 0.521119
H	 1.122299	 1.207639	 -0.708791
H	 1.300483	 -0.528304	 -0.982298
C	 -1.165642	 0.000000	 -0.238270
H	 -1.228672	 0.883184	 -0.872070
H	 -2.003012	 0.000000	 0.445920
H	 -1.228672	 -0.883184	 -0.872070

	symmetry c1
}
set optking {
	frozen_dihedral = ("
		2 3 6 7
	")
}

ee = optimize('scf')
oeprop('DIPOLE', 'QUADRUPOLE', 'MULLIKEN_CHARGES')
f=open( 'psi4out.xyz', 'w' )
f.write( "9  " )
f.write( str(ee) + "\n" )
f.write( MOL.save_string_xyz() )
f.close()
--------------------------------------------------------------------------

    Molecular point group: c1
  Charge       = 0
  Multiplicity = 1
  Basis Set: 6-31G*
  Basis Set:
  @DF-RHF Final Energy:  -154.06431872482818
    Total Energy =                       -154.0643187248281833
    Molecular point group: c1
  Basis Set: 6-31G*
  Basis Set:
  Basis Set: 6-31G*
  Basis Set:
  @DF-RHF Final Energy:  -154.06433134504488
    Total Energy =                       -154.0643313450448773
  Basis Set: 6-31G*
  Basis Set:
  Charge       = 0
  Multiplicity = 1
  Basis Set: 6-31G*
  Basis Set:

    Orbital Energies (a.u.)
    -----------------------

    Doubly Occupied:

       1A    -20.556088     2A    -11.265361     3A    -11.265283
       4A     -1.379146     5A     -0.974869     6A     -0.873081
       7A     -0.661223     8A     -0.654358     9A     -0.645239
      10A     -0.551854    11A     -0.529956    12A     -0.474994
      13A     -0.416782

  @DF-RHF Final Energy:  -154.06433386176286

   => Energetics <=

    Nuclear Repulsion Energy =             84.7489142109867259
    One-Electron Energy =                -377.1300261873882391
    Two-Electron Energy =                 138.3167781146386801
    DFT Exchange-Correlation Energy =       0.0000000000000000
    Empirical Dispersion Energy =           0.0000000000000000
    PCM Polarization Energy =               0.0000000000000000
    EFP Energy =                            0.0000000000000000
    Total Energy =                       -154.0643338617628046
    Molecular point group: c1
  Basis Set: 6-31G*
  Basis Set:

  -Total Gradient:
     Atom            X                  Y                   Z
    ------   -----------------  -----------------  -----------------
       1       -0.000028742493    -0.000012013606     0.000018415392
       2       -0.000158988221     0.001327839539     0.000156696659
       3        0.000443865908    -0.002095192771    -0.000578318776
       4        0.000001276393     0.000000397638     0.000002041479
       5        0.000003687260    -0.000000475569     0.000006360247
       6       -0.001034251595     0.001610174705     0.001613278838
       7        0.000784080354    -0.000857598433    -0.001247551642
       8        0.000003130230    -0.000009641025     0.000031191783
       9       -0.000014057836     0.000036509521    -0.000002113980

  **** Optimization is complete! (in 3 steps) ****
    Final optimized geometry and variables:
    Molecular point group: c1

    Geometry (in Angstrom), charge = 0, multiplicity = 1:

    H            1.996457419033     0.130120101242     0.455943637339
    C            1.158615739697     0.151980153914    -0.227279931652
    O            0.004509191319    -0.078813271849     0.514597333130
    H            1.128310814498     1.123573482935    -0.717440388976
    H            1.305983605054    -0.612878672907    -0.988367444546
    C           -1.163128299741    -0.079900120761    -0.242798175607
    H           -1.227761697441     0.800334236704    -0.880050607594
    H           -2.000884920872    -0.087773586924     0.440654348387
    H           -1.219939079362    -0.960796349696    -0.880633164384

  Mulliken Charges: (a.u.)
   Center  Symbol    Alpha    Beta     Spin     Total
       1     H     0.41176  0.41176  0.00000  0.17647
       2     C     3.08032  3.08032  0.00000 -0.16064
       3     O     4.29542  4.29542  0.00000 -0.59084
       4     H     0.42988  0.42988  0.00000  0.14023
       5     H     0.43045  0.43045  0.00000  0.13909
       6     C     3.07997  3.07997  0.00000 -0.15995
       7     H     0.43107  0.43107  0.00000  0.13787
       8     H     0.41187  0.41187  0.00000  0.17626
       9     H     0.42925  0.42925  0.00000  0.14149

   Total alpha = 13.00000, Total beta = 13.00000, Total charge =  0.00000
