                              Psi4 1.0.54 Driver

  ==> Input File <==

--------------------------------------------------------------------------
set {
	reference rhf
	basis cc-pvtz
}

set_num_threads( 4 )
memory 2 gb

molecule MOL {
0 1

H	 -2.543956	 -0.781976	 -0.207125
O	 -2.321081	 -0.207601	 0.502326
C	 -1.171029	 0.526351	 0.187947
C	 0.074189	 -0.335341	 0.256591
H	 -1.244471	 0.981778	 -0.794560
H	 -1.097324	 1.323494	 0.913765
O	 1.172093	 0.457955	 -0.054438
H	 -0.008890	 -1.166070	 -0.446178
H	 0.167948	 -0.759829	 1.253884
C	 2.395478	 -0.199028	 -0.000366
H	 2.505946	 -0.901710	 -0.823354
H	 3.174616	 0.545641	 -0.071768
H	 2.513730	 -0.742241	 0.934223

	symmetry c1
}
set optking {
	frozen_dihedral = ("
		4 7 10 13
	")
}

ee,wfn = optimize('scf', return_wfn=True)
oeprop( wfn, 'DIPOLE', 'QUADRUPOLE', 'MULLIKEN_CHARGES')
f=open( 'psi4out.xyz', 'w' )
f.write( "13  " )
f.write( str(ee) + "\n" )
f.write( MOL.save_string_xyz() )
f.close()
--------------------------------------------------------------------------

    Molecular point group: c1
  Charge       = 0
  Multiplicity = 1
  Basis Set: CC-PVTZ
  Basis Set:
  @DF-RHF Final Energy:  -268.06203816599827
    Total Energy =                       -268.0620381659982172
    Molecular point group: c1
  Basis Set: CC-PVTZ
  Basis Set:
  Basis Set: CC-PVTZ
  Basis Set:
  @DF-RHF Final Energy:  -268.06204867848794
    Total Energy =                       -268.0620486784879972
  Basis Set: CC-PVTZ
  Basis Set:
  Charge       = 0
  Multiplicity = 1
  Basis Set: CC-PVTZ
  Basis Set:

    Orbital Energies (a.u.)
    -----------------------

    Doubly Occupied:

       1A    -20.555858     2A    -20.552903     3A    -11.269400
       4A    -11.267828     5A    -11.267501     6A     -1.391812
       7A     -1.369251     8A     -1.019766     9A     -0.914063
      10A     -0.842916    11A     -0.712160    12A     -0.676065
      13A     -0.663013    14A     -0.639823    15A     -0.597196
      16A     -0.571864    17A     -0.546602    18A     -0.492072
      19A     -0.483236    20A     -0.441730    21A     -0.424247

  @DF-RHF Final Energy:  -268.06205063037476

   => Energetics <=

    Nuclear Repulsion Energy =            190.4833338556855153
    One-Electron Energy =                -743.6921567390184009
    Two-Electron Energy =                 285.1467722529582716
    DFT Exchange-Correlation Energy =       0.0000000000000000
    Empirical Dispersion Energy =           0.0000000000000000
    PCM Polarization Energy =               0.0000000000000000
    EFP Energy =                            0.0000000000000000
    Total Energy =                       -268.0620506303746424
    Molecular point group: c1
  Basis Set: CC-PVTZ
  Basis Set:

  -Total Gradient:
     Atom            X                  Y                   Z
    ------   -----------------  -----------------  -----------------
       1       -0.000007536965    -0.000007220651    -0.000002006623
       2        0.000029392315    -0.000009855300    -0.000019794539
       3        0.000019827361     0.000034417367    -0.000000169096
       4        0.000089386795     0.000236259971     0.001170860402
       5       -0.000016567637     0.000002213350    -0.000003319025
       6        0.000012553330     0.000002873118    -0.000002921919
       7       -0.000351917371    -0.000692472630    -0.001777136710
       8       -0.000002277355     0.000006830464    -0.000006529948
       9        0.000007226416     0.000002567656    -0.000009172864
      10        0.000797411861     0.001565000358     0.001263602342
      11        0.000007578238     0.000007770488     0.000032173051
      12        0.000006770625     0.000027366367    -0.000009897361
      13       -0.000591847610    -0.001175750557    -0.000635687711

  **** Optimization is complete! (in 3 steps) ****
    Final optimized geometry and variables:
    Molecular point group: c1

    Geometry (in Angstrom), charge = 0, multiplicity = 1:

    H           -2.552324153429    -0.815483166136    -0.383267394678
    O           -2.330888950093    -0.239283022599     0.325180265549
    C           -1.180511556917     0.494209386245     0.010954724934
    C            0.064515274387    -0.367445974850     0.082755629536
    H           -1.252988882169     0.948137533182    -0.972304244816
    H           -1.107287112596     1.292416264720     0.735673757123
    O            1.163011269538     0.427023238925    -0.222816530439
    H           -0.017411197087    -1.197646611000    -0.621102358039
    H            0.156055007286    -0.792577902382     1.079705095019
    C            2.387675227954    -0.228976039982    -0.175011343503
    H            2.491147032793    -0.932122914680    -0.998772591017
    H            3.167749001104     0.514083841312    -0.251187833582
    H            2.508463258642    -0.779352259923     0.754705758499

  Mulliken Charges: (a.u.)
   Center  Symbol    Alpha    Beta     Spin     Total
       1     H     0.39411  0.39411  0.00000  0.21178
       2     O     4.20211  4.20211  0.00000 -0.40421
       3     C     2.97352  2.97352  0.00000  0.05296
       4     C     2.96527  2.96527  0.00000  0.06946
       5     H     0.46666  0.46666  0.00000  0.06668
       6     H     0.45276  0.45276  0.00000  0.09448
       7     O     4.17578  4.17578  0.00000 -0.35155
       8     H     0.48288  0.48288  0.00000  0.03424
       9     H     0.46860  0.46860  0.00000  0.06279
      10     C     3.03160  3.03160  0.00000 -0.06320
      11     H     0.46918  0.46918  0.00000  0.06164
      12     H     0.44609  0.44609  0.00000  0.10782
      13     H     0.47144  0.47144  0.00000  0.05711

   Total alpha = 21.00000, Total beta = 21.00000, Total charge =  0.00000

*** Psi4 exiting successfully. Buy a developer a beer!
