  ==> Input File <==

--------------------------------------------------------------------------
set {
	reference rhf
	basis 6-31G*
}

set_num_threads( 4 )
memory 2 gb

molecule MOL {
0 1

H	 0.047796	 1.258445	 -1.110688
O	 0.055946	 1.300438	 -0.164479
C	 0.004957	 -0.004114	 0.366649
C	 1.201664	 -0.828089	 -0.095740
C	 -1.317755	 -0.601827	 -0.081511
H	 0.013527	 0.048298	 1.454924
H	 1.216388	 -0.895289	 -1.178704
H	 2.135132	 -0.372895	 0.226467
H	 1.166770	 -1.832878	 0.313827
H	 -1.355732	 -0.658248	 -1.164429
H	 -2.141614	 0.017037	 0.254547
H	 -1.447303	 -1.600817	 0.322594

	symmetry c1
}
set optking {
	frozen_dihedral = ("
		1 2 3 4
	")
}

ee = optimize('scf')
oeprop('DIPOLE', 'QUADRUPOLE', 'MULLIKEN_CHARGES')
f=open( 'psi4out.xyz', 'w' )
f.write( "12  " )
f.write( str(ee) + "\n" )
f.write( MOL.save_string_xyz() )
f.close()
--------------------------------------------------------------------------

    Molecular point group: c1
  Charge       = 0
  Multiplicity = 1
  Basis Set: 6-31G*
  Basis Set:
  @DF-RHF Final Energy:  -193.11279413218986
    Total Energy =                       -193.1127941321898334
    Molecular point group: c1
  Basis Set: 6-31G*
  Basis Set:
  Basis Set: 6-31G*
  Basis Set:
  @DF-RHF Final Energy:  -193.11452838203596
    Total Energy =                       -193.1145283820359850
  Basis Set: 6-31G*
  Basis Set:
  Basis Set: 6-31G*
  Basis Set:
  @DF-RHF Final Energy:  -193.11495019111302
    Total Energy =                       -193.1149501911130528
  Basis Set: 6-31G*
  Basis Set:
  Basis Set: 6-31G*
  Basis Set:
  @DF-RHF Final Energy:  -193.11495296435879
    Total Energy =                       -193.1149529643588494
  Basis Set: 6-31G*
  Basis Set:
  Charge       = 0
  Multiplicity = 1
  Basis Set: 6-31G*
  Basis Set:

    Orbital Energies (a.u.)
    -----------------------

    Doubly Occupied:

       1A    -20.551219     2A    -11.275579     3A    -11.213392
       4A    -11.212266     5A     -1.360705     6A     -1.041644
       7A     -0.941381     8A     -0.818990     9A     -0.661556
      10A     -0.642801    11A     -0.601391    12A     -0.576077
      13A     -0.545405    14A     -0.516248    15A     -0.510105
      16A     -0.465794    17A     -0.430471

  @DF-RHF Final Energy:  -193.11495319350155

   => Energetics <=

    Nuclear Repulsion Energy =            135.3576790334919338
    One-Electron Energy =                -530.2152171103605269
    Two-Electron Energy =                 201.7425848833671864
    DFT Exchange-Correlation Energy =       0.0000000000000000
    Empirical Dispersion Energy =           0.0000000000000000
    PCM Polarization Energy =               0.0000000000000000
    EFP Energy =                            0.0000000000000000
    Total Energy =                       -193.1149531935014068
    Molecular point group: c1
  Basis Set: 6-31G*
  Basis Set:

  -Total Gradient:
     Atom            X                  Y                   Z
    ------   -----------------  -----------------  -----------------
       1        0.000296075621    -0.000038412906     0.000030609353
       2       -0.000394438065     0.000021793310    -0.000086172913
       3        0.000182754695     0.000060230565     0.000166518791
       4       -0.000092833421    -0.000021976164    -0.000132951104
       5       -0.000013136707     0.000022547224    -0.000009923045
       6        0.000002122560    -0.000027957484     0.000002441231
       7       -0.000016841284     0.000008005348     0.000019169609
       8        0.000013831012    -0.000005354038    -0.000015815171
       9        0.000008043379    -0.000007797592     0.000006038982
      10        0.000009372616     0.000007893240     0.000018258568
      11        0.000008065391    -0.000003351744    -0.000007387560
      12       -0.000003015797    -0.000015619761     0.000009213260

  **** Optimization is complete! (in 5 steps) ****
    Final optimized geometry and variables:
    Molecular point group: c1

    Geometry (in Angstrom), charge = 0, multiplicity = 1:

    H            0.139472722276     1.329150579998    -1.053673885202
    O            0.103846856080     1.330603210067    -0.106232569951
    C            0.003347955791     0.003967178020     0.357481423879
    C            1.204770105023    -0.822191591234    -0.088322996508
    C           -1.322454831023    -0.620003286984    -0.064308598934
    H            0.020431267148     0.091466342792     1.437134784493
    H            1.223385196566    -0.922553305401    -1.171744308489
    H            2.126813532669    -0.343902310110     0.222474187428
    H            1.174035176554    -1.821114506421     0.335505935373
    H           -1.378180778654    -0.712518923574    -1.146972653723
    H           -2.149780594642    -0.001297997193     0.264277749148
    H           -1.442913152583    -1.612137584404     0.359874354088

  Mulliken Charges: (a.u.)
   Center  Symbol    Alpha    Beta     Spin     Total
       1     H     0.28525  0.28525  0.00000  0.42950
       2     O     4.37095  4.37095  0.00000 -0.74190
       3     C     2.91731  2.91731  0.00000  0.16537
       4     C     3.24846  3.24846  0.00000 -0.49691
       5     C     3.24645  3.24645  0.00000 -0.49290
       6     H     0.41544  0.41544  0.00000  0.16911
       7     H     0.42742  0.42742  0.00000  0.14517
       8     H     0.41022  0.41022  0.00000  0.17956
       9     H     0.41995  0.41995  0.00000  0.16010
      10     H     0.42740  0.42740  0.00000  0.14519
      11     H     0.41026  0.41026  0.00000  0.17948
      12     H     0.42089  0.42089  0.00000  0.15822

   Total alpha = 17.00000, Total beta = 17.00000, Total charge = -0.00000
