  ==> Input File <==

--------------------------------------------------------------------------
set {
	reference rhf
	basis 6-31G*
}

set_num_threads( 1 )
memory 2 gb

molecule MOL {
0 1

H	 3.522102	 -1.120804	 2.548854
C	 3.120329	 -1.154897	 1.541299
C	 1.817019	 -0.363431	 1.441660
H	 3.875629	 -0.753228	 0.871664
H	 2.970045	 -2.198952	 1.281281
C	 1.217350	 -0.386724	 0.039429
H	 1.983087	 0.669985	 1.729517
H	 1.094469	 -0.769530	 2.147633
N	 0.000003	 0.397874	 -0.023260
H	 1.928171	 0.042578	 -0.661568
H	 1.061173	 -1.424100	 -0.274954
C	 -1.217365	 -0.386708	 0.039277
H	 -0.000031	 1.072115	 0.718656
C	 -2.452633	 0.504241	 -0.042481
H	 -1.215291	 -1.074557	 -0.802042
H	 -1.269739	 -1.003477	 0.942735
C	 -3.758029	 -0.289423	 -0.010781
H	 -2.394220	 1.093569	 -0.952170
H	 -2.440793	 1.210787	 0.785871
H	 -3.816659	 -0.981993	 -0.845726
H	 -4.617837	 0.370165	 -0.069296
H	 -3.847478	 -0.867502	 0.904682

	symmetry c1
}
set optking {
	frozen_dihedral = ("
		15 12 14 18
	")
}

ee = energy('scf')
oeprop('DIPOLE', 'QUADRUPOLE', 'MULLIKEN_CHARGES')
f=open( 'psi4out.xyz', 'w' )
f.write( "22  " )
f.write( str(ee) + "\n" )
f.write( MOL.save_string_xyz() )
f.close()
--------------------------------------------------------------------------

    Molecular point group: c1

    Geometry (in Angstrom), charge = 0, multiplicity = 1:

       Center              X                  Y                   Z               Mass
    ------------   -----------------  -----------------  -----------------  -----------------
           H          3.704775859463    -0.872272024698     2.112093619808     1.007825032070
           C          3.303002859463    -0.906365024698     1.104538619808    12.000000000000
           C          1.999692859463    -0.114899024698     1.004899619808    12.000000000000
           H          4.058302859463    -0.504696024698     0.434903619808     1.007825032070
           H          3.152718859463    -1.950420024698     0.844520619808     1.007825032070
           C          1.400023859463    -0.138192024698    -0.397331380192    12.000000000000
           H          2.165760859463     0.918516975302     1.292756619808     1.007825032070
           H          1.277142859463    -0.520998024698     1.710872619808     1.007825032070
           N          0.182676859463     0.646405975302    -0.460020380192    14.003074004780
           H          2.110844859463     0.291109975302    -1.098328380192     1.007825032070
           H          1.243846859463    -1.175568024698    -0.711714380192     1.007825032070
           C         -1.034691140537    -0.138176024698    -0.397483380192    12.000000000000
           H          0.182642859463     1.320646975302     0.281895619808     1.007825032070
           C         -2.269959140537     0.752772975302    -0.479241380192    12.000000000000
           H         -1.032617140537    -0.826025024698    -1.238802380192     1.007825032070
           H         -1.087065140537    -0.754945024698     0.505974619808     1.007825032070
           C         -3.575355140537    -0.040891024698    -0.447541380192    12.000000000000
           H         -2.211546140537     1.342100975302    -1.388930380192     1.007825032070
           H         -2.258119140537     1.459318975302     0.349110619808     1.007825032070
           H         -3.633985140537    -0.733461024698    -1.282486380192     1.007825032070
           H         -4.435163140537     0.618696975302    -0.506056380192     1.007825032070
           H         -3.664804140537    -0.618970024698     0.467921619808     1.007825032070

  Charge       = 0
  Multiplicity = 1
  Basis Set: 6-31G*
  Basis Set:

    Orbital Energies (a.u.)
    -----------------------

    Doubly Occupied:

       1A    -15.530104     2A    -11.237600     3A    -11.237323
       4A    -11.216585     5A    -11.212619     6A    -11.211563
       7A    -11.209219     8A     -1.205728     9A     -1.059450
      10A     -1.026149    11A     -0.928613    12A     -0.868777
      13A     -0.811143    14A     -0.801539    15A     -0.653352
      16A     -0.644087    17A     -0.614406    18A     -0.603904
      19A     -0.577325    20A     -0.552542    21A     -0.548412
      22A     -0.518963    23A     -0.516410    24A     -0.486807
      25A     -0.485613    26A     -0.478960    27A     -0.470804
      28A     -0.453476    29A     -0.350538

  @DF-RHF Final Energy:  -290.37718442841708

   => Energetics <=

    Nuclear Repulsion Energy =            316.4504200219599852
    One-Electron Energy =               -1018.6318472423055255
    Two-Electron Energy =                 411.8042427919272654
    DFT Exchange-Correlation Energy =       0.0000000000000000
    Empirical Dispersion Energy =           0.0000000000000000
    PCM Polarization Energy =               0.0000000000000000
    EFP Energy =                            0.0000000000000000
    Total Energy =                       -290.3771844284182748

  Mulliken Charges: (a.u.)
   Center  Symbol    Alpha    Beta     Spin     Total
       1     H     0.41818  0.41818  0.00000  0.16364
       2     C     3.24334  3.24334  0.00000 -0.48668
       3     C     3.16583  3.16583  0.00000 -0.33166
       4     H     0.41984  0.41984  0.00000  0.16032
       5     H     0.42083  0.42083  0.00000  0.15834
       6     C     3.04808  3.04808  0.00000 -0.09616
       7     H     0.42311  0.42311  0.00000  0.15378
       8     H     0.42164  0.42164  0.00000  0.15672
       9     N     3.85684  3.85684  0.00000 -0.71368
      10     H     0.41868  0.41868  0.00000  0.16263
      11     H     0.42265  0.42265  0.00000  0.15469
      12     C     3.05049  3.05049  0.00000 -0.10099
      13     H     0.33289  0.33289  0.00000  0.33422
      14     C     3.15536  3.15536  0.00000 -0.31072
      15     H     0.42097  0.42097  0.00000  0.15806
      16     H     0.43755  0.43755  0.00000  0.12490
      17     C     3.24313  3.24313  0.00000 -0.48626
      18     H     0.41286  0.41286  0.00000  0.17429
      19     H     0.42706  0.42706  0.00000  0.14589
      20     H     0.42083  0.42083  0.00000  0.15834
      21     H     0.41787  0.41787  0.00000  0.16426
      22     H     0.42196  0.42196  0.00000  0.15608

   Total alpha = 29.00000, Total beta = 29.00000, Total charge =  0.00000
