  ==> Input File <==

--------------------------------------------------------------------------
set {
	reference rhf
	basis 6-31G*
}

set_num_threads( 1 )
memory 2 gb

molecule MOL {
0 1

O	 -1.276010	 1.052711	 -0.768302
C	 -1.204840	 0.067374	 -0.106123
C	 -2.388195	 -0.672128	 0.458071
O	 -0.067104	 -0.527208	 0.221609
H	 -2.388023	 -1.694060	 0.097175
H	 -3.300579	 -0.174919	 0.164318
H	 -2.315377	 -0.706351	 1.539059
C	 0.976840	 -0.621657	 -0.757772
C	 1.812978	 -1.825450	 -0.361104
C	 1.773344	 0.673496	 -0.786170
H	 0.515064	 -0.787754	 -1.719896
H	 1.205209	 -2.722843	 -0.337651
H	 2.616418	 -1.974094	 -1.075051
H	 2.249313	 -1.682230	 0.621624
H	 2.579431	 0.600024	 -1.509248
H	 1.141910	 1.506463	 -1.068009
H	 2.205943	 0.874010	 0.188848

	symmetry c1
}
set optking {
	frozen_dihedral = ("
		11 8 4 2
	")
}

ee = energy('scf')
oeprop('DIPOLE', 'QUADRUPOLE', 'MULLIKEN_CHARGES')
f=open( 'psi4out.xyz', 'w' )
f.write( "17  " )
f.write( str(ee) + "\n" )
f.write( MOL.save_string_xyz() )
f.close()
--------------------------------------------------------------------------

    Molecular point group: c1

    Geometry (in Angstrom), charge = 0, multiplicity = 1:

       Center              X                  Y                   Z               Mass
    ------------   -----------------  -----------------  -----------------  -----------------
           O         -1.224114487812     1.316747214268    -0.469437130184    15.994914619560
           C         -1.152944487812     0.331410214268     0.192741869816    12.000000000000
           C         -2.336299487812    -0.408091785732     0.756935869816    12.000000000000
           O         -0.015208487812    -0.263171785732     0.520473869816    15.994914619560
           H         -2.336127487812    -1.430023785732     0.396039869816     1.007825032070
           H         -3.248683487812     0.089117214268     0.463182869816     1.007825032070
           H         -2.263481487812    -0.442314785732     1.837923869816     1.007825032070
           C          1.028735512188    -0.357620785732    -0.458907130184    12.000000000000
           C          1.864873512188    -1.561413785732    -0.062239130184    12.000000000000
           C          1.825239512188     0.937532214268    -0.487305130184    12.000000000000
           H          0.566959512188    -0.523717785732    -1.421031130184     1.007825032070
           H          1.257104512188    -2.458806785732    -0.038786130184     1.007825032070
           H          2.668313512188    -1.710057785732    -0.776186130184     1.007825032070
           H          2.301208512188    -1.418193785732     0.920488869816     1.007825032070
           H          2.631326512188     0.864060214268    -1.210383130184     1.007825032070
           H          1.193805512188     1.770499214268    -0.769144130184     1.007825032070
           H          2.257838512188     1.138046214268     0.487712869816     1.007825032070

  Charge       = 0
  Multiplicity = 1
  Basis Set: 6-31G*
  Basis Set:

    Orbital Energies (a.u.)
    -----------------------

    Doubly Occupied:

       1A    -20.591413     2A    -20.547183     3A    -11.375532
       4A    -11.295845     5A    -11.232588     6A    -11.221489
       7A    -11.209273     8A     -1.463732     9A     -1.362965
      10A     -1.077781    11A     -1.005359    12A     -0.946049
      13A     -0.848555    14A     -0.769218    15A     -0.691190
      16A     -0.675429    17A     -0.652834    18A     -0.609655
      19A     -0.587193    20A     -0.580246    21A     -0.558563
      22A     -0.550625    23A     -0.546100    24A     -0.513561
      25A     -0.495734    26A     -0.490155    27A     -0.444372
      28A     -0.433498

  @DF-RHF Final Energy:  -344.90593415211089

   => Energetics <=

    Nuclear Repulsion Energy =            323.3340349744029822
    One-Electron Energy =               -1110.9277486191845128
    Two-Electron Energy =                 442.6877794926713250
    DFT Exchange-Correlation Energy =       0.0000000000000000
    Empirical Dispersion Energy =           0.0000000000000000
    PCM Polarization Energy =               0.0000000000000000
    EFP Energy =                            0.0000000000000000
    Total Energy =                       -344.9059341521101487

  Mulliken Charges: (a.u.)
   Center  Symbol    Alpha    Beta     Spin     Total
       1     O     4.27657  4.27657  0.00000 -0.55315
       2     C     2.62021  2.62021  0.00000  0.75958
       3     C     3.28105  3.28105  0.00000 -0.56211
       4     O     4.31467  4.31467  0.00000 -0.62933
       5     H     0.40385  0.40385  0.00000  0.19229
       6     H     0.39855  0.39855  0.00000  0.20290
       7     H     0.39966  0.39966  0.00000  0.20068
       8     C     2.92768  2.92768  0.00000  0.14464
       9     C     3.24062  3.24062  0.00000 -0.48123
      10     C     3.24936  3.24936  0.00000 -0.49871
      11     H     0.41325  0.41325  0.00000  0.17349
      12     H     0.41367  0.41367  0.00000  0.17266
      13     H     0.41726  0.41726  0.00000  0.16548
      14     H     0.41159  0.41159  0.00000  0.17683
      15     H     0.42307  0.42307  0.00000  0.15385
      16     H     0.39196  0.39196  0.00000  0.21607
      17     H     0.41698  0.41698  0.00000  0.16604

   Total alpha = 28.00000, Total beta = 28.00000, Total charge =  0.00000
