  ==> Input File <==

--------------------------------------------------------------------------
set {
	reference rhf
	basis 6-31G*
}

set_num_threads( 1 )
memory 2 gb

molecule MOL {
0 1

H	 -0.218089	 1.879899	 2.716071
C	 -0.831579	 0.970439	 2.704447
C	 -1.844825	 0.899427	 1.590490
O	 -0.672195	 0.131924	 3.531029
C	 -1.220012	 1.144545	 0.209990
H	 -2.339414	 -0.063774	 1.638809
H	 -2.591061	 1.668196	 1.787419
C	 -0.252658	 0.041456	 -0.226725
H	 -2.020149	 1.232076	 -0.518985
H	 -0.705779	 2.104398	 0.211469
C	 1.180775	 0.282413	 0.250794
H	 -0.266029	 -0.034465	 -1.312038
H	 -0.597733	 -0.921000	 0.146291
C	 2.148627	 -0.814315	 -0.201312
H	 1.516199	 1.249228	 -0.115937
H	 1.192670	 0.346017	 1.338083
C	 3.580890	 -0.659131	 0.322722
H	 2.166869	 -0.852443	 -1.289387
H	 1.762857	 -1.776509	 0.128956
C	 4.324889	 0.564933	 -0.213704
H	 4.142010	 -1.551473	 0.056605
H	 3.564836	 -0.624694	 1.410140
H	 4.342616	 0.565491	 -1.300421
H	 3.866655	 1.493402	 0.110242
H	 5.353900	 0.572371	 0.132816

	symmetry c1
}
set optking {
	frozen_dihedral = ("
		6 3 5 8,
		6 3 2 4,
		12 8 11 14,
		8 11 14 18,
		20 17 14 18
	")
}

ee = energy('scf')
oeprop('DIPOLE', 'QUADRUPOLE', 'MULLIKEN_CHARGES')
f=open( 'psi4out.xyz', 'w' )
f.write( "25  " )
f.write( str(ee) + "\n" )
f.write( MOL.save_string_xyz() )
f.close()
--------------------------------------------------------------------------

    Molecular point group: c1

    Geometry (in Angstrom), charge = 0, multiplicity = 1:

       Center              X                  Y                   Z               Mass
    ------------   -----------------  -----------------  -----------------  -----------------
           H         -0.948668651263     1.594265430034     1.819261892697     1.007825032070
           C         -1.562158651263     0.684805430034     1.807637892697    12.000000000000
           C         -2.575404651263     0.613793430034     0.693680892697    12.000000000000
           O         -1.402774651263    -0.153709569966     2.634219892697    15.994914619560
           C         -1.950591651263     0.858911430034    -0.686819107303    12.000000000000
           H         -3.069993651263    -0.349407569966     0.741999892697     1.007825032070
           H         -3.321640651263     1.382562430034     0.890609892697     1.007825032070
           C         -0.983237651263    -0.244177569966    -1.123534107303    12.000000000000
           H         -2.750728651263     0.946442430034    -1.415794107303     1.007825032070
           H         -1.436358651263     1.818764430034    -0.685340107303     1.007825032070
           C          0.450195348737    -0.003220569966    -0.646015107303    12.000000000000
           H         -0.996608651263    -0.320098569966    -2.208847107303     1.007825032070
           H         -1.328312651263    -1.206633569966    -0.750518107303     1.007825032070
           C          1.418047348737    -1.099948569966    -1.098121107303    12.000000000000
           H          0.785619348737     0.963594430034    -1.012746107303     1.007825032070
           H          0.462090348737     0.060383430034     0.441273892697     1.007825032070
           C          2.850310348737    -0.944764569966    -0.574087107303    12.000000000000
           H          1.436289348737    -1.138076569966    -2.186196107303     1.007825032070
           H          1.032277348737    -2.062142569966    -0.767853107303     1.007825032070
           C          3.594309348737     0.279299430034    -1.110513107303    12.000000000000
           H          3.411430348737    -1.837106569966    -0.840204107303     1.007825032070
           H          2.834256348737    -0.910327569966     0.513330892697     1.007825032070
           H          3.612036348737     0.279857430034    -2.197230107303     1.007825032070
           H          3.136075348737     1.207768430034    -0.786567107303     1.007825032070
           H          4.623320348737     0.286737430034    -0.763993107303     1.007825032070

  Charge       = 0
  Multiplicity = 1
  Basis Set: 6-31G*
  Basis Set:

    Orbital Energies (a.u.)
    -----------------------

    Doubly Occupied:

       1A    -20.561413     2A    -11.326389     3A    -11.235027
       4A    -11.234164     5A    -11.222420     6A    -11.218355
       7A    -11.215545     8A    -11.214958     9A    -11.208911
      10A     -1.402222    11A     -1.104770    12A     -1.067504
      13A     -1.010305    14A     -0.943093    15A     -0.878765
      16A     -0.814420    17A     -0.791009    18A     -0.778476
      19A     -0.664034    20A     -0.655041    21A     -0.644584
      22A     -0.618542    23A     -0.613079    24A     -0.575054
      25A     -0.571858    26A     -0.562008    27A     -0.532174
      28A     -0.520468    29A     -0.511844    30A     -0.506695
      31A     -0.486491    32A     -0.472499    33A     -0.458238
      34A     -0.456597    35A     -0.442152    36A     -0.408536

  @DF-RHF Final Energy:  -387.11762616843555

   => Energetics <=

    Nuclear Repulsion Energy =            454.8370224761629288
    One-Electron Energy =               -1426.0540110218005339
    Two-Electron Energy =                 584.0993623772027377
    DFT Exchange-Correlation Energy =       0.0000000000000000
    Empirical Dispersion Energy =           0.0000000000000000
    PCM Polarization Energy =               0.0000000000000000
    EFP Energy =                            0.0000000000000000
    Total Energy =                       -387.1176261684348674

  Mulliken Charges: (a.u.)
   Center  Symbol    Alpha    Beta     Spin     Total
       1     H     0.43120  0.43120  0.00000  0.13760
       2     C     2.83044  2.83044  0.00000  0.33911
       3     C     3.20690  3.20690  0.00000 -0.41380
       4     O     4.24096  4.24096  0.00000 -0.48192
       5     C     3.16879  3.16879  0.00000 -0.33759
       6     H     0.39936  0.39936  0.00000  0.20127
       7     H     0.40698  0.40698  0.00000  0.18604
       8     C     3.15754  3.15754  0.00000 -0.31508
       9     H     0.41086  0.41086  0.00000  0.17829
      10     H     0.41840  0.41840  0.00000  0.16320
      11     C     3.16262  3.16262  0.00000 -0.32524
      12     H     0.41758  0.41758  0.00000  0.16484
      13     H     0.41561  0.41561  0.00000  0.16879
      14     C     3.15229  3.15229  0.00000 -0.30458
      15     H     0.42136  0.42136  0.00000  0.15727
      16     H     0.41763  0.41763  0.00000  0.16473
      17     C     3.15347  3.15347  0.00000 -0.30694
      18     H     0.42441  0.42441  0.00000  0.15117
      19     H     0.41940  0.41940  0.00000  0.16119
      20     C     3.24111  3.24111  0.00000 -0.48222
      21     H     0.42044  0.42044  0.00000  0.15912
      22     H     0.42009  0.42009  0.00000  0.15982
      23     H     0.42271  0.42271  0.00000  0.15458
      24     H     0.42129  0.42129  0.00000  0.15742
      25     H     0.41854  0.41854  0.00000  0.16293

   Total alpha = 36.00000, Total beta = 36.00000, Total charge =  0.00000
