  ==> Input File <==

--------------------------------------------------------------------------
set {
	reference rhf
	basis 6-31G*
}

set_num_threads( 4 )
memory 2 gb

molecule MOL {
0 1

H	 3.320838	 -1.371905	 -1.073498
O	 2.578711	 -1.426912	 -0.479379
C	 1.827727	 -0.339786	 -0.654291
C	 0.624473	 -0.343591	 0.253101
O	 2.111325	 0.503569	 -1.441273
C	 -0.265902	 0.883932	 0.072916
H	 0.088375	 -1.267956	 0.064633
H	 0.991550	 -0.416022	 1.273768
C	 -1.728698	 0.646073	 0.462102
H	 -0.209144	 1.219470	 -0.958188
H	 0.135059	 1.692851	 0.673903
C	 -2.482460	 -0.343073	 -0.431425
H	 -2.245265	 1.602650	 0.432430
H	 -1.779332	 0.308348	 1.496285
C	 -3.960546	 -0.461025	 -0.060175
H	 -2.395034	 -0.026811	 -1.468912
H	 -2.024850	 -1.327147	 -0.371646
H	 -4.472726	 -1.168004	 -0.705284
H	 -4.465146	 0.496508	 -0.151489
H	 -4.081218	 -0.800940	 0.964585

	symmetry c1
}
set optking {
	frozen_dihedral = ("
		7 4 6 10
	")
}

ee = optimize('scf')
oeprop('DIPOLE', 'QUADRUPOLE', 'MULLIKEN_CHARGES')
f=open( 'psi4out.xyz', 'w' )
f.write( "20  " )
f.write( str(ee) + "\n" )
f.write( MOL.save_string_xyz() )
f.close()
--------------------------------------------------------------------------

    Molecular point group: c1
  Charge       = 0
  Multiplicity = 1
  Basis Set: 6-31G*
  Basis Set:
  @DF-RHF Final Energy:  -383.94629651864039
    Total Energy =                       -383.9462965186401107
    Molecular point group: c1
  Basis Set: 6-31G*
  Basis Set:
  Basis Set: 6-31G*
  Basis Set:
  @DF-RHF Final Energy:  -383.94648090337131
    Total Energy =                       -383.9464809033713095
  Basis Set: 6-31G*
  Basis Set:
  Basis Set: 6-31G*
  Basis Set:
  @DF-RHF Final Energy:  -383.94675403193503
    Total Energy =                       -383.9467540319350292
  Basis Set: 6-31G*
  Basis Set:
  Basis Set: 6-31G*
  Basis Set:
  @DF-RHF Final Energy:  -383.94677580071834
    Total Energy =                       -383.9467758007184557
  Basis Set: 6-31G*
  Basis Set:
  Basis Set: 6-31G*
  Basis Set:
  @DF-RHF Final Energy:  -383.94677743837616
    Total Energy =                       -383.9467774383761025
  Basis Set: 6-31G*
  Basis Set:
  Basis Set: 6-31G*
  Basis Set:
  @DF-RHF Final Energy:  -383.94677145475947
    Total Energy =                       -383.9467714547599826
  Basis Set: 6-31G*
  Basis Set:
  Basis Set: 6-31G*
  Basis Set:
  @DF-RHF Final Energy:  -383.94678118878488
    Total Energy =                       -383.9467811887850530
  Basis Set: 6-31G*
  Basis Set:
  Charge       = 0
  Multiplicity = 1
  Basis Set: 6-31G*
  Basis Set:

    Orbital Energies (a.u.)
    -----------------------

    Doubly Occupied:

       1A    -20.612687     2A    -20.551967     3A    -11.381742
       4A    -11.240023     5A    -11.222281     6A    -11.220625
       7A    -11.219586     8A    -11.211953     9A     -1.474890
      10A     -1.365872    11A     -1.095126    12A     -1.040468
      13A     -0.961165    14A     -0.869252    15A     -0.814373
      16A     -0.778854    17A     -0.699895    18A     -0.691490
      19A     -0.661609    20A     -0.634635    21A     -0.604069
      22A     -0.593834    23A     -0.575528    24A     -0.557432
      25A     -0.534231    26A     -0.512369    27A     -0.495822
      28A     -0.479262    29A     -0.471835    30A     -0.467264
      31A     -0.455301    32A     -0.444371

  @DF-RHF Final Energy:  -383.94678147864880

   => Energetics <=

    Nuclear Repulsion Energy =            376.7956410599954893
    One-Electron Energy =               -1269.6052206889416993
    Two-Electron Energy =                 508.8627981502976354
    DFT Exchange-Correlation Energy =       0.0000000000000000
    Empirical Dispersion Energy =           0.0000000000000000
    PCM Polarization Energy =               0.0000000000000000
    EFP Energy =                            0.0000000000000000
    Total Energy =                       -383.9467814786486315
    Molecular point group: c1
  Basis Set: 6-31G*
  Basis Set:

  -Total Gradient:
     Atom            X                  Y                   Z
    ------   -----------------  -----------------  -----------------
       1       -0.000005265361     0.000004953889     0.000001201821
       2       -0.000003584111    -0.000010907308     0.000001725004
       3        0.000009803114     0.000006685794     0.000001448104
       4        0.001648995006     0.000496534250    -0.003901545067
       5        0.000001118147     0.000008269858    -0.000004351553
       6       -0.003266279671    -0.002485496455     0.000041382200
       7       -0.000841390126    -0.000027535220     0.003194913229
       8        0.000000639358     0.000007737124     0.000001651737
       9       -0.000001424824     0.000002910468    -0.000005384539
      10        0.002460071131     0.001994578396     0.000671678251
      11       -0.000006149879    -0.000000101619    -0.000000292933
      12        0.000002773898    -0.000003259975    -0.000006330470
      13        0.000005117123     0.000007761087     0.000000437402
      14       -0.000002464804    -0.000002016844    -0.000004277957
      15        0.000002429762    -0.000003409358     0.000009367770
      16       -0.000000397493     0.000004876568    -0.000002001263
      17       -0.000006192045    -0.000000813433    -0.000000261454
      18        0.000003619954    -0.000000101961     0.000000167744
      19        0.000002286592    -0.000000143481    -0.000001407411
      20       -0.000003705781    -0.000000521779     0.000001879387

  **** Optimization is complete! (in 8 steps) ****
    Final optimized geometry and variables:
    Molecular point group: c1

    Geometry (in Angstrom), charge = 0, multiplicity = 1:

    H            3.513687585957    -1.228546594637    -0.641890210100
    O            2.751982781163    -1.271436994334    -0.072092314627
    C            1.979452019109    -0.217735869417    -0.334966186212
    C            0.746118902241    -0.207386328135     0.529676132137
    O            2.271251487091     0.588906953214    -1.156714912537
    C           -0.169797731185     0.997912375307     0.298018506351
    H            0.230797387168    -1.151292103361     0.384775836946
    H            1.085715595517    -0.237478135096     1.561706118757
    C           -1.619410822144     0.767623466965     0.737819769936
    H           -0.125833471303     1.292856357253    -0.744199147668
    H            0.236358691988     1.841555830120     0.848503648315
    C           -2.425402081436    -0.151644166786    -0.184404921421
    H           -2.119958300423     1.731754943827     0.784862706705
    H           -1.635612118053     0.370745119300     1.752019909989
    C           -3.870362709487    -0.331267847327     0.280646496791
    H           -2.417889733971     0.261180835077    -1.190616696691
    H           -1.952672752653    -1.128112744352    -0.252910551791
    H           -4.422482827144    -0.978504788067    -0.393534879843
    H           -4.389576384487     0.621904146609     0.323569517336
    H           -3.911420284613    -0.773940825871     1.271917347517

  Mulliken Charges: (a.u.)
   Center  Symbol    Alpha    Beta     Spin     Total
       1     H     0.26774  0.26774  0.00000  0.46451
       2     O     4.35081  4.35081  0.00000 -0.70161
       3     C     2.62424  2.62424  0.00000  0.75151
       4     C     3.21403  3.21403  0.00000 -0.42806
       5     O     4.27892  4.27892  0.00000 -0.55785
       6     C     3.15792  3.15792  0.00000 -0.31585
       7     H     0.39682  0.39682  0.00000  0.20636
       8     H     0.39746  0.39746  0.00000  0.20509
       9     C     3.15660  3.15660  0.00000 -0.31319
      10     H     0.40210  0.40210  0.00000  0.19580
      11     H     0.41421  0.41421  0.00000  0.17158
      12     C     3.15342  3.15342  0.00000 -0.30685
      13     H     0.41803  0.41803  0.00000  0.16395
      14     H     0.42404  0.42404  0.00000  0.15192
      15     C     3.23941  3.23941  0.00000 -0.47882
      16     H     0.41980  0.41980  0.00000  0.16040
      17     H     0.42386  0.42386  0.00000  0.15227
      18     H     0.41820  0.41820  0.00000  0.16361
      19     H     0.42075  0.42075  0.00000  0.15849
      20     H     0.42163  0.42163  0.00000  0.15675

   Total alpha = 32.00000, Total beta = 32.00000, Total charge =  0.00000
