  ==> Input File <==

--------------------------------------------------------------------------
set {
	reference rhf
	basis cc-pvtz
}

set_num_threads( 4 )
memory 2 gb

molecule MOL {
0 1

H	 -2.458800	 -0.708569	 -0.680815
N	 -1.731843	 -0.025131	 -0.685170
C	 -0.561396	 -0.500007	 0.035200
H	 -2.100827	 0.800296	 -0.261075
C	 0.575129	 0.507849	 -0.048832
H	 -0.245736	 -1.432143	 -0.421636
H	 -0.767513	 -0.719771	 1.083835
C	 1.951750	 -0.141983	 0.035101
H	 0.478254	 1.061643	 -0.975981
H	 0.467676	 1.231891	 0.755499
H	 2.101550	 -0.848142	 -0.774949
H	 2.738260	 0.600794	 -0.026526
H	 2.078939	 -0.679792	 0.968824

	symmetry c1
}
set optking {
	frozen_dihedral = ("
		6 3 5 9
	")
}

ee = optimize('scf')
oeprop('DIPOLE', 'QUADRUPOLE', 'MULLIKEN_CHARGES')
f=open( 'psi4out.xyz', 'w' )
f.write( "13  " )
f.write( str(ee) + "\n" )
f.write( MOL.save_string_xyz() )
f.close()
--------------------------------------------------------------------------

    Molecular point group: c1
  Charge       = 0
  Multiplicity = 1
  Basis Set: CC-PVTZ
  Basis Set:
  @DF-RHF Final Energy:  -173.34978930113684
    Total Energy =                       -173.3497893011368092
    Molecular point group: c1
  Basis Set: CC-PVTZ
  Basis Set:
  Basis Set: CC-PVTZ
  Basis Set:
  @DF-RHF Final Energy:  -173.35006858896753
    Total Energy =                       -173.3500685889673889
  Basis Set: CC-PVTZ
  Basis Set:
  Basis Set: CC-PVTZ
  Basis Set:
  @DF-RHF Final Energy:  -173.35011743869441
    Total Energy =                       -173.3501174386944399
  Basis Set: CC-PVTZ
  Basis Set:
  Basis Set: CC-PVTZ
  Basis Set:
  @DF-RHF Final Energy:  -173.35011947662059
    Total Energy =                       -173.3501194766205913
  Basis Set: CC-PVTZ
  Basis Set:
  Charge       = 0
  Multiplicity = 1
  Basis Set: CC-PVTZ
  Basis Set:

    Orbital Energies (a.u.)
    -----------------------

    Doubly Occupied:

       1A    -15.527598     2A    -11.238256     3A    -11.210371
       4A    -11.207382     5A     -1.178722     6A     -1.035842
       7A     -0.899359     8A     -0.801507     9A     -0.654994
      10A     -0.640289    11A     -0.600365    12A     -0.566124
      13A     -0.534006    14A     -0.492649    15A     -0.475209
      16A     -0.468302    17A     -0.383857

  @DF-RHF Final Energy:  -173.35011973752196

   => Energetics <=

    Nuclear Repulsion Energy =            131.8873049070851664
    One-Electron Energy =                -494.6451864093911581
    Two-Electron Energy =                 189.4077617647839133
    DFT Exchange-Correlation Energy =       0.0000000000000000
    Empirical Dispersion Energy =           0.0000000000000000
    PCM Polarization Energy =               0.0000000000000000
    EFP Energy =                            0.0000000000000000
    Total Energy =                       -173.3501197375220499
    Molecular point group: c1
  Basis Set: CC-PVTZ
  Basis Set:

  -Total Gradient:
     Atom            X                  Y                   Z
    ------   -----------------  -----------------  -----------------
       1       -0.000021377136    -0.000005114030    -0.000008524974
       2        0.000058972639    -0.000022706937     0.000019534868
       3       -0.002548709395     0.002566228830    -0.004615640948
       4       -0.000013464195     0.000012364569     0.000008382173
       5        0.003595617497    -0.004271382435    -0.001662094221
       6        0.001595679637    -0.001470124382     0.004084829082
       7       -0.000016914537    -0.000003196532     0.000035609721
       8       -0.000024017058     0.000020280669    -0.000003028622
       9       -0.002619029589     0.003156866750     0.002116992968
      10       -0.000002982861     0.000015635616     0.000016532659
      11       -0.000002466855     0.000013562452     0.000006393990
      12        0.000005325420    -0.000010135922     0.000000493854
      13       -0.000006633563    -0.000002278648     0.000000519451

  **** Optimization is complete! (in 5 steps) ****
    Final optimized geometry and variables:
    Molecular point group: c1

    Geometry (in Angstrom), charge = 0, multiplicity = 1:

    H           -2.522872052760    -0.642275492771    -0.432642806942
    N           -1.779344381984     0.019998069889    -0.501754163541
    C           -0.587648486368    -0.462358536262     0.175852120559
    H           -2.104462297109     0.867989526321    -0.085313138947
    C            0.555492896656     0.547261626896     0.089720750858
    H           -0.280296559086    -1.399498445531    -0.276049970822
    H           -0.766208599885    -0.695311954288     1.227251144385
    C            1.933802005845    -0.088080960945     0.217170727205
    H            0.460957756617     1.098547690496    -0.839202450876
    H            0.430454247026     1.286767043628     0.877686824315
    H            2.125582892020    -0.771019517636    -0.603141189230
    H            2.713986017507     0.663925677847     0.212945089755
    H            2.023114593089    -0.649146358413     1.142069268265

  Mulliken Charges: (a.u.)
   Center  Symbol    Alpha    Beta     Spin     Total
       1     H     0.43041  0.43041  0.00000  0.13919
       2     N     3.68683  3.68683  0.00000 -0.37366
       3     C     3.02152  3.02152  0.00000 -0.04303
       4     H     0.43088  0.43088  0.00000  0.13824
       5     C     3.08362  3.08362  0.00000 -0.16724
       6     H     0.46045  0.46045  0.00000  0.07909
       7     H     0.46932  0.46932  0.00000  0.06137
       8     C     3.15002  3.15002  0.00000 -0.30004
       9     H     0.44952  0.44952  0.00000  0.10096
      10     H     0.45850  0.45850  0.00000  0.08299
      11     H     0.45366  0.45366  0.00000  0.09268
      12     H     0.44888  0.44888  0.00000  0.10225
      13     H     0.45639  0.45639  0.00000  0.08721

   Total alpha = 17.00000, Total beta = 17.00000, Total charge = -0.00000
