  ==> Input File <==

--------------------------------------------------------------------------
set {
	reference rhf
	basis cc-pvtz
}

set_num_threads( 4 )
memory 2 gb

molecule MOL {
0 1

H	 -2.171408	 0.883827	 0.499828
C	 -2.016894	 0.002467	 -0.114153
O	 -0.775228	 0.000056	 -0.739966
H	 -2.760845	 0.004352	 -0.898170
H	 -2.175074	 -0.878744	 0.499100
C	 0.406133	 -0.000384	 0.036994
C	 1.526415	 -0.003194	 -0.997339
C	 0.498772	 1.259027	 0.900673
C	 0.495883	 -1.257378	 0.904465
H	 1.452279	 0.872071	 -1.630204
H	 1.451276	 -0.881020	 -1.626529
H	 2.497919	 -0.002741	 -0.517601
H	 0.368981	 2.144239	 0.289753
H	 1.470064	 1.313479	 1.377660
H	 -0.248448	 1.271586	 1.684297
H	 0.363971	 -2.144195	 0.296316
H	 1.467114	 -1.312636	 1.381470
H	 -0.251246	 -1.265768	 1.688235

	symmetry c1
}
set optking {
	frozen_dihedral = ("
		2 3 6 7
	")
}

ee = optimize('scf')
oeprop('DIPOLE', 'QUADRUPOLE', 'MULLIKEN_CHARGES')
f=open( 'psi4out.xyz', 'w' )
f.write( "18  " )
f.write( str(ee) + "\n" )
f.write( MOL.save_string_xyz() )
f.close()
--------------------------------------------------------------------------

    Molecular point group: c1
  Charge       = 0
  Multiplicity = 1
  Basis Set: CC-PVTZ
  Basis Set:
  @DF-RHF Final Energy:  -271.27675699751723
    Total Energy =                       -271.2767569975169408
    Molecular point group: c1
  Basis Set: CC-PVTZ
  Basis Set:
  Charge       = 0
  Multiplicity = 1
  Basis Set: CC-PVTZ
  Basis Set:

    Orbital Energies (a.u.)
    -----------------------

    Doubly Occupied:

       1A    -20.540650     2A    -11.280120     3A    -11.258039
       4A    -11.207081     5A    -11.207065     6A    -11.201793
       7A     -1.373667     8A     -1.074668     9A     -0.946713
      10A     -0.940849    11A     -0.913179    12A     -0.753503
      13A     -0.656639    14A     -0.646659    15A     -0.639400
      16A     -0.593892    17A     -0.575997    18A     -0.553302
      19A     -0.534342    20A     -0.524844    21A     -0.515064
      22A     -0.488131    23A     -0.488065    24A     -0.440774
      25A     -0.407740

  @DF-RHF Final Energy:  -271.27675702316685

   => Energetics <=

    Nuclear Repulsion Energy =            272.6659184773081961
    One-Electron Energy =                -908.3610026051323985
    Two-Electron Energy =                 364.4183271046571804
    DFT Exchange-Correlation Energy =       0.0000000000000000
    Empirical Dispersion Energy =           0.0000000000000000
    PCM Polarization Energy =               0.0000000000000000
    EFP Energy =                            0.0000000000000000
    Total Energy =                       -271.2767570231670220
    Molecular point group: c1
  Basis Set: CC-PVTZ
  Basis Set:

  -Total Gradient:
     Atom            X                  Y                   Z
    ------   -----------------  -----------------  -----------------
       1       -0.000009382616    -0.000010683834    -0.000005104530
       2        0.000003868487     0.000022995507    -0.000005704773
       3       -0.000002920551    -0.000031274879     0.000003716563
       4       -0.000000928429     0.000002179433     0.000000622781
       5        0.000004520520    -0.000008429535     0.000003428592
       6       -0.000002629648     0.000012291812    -0.000002032186
       7        0.000000489760     0.000005215728     0.000001325282
       8        0.000012873424     0.000004239140     0.000008825130
       9       -0.000008629161     0.000004077695    -0.000005636727
      10       -0.000002907112    -0.000000689576     0.000007514272
      11        0.000003639579    -0.000000202324    -0.000007240870
      12        0.000000198347    -0.000005776642    -0.000000033215
      13       -0.000003048303    -0.000000158364     0.000000544140
      14       -0.000001695457     0.000004154015     0.000001753359
      15        0.000012417856    -0.000000579752    -0.000001309079
      16       -0.000000948315    -0.000000200765     0.000001766361
      17        0.000001610705     0.000002421690    -0.000004287363
      18       -0.000006529088     0.000000420652     0.000001852260

  **** Optimization is complete! (in 2 steps) ****
    Final optimized geometry and variables:
    Molecular point group: c1

    Geometry (in Angstrom), charge = 0, multiplicity = 1:

    H           -2.172160124579     0.884285156149     0.498435403555
    C           -2.016935276426     0.002177600791    -0.114248684549
    O           -0.775209316266    -0.000206548587    -0.739989284795
    H           -2.760824643658     0.002368949678    -0.898317866977
    H           -2.174469929263    -0.878282320508     0.500257863582
    C            0.406136645782    -0.000412626582     0.037025593530
    C            1.526442526995    -0.003269729487    -0.997293430754
    C            0.498940675209     1.258977600882     0.900743904254
    C            0.495699022336    -1.257437061954     0.904454100193
    H            1.453350165863     0.872887991236    -1.629031038322
    H            1.450303774683    -0.880195182829    -1.627617164097
    H            2.497933146019    -0.004583950392    -0.517542323928
    H            0.368314308511     2.144199917330     0.290020987667
    H            1.470599060473     1.313788515092     1.376920610982
    H           -0.247586241925     1.271193633168     1.685016492891
    H            0.363873243702    -2.144192886809     0.296217251477
    H            1.466825502692    -1.312753438804     1.381660191830
    H           -0.251614663923    -1.265864377147     1.688047301490

  Mulliken Charges: (a.u.)
   Center  Symbol    Alpha    Beta     Spin     Total
       1     H     0.46981  0.46981  0.00000  0.06038
       2     C     3.04424  3.04424  0.00000 -0.08848
       3     O     4.18981  4.18981  0.00000 -0.37961
       4     H     0.44022  0.44022  0.00000  0.11956
       5     H     0.46981  0.46981  0.00000  0.06038
       6     C     2.87275  2.87275  0.00000  0.25450
       7     C     3.14153  3.14153  0.00000 -0.28306
       8     C     3.16452  3.16452  0.00000 -0.32903
       9     C     3.16448  3.16448  0.00000 -0.32897
      10     H     0.44882  0.44882  0.00000  0.10235
      11     H     0.44880  0.44880  0.00000  0.10239
      12     H     0.45939  0.45939  0.00000  0.08123
      13     H     0.44510  0.44510  0.00000  0.10980
      14     H     0.44837  0.44837  0.00000  0.10325
      15     H     0.44942  0.44942  0.00000  0.10116
      16     H     0.44511  0.44511  0.00000  0.10979
      17     H     0.44839  0.44839  0.00000  0.10322
      18     H     0.44943  0.44943  0.00000  0.10113

   Total alpha = 25.00000, Total beta = 25.00000, Total charge =  0.00000
