  ==> Input File <==

--------------------------------------------------------------------------
set {
	reference rhf
	basis 6-31G*
}

set_num_threads( 1 )
memory 2 gb

molecule MOL {
0 1

H	 3.729471	 -0.928294	 -0.070608
O	 2.826016	 -1.159218	 0.122261
C	 2.077727	 -0.067559	 -0.035091
C	 0.624473	 -0.343591	 0.253101
O	 2.542965	 0.974826	 -0.363729
C	 -0.265902	 0.883932	 0.072916
H	 0.324016	 -1.163849	 -0.390541
H	 0.565024	 -0.726111	 1.268924
C	 -1.728698	 0.646073	 0.462102
H	 -0.209144	 1.219470	 -0.958188
H	 0.135059	 1.692851	 0.673903
C	 -2.175871	 -0.818167	 0.430558
H	 -2.355923	 1.214511	 -0.220707
H	 -1.912573	 1.057751	 1.453499
C	 -3.666564	 -0.983292	 0.725591
H	 -1.952647	 -1.239726	 -0.547452
H	 -1.607706	 -1.399948	 1.151738
H	 -3.959138	 -2.028292	 0.699309
H	 -4.271525	 -0.451474	 -0.003122
H	 -3.916834	 -0.594442	 1.708646

	symmetry c1
}
set optking {
	frozen_dihedral = ("
		16 12 9 6,
		7 4 6 10,
		5 3 4 7,
		1 2 3 5
	")
}

ee = energy('scf')
oeprop('DIPOLE', 'QUADRUPOLE', 'MULLIKEN_CHARGES')
f=open( 'psi4out.xyz', 'w' )
f.write( "20  " )
f.write( str(ee) + "\n" )
f.write( MOL.save_string_xyz() )
f.close()
--------------------------------------------------------------------------

    Molecular point group: c1

    Geometry (in Angstrom), charge = 0, multiplicity = 1:

       Center              X                  Y                   Z               Mass
    ------------   -----------------  -----------------  -----------------  -----------------
           H          3.654476016221    -0.803260715378    -0.276067924914     1.007825032070
           O          2.751021016221    -1.034184715378    -0.083198924914    15.994914619560
           C          2.002732016221     0.057474284622    -0.240550924914    12.000000000000
           C          0.549478016221    -0.218557715378     0.047641075086    12.000000000000
           O          2.467970016221     1.099859284622    -0.569188924914    15.994914619560
           C         -0.340896983779     1.008965284622    -0.132543924914    12.000000000000
           H          0.249021016221    -1.038815715378    -0.596000924914     1.007825032070
           H          0.490029016221    -0.601077715378     1.063464075086     1.007825032070
           C         -1.803692983779     0.771106284622     0.256642075086    12.000000000000
           H         -0.284138983779     1.344503284622    -1.163647924914     1.007825032070
           H          0.060064016221     1.817884284622     0.468443075086     1.007825032070
           C         -2.250865983779    -0.693133715378     0.225098075086    12.000000000000
           H         -2.430917983779     1.339544284622    -0.426166924914     1.007825032070
           H         -1.987567983779     1.182784284622     1.248039075086     1.007825032070
           C         -3.741558983779    -0.858258715378     0.520131075086    12.000000000000
           H         -2.027641983779    -1.114692715378    -0.752911924914     1.007825032070
           H         -1.682700983779    -1.274914715378     0.946278075086     1.007825032070
           H         -4.034132983779    -1.903258715378     0.493849075086     1.007825032070
           H         -4.346519983779    -0.326440715378    -0.208581924914     1.007825032070
           H         -3.991828983779    -0.469408715378     1.503186075086     1.007825032070

  Charge       = 0
  Multiplicity = 1
  Basis Set: 6-31G*
  Basis Set:

    Orbital Energies (a.u.)
    -----------------------

    Doubly Occupied:

       1A    -20.612021     2A    -20.550856     3A    -11.380231
       4A    -11.239472     5A    -11.221801     6A    -11.221308
       7A    -11.219217     8A    -11.212485     9A     -1.473991
      10A     -1.364999    11A     -1.098153    12A     -1.038405
      13A     -0.961782    14A     -0.869146    15A     -0.823913
      16A     -0.766327    17A     -0.699095    18A     -0.688851
      19A     -0.670247    20A     -0.637071    21A     -0.596174
      22A     -0.593104    23A     -0.581582    24A     -0.550618
      25A     -0.541530    26A     -0.518691    27A     -0.499495
      28A     -0.478368    29A     -0.470887    30A     -0.459657
      31A     -0.454648    32A     -0.443199

  @DF-RHF Final Energy:  -383.94152977685383

   => Energetics <=

    Nuclear Repulsion Energy =            378.9151123532918746
    One-Electron Energy =               -1273.8385866463424918
    Two-Electron Energy =                 510.9819445161966769
    DFT Exchange-Correlation Energy =       0.0000000000000000
    Empirical Dispersion Energy =           0.0000000000000000
    PCM Polarization Energy =               0.0000000000000000
    EFP Energy =                            0.0000000000000000
    Total Energy =                       -383.9415297768539403

  Mulliken Charges: (a.u.)
   Center  Symbol    Alpha    Beta     Spin     Total
       1     H     0.26787  0.26787  0.00000  0.46427
       2     O     4.35157  4.35157  0.00000 -0.70313
       3     C     2.62116  2.62116  0.00000  0.75768
       4     C     3.21792  3.21792  0.00000 -0.43585
       5     O     4.27925  4.27925  0.00000 -0.55850
       6     C     3.15501  3.15501  0.00000 -0.31002
       7     H     0.39603  0.39603  0.00000  0.20795
       8     H     0.39819  0.39819  0.00000  0.20361
       9     C     3.15541  3.15541  0.00000 -0.31082
      10     H     0.41076  0.41076  0.00000  0.17848
      11     H     0.40727  0.40727  0.00000  0.18546
      12     C     3.15950  3.15950  0.00000 -0.31899
      13     H     0.41813  0.41813  0.00000  0.16375
      14     H     0.42014  0.42014  0.00000  0.15971
      15     C     3.23787  3.23787  0.00000 -0.47574
      16     H     0.42241  0.42241  0.00000  0.15517
      17     H     0.42111  0.42111  0.00000  0.15778
      18     H     0.41858  0.41858  0.00000  0.16285
      19     H     0.42082  0.42082  0.00000  0.15835
      20     H     0.42100  0.42100  0.00000  0.15800

   Total alpha = 32.00000, Total beta = 32.00000, Total charge =  0.00000
