  ==> Input File <==

--------------------------------------------------------------------------
set {
	reference rhf
	basis 6-31G*
}

set_num_threads( 4 )
memory 2 gb

molecule MOL {
0 1

O	 2.862325	 1.357334	 0.000267
C	 2.843464	 0.164689	 -0.000222
C	 1.546494	 -0.624492	 -0.000609
C	 4.124123	 -0.644674	 -0.000428
C	 0.291004	 0.242674	 0.000989
H	 1.557904	 -1.283758	 -0.867573
H	 1.558622	 -1.285963	 0.864672
C	 -0.108668	 0.698242	 -1.403462
H	 0.456445	 1.106965	 0.636409
H	 -0.523960	 -0.312082	 0.455112
C	 -1.365723	 1.569697	 -1.413980
H	 0.714349	 1.250888	 -1.854319
H	 -0.271451	 -0.173358	 -2.035825
C	 -1.771871	 2.029521	 -2.815272
H	 -1.203880	 2.441664	 -0.782712
H	 -2.189337	 1.017937	 -0.964294
C	 -3.028225	 2.899725	 -2.817550
H	 -0.949804	 2.582212	 -3.265340
H	 -1.935399	 1.158735	 -3.446817
H	 -2.884910	 3.796556	 -2.221475
H	 -3.290344	 3.210288	 -3.824299
H	 -3.877773	 2.362624	 -2.405318
H	 4.165367	 -1.288615	 -0.874074
H	 4.976217	 0.020734	 -0.001915
H	 4.166763	 -1.286207	 0.874930

	symmetry c1
}
set optking {
	frozen_dihedral = ("
		9 5 3 6
	")
}

ee = optimize('scf')
oeprop('DIPOLE', 'QUADRUPOLE', 'MULLIKEN_CHARGES')
f=open( 'psi4out.xyz', 'w' )
f.write( "25  " )
f.write( str(ee) + "\n" )
f.write( MOL.save_string_xyz() )
f.close()
--------------------------------------------------------------------------

    Molecular point group: c1
  Charge       = 0
  Multiplicity = 1
  Basis Set: 6-31G*
  Basis Set:
  @DF-RHF Final Energy:  -387.13518139541924
    Total Energy =                       -387.1351813954194085
    Molecular point group: c1
  Basis Set: 6-31G*
  Basis Set:
  Basis Set: 6-31G*
  Basis Set:
  @DF-RHF Final Energy:  -387.13535621612601
    Total Energy =                       -387.1353562161258424
  Basis Set: 6-31G*
  Basis Set:
  Basis Set: 6-31G*
  Basis Set:
  @DF-RHF Final Energy:  -387.13405098877308
    Total Energy =                       -387.1340509887737653
  Basis Set: 6-31G*
  Basis Set:
  Basis Set: 6-31G*
  Basis Set:
  @DF-RHF Final Energy:  -387.13542457715283
    Total Energy =                       -387.1354245771533442
  Basis Set: 6-31G*
  Basis Set:
  @DF-RHF Final Energy:  -387.13543354248816
    Total Energy =                       -387.1354335424882720
  @DF-RHF Final Energy:  -387.13543587081620
    Total Energy =                       -387.1354358708159680
  Basis Set: 6-31G*
  Basis Set:
  @DF-RHF Final Energy:  -387.13543868796222
    Total Energy =                       -387.1354386879631875
  Basis Set: 6-31G*
  Basis Set:
  Basis Set: 6-31G*
  Basis Set:
  @DF-RHF Final Energy:  -387.13544431591691
    Total Energy =                       -387.1354443159166294
  Basis Set: 6-31G*
  Basis Set:
  Basis Set: 6-31G*
  Basis Set:
  @DF-RHF Final Energy:  -387.13544669256095
    Total Energy =                       -387.1354466925602082
  Basis Set: 6-31G*
  Basis Set:
  Charge       = 0
  Multiplicity = 1
  Basis Set: 6-31G*
  Basis Set:

    Orbital Energies (a.u.)
    -----------------------

    Doubly Occupied:

       1A    -20.551596     2A    -11.327391     3A    -11.232217
       4A    -11.228955     5A    -11.216271     6A    -11.211883
       7A    -11.211217     8A    -11.209752     9A    -11.205650
      10A     -1.396919    11A     -1.090590    12A     -1.054471
      13A     -1.013690    14A     -0.967013    15A     -0.888599
      16A     -0.814331    17A     -0.787423    18A     -0.728021
      19A     -0.668636    20A     -0.637126    21A     -0.633097
      22A     -0.622665    23A     -0.590816    24A     -0.584532
      25A     -0.574221    26A     -0.556093    27A     -0.533295
      28A     -0.524966    29A     -0.515959    30A     -0.497090
      31A     -0.481653    32A     -0.474187    33A     -0.460224
      34A     -0.458394    35A     -0.439715    36A     -0.401380

  @DF-RHF Final Energy:  -387.13544703985042

   => Energetics <=

    Nuclear Repulsion Energy =            446.9395237909626530
    One-Electron Energy =               -1410.5698632548753721
    Two-Electron Energy =                 576.4948924240618453
    DFT Exchange-Correlation Energy =       0.0000000000000000
    Empirical Dispersion Energy =           0.0000000000000000
    PCM Polarization Energy =               0.0000000000000000
    EFP Energy =                            0.0000000000000000
    Total Energy =                       -387.1354470398508738
    Molecular point group: c1
  Basis Set: 6-31G*
  Basis Set:

  -Total Gradient:
     Atom            X                  Y                   Z
    ------   -----------------  -----------------  -----------------
       1        0.000003207004    -0.000004144727     0.000021495094
       2        0.000010015505     0.000012547589     0.000004608931
       3       -0.001347038194    -0.001963440597     0.001263365137
       4       -0.000003034027    -0.000002010735    -0.000006706186
       5       -0.000782749868    -0.001102097648     0.002136968686
       6        0.001231154772     0.001786496256    -0.001388073133
       7        0.000012569154     0.000004827099    -0.000000341243
       8       -0.000003028023     0.000020043090     0.000001042756
       9        0.000895124516     0.001268217133    -0.002032451760
      10       -0.000002350123    -0.000009854616    -0.000000632288
      11       -0.000000525345     0.000002308913    -0.000006325557
      12        0.000005333003    -0.000004791203    -0.000003182432
      13       -0.000004969872    -0.000000768244     0.000005346862
      14       -0.000000236076     0.000004504559     0.000004549066
      15       -0.000002221647    -0.000003323291    -0.000002569755
      16       -0.000004393463    -0.000004007335    -0.000000847488
      17        0.000001116868     0.000000689993    -0.000001113832
      18        0.000002355457    -0.000004463362    -0.000001813239
      19       -0.000005024526     0.000000770123     0.000002298537
      20        0.000000622539    -0.000001344193     0.000000389810
      21       -0.000000800283     0.000001877718    -0.000000221101
      22       -0.000000648047     0.000000126141    -0.000000702688
      23       -0.000005746567    -0.000014340531     0.000005044743
      24       -0.000002908820     0.000001317309    -0.000009539404
      25        0.000004176062     0.000010860559     0.000009410480

  **** Optimization is complete! (in 10 steps) ****
    Final optimized geometry and variables:
    Molecular point group: c1

    Geometry (in Angstrom), charge = 0, multiplicity = 1:

    O            2.251690928665     0.501428185350     1.002647910741
    C            2.235970086221    -0.690654153618     0.960463518781
    C            0.944464159965    -1.494036498977     0.985068415616
    C            3.519268749042    -1.491718525700     0.879545602933
    C           -0.325189922663    -0.640990918380     0.956452813236
    H            0.974425589299    -2.173967300264     0.135251139969
    H            0.975657581910    -2.122240253701     1.873228121514
    C           -0.710257233407    -0.186846271495    -0.454145704939
    H           -0.170630881620     0.236643362910     1.573262250157
    H           -1.145273139461    -1.207652573293     1.389085813079
    C           -1.957669238874     0.697400760620    -0.475994836019
    H            0.122074633882     0.356497940283    -0.893639633602
    H           -0.879208965638    -1.061511130328    -1.081345097858
    C           -2.353739475404     1.149360368032    -1.882742795131
    H           -1.786226103486     1.573200815802     0.146912614104
    H           -2.790351144518     0.159582466341    -0.024603571081
    C           -3.597729715020     2.037044931077    -1.896964944480
    H           -1.522516656932     1.686164787264    -2.334596970897
    H           -2.527810915366     0.275046530931    -2.506728401259
    H           -3.442837736891     2.937658562753    -1.309615807975
    H           -3.853117936168     2.341307553384    -2.907407465322
    H           -4.456046770149     1.516266719180    -1.481567448156
    H            3.564659616598    -2.025934394788    -0.065332119728
    H            4.369318434755    -0.828174091879     0.956295456411
    H            3.561347759828    -2.233441712509     1.671373730083

  Mulliken Charges: (a.u.)
   Center  Symbol    Alpha    Beta     Spin     Total
       1     O     4.26206  4.26206  0.00000 -0.52412
       2     C     2.73690  2.73690  0.00000  0.52620
       3     C     3.21157  3.21157  0.00000 -0.42315
       4     C     3.28685  3.28685  0.00000 -0.57370
       5     C     3.15271  3.15271  0.00000 -0.30542
       6     H     0.41041  0.41041  0.00000  0.17918
       7     H     0.40604  0.40604  0.00000  0.18793
       8     C     3.15587  3.15587  0.00000 -0.31174
       9     H     0.40408  0.40408  0.00000  0.19183
      10     H     0.42082  0.42082  0.00000  0.15835
      11     C     3.15153  3.15153  0.00000 -0.30306
      12     H     0.41334  0.41334  0.00000  0.17333
      13     H     0.42776  0.42776  0.00000  0.14448
      14     C     3.15155  3.15155  0.00000 -0.30311
      15     H     0.42033  0.42033  0.00000  0.15935
      16     H     0.42581  0.42581  0.00000  0.14839
      17     C     3.23929  3.23929  0.00000 -0.47859
      18     H     0.42165  0.42165  0.00000  0.15670
      19     H     0.42454  0.42454  0.00000  0.15092
      20     H     0.42105  0.42105  0.00000  0.15790
      21     H     0.41987  0.41987  0.00000  0.16025
      22     H     0.42258  0.42258  0.00000  0.15484
      23     H     0.40740  0.40740  0.00000  0.18521
      24     H     0.39643  0.39643  0.00000  0.20714
      25     H     0.40956  0.40956  0.00000  0.18087

   Total alpha = 36.00000, Total beta = 36.00000, Total charge =  0.00000
