                              Psi4 1.0.54 Driver

  ==> Input File <==

--------------------------------------------------------------------------
set {
	reference rhf
	basis cc-pvtz
}

set_num_threads( 4 )
memory 2 gb

molecule MOL {
0 1

H	 2.489930	 -1.237810	 -1.085652
N	 1.511520	 -1.049876	 -1.103063
C	 1.250156	 0.335394	 -0.767564
C	 0.800590	 -1.954578	 -0.222190
H	 1.777421	 0.974398	 -1.465430
H	 1.586915	 0.588358	 0.239521
C	 -0.240822	 0.603931	 -0.862152
H	 1.002090	 -2.974939	 -0.524866
H	 1.108946	 -1.846294	 0.819352
C	 -0.689799	 -1.683039	 -0.317493
H	 -0.554655	 0.503408	 -1.905222
H	 -0.444870	 1.622762	 -0.554798
N	 -0.976577	 -0.298712	 -0.000000
H	 -1.218485	 -2.317832	 0.383684
H	 -1.034562	 -1.941115	 -1.323041
C	 -2.391156	 -0.021003	 -0.000000
H	 -2.853954	 -0.458728	 -0.875714
H	 -2.853954	 -0.458728	 0.875714
H	 -2.614037	 1.049773	 -0.000000

	symmetry c1
}
set optking {
	frozen_dihedral = ("
		7 13 16 19
	")
}

ee,wfn = optimize('scf', return_wfn=True)
oeprop( wfn, 'DIPOLE', 'QUADRUPOLE', 'MULLIKEN_CHARGES')
f=open( 'psi4out.xyz', 'w' )
f.write( "19  " )
f.write( str(ee) + "\n" )
f.write( MOL.save_string_xyz() )
f.close()
--------------------------------------------------------------------------

    Molecular point group: c1
  Charge       = 0
  Multiplicity = 1
  Basis Set: CC-PVTZ
  Basis Set:
  @DF-RHF Final Energy:  -305.30721173452031
    Total Energy =                       -305.3072117345204219
    Molecular point group: c1
  Basis Set: CC-PVTZ
  Basis Set:
  Basis Set: CC-PVTZ
  Basis Set:
  @DF-RHF Final Energy:  -305.30795143347433
    Total Energy =                       -305.3079514334744999
  Basis Set: CC-PVTZ
  Basis Set:
  Basis Set: CC-PVTZ
  Basis Set:
  @DF-RHF Final Energy:  -305.30804334194426
    Total Energy =                       -305.3080433419441988
  Basis Set: CC-PVTZ
  Basis Set:
  Basis Set: CC-PVTZ
  Basis Set:
  @DF-RHF Final Energy:  -305.30804614939217
    Total Energy =                       -305.3080461493920552
  Basis Set: CC-PVTZ
  Basis Set:
  Charge       = 0
  Multiplicity = 1
  Basis Set: CC-PVTZ
  Basis Set:

    Orbital Energies (a.u.)
    -----------------------

    Doubly Occupied:

       1A    -15.535108     2A    -15.531232     3A    -11.237199
       4A    -11.237178     5A    -11.236057     6A    -11.235831
       7A    -11.233278     8A     -1.248863     9A     -1.187330
      10A     -1.024293    11A     -0.965799    12A     -0.862249
      13A     -0.858306    14A     -0.756807    15A     -0.692695
      16A     -0.635028    17A     -0.627596    18A     -0.608085
      19A     -0.605921    20A     -0.582013    21A     -0.544471
      22A     -0.529416    23A     -0.512703    24A     -0.490138
      25A     -0.468903    26A     -0.458598    27A     -0.366080
      28A     -0.344534

  @DF-RHF Final Energy:  -305.30804654728388

   => Energetics <=

    Nuclear Repulsion Energy =            340.1903540292040589
    One-Electron Energy =               -1087.7653800226657950
    Two-Electron Energy =                 442.2669794461779702
    DFT Exchange-Correlation Energy =       0.0000000000000000
    Empirical Dispersion Energy =           0.0000000000000000
    PCM Polarization Energy =               0.0000000000000000
    EFP Energy =                            0.0000000000000000
    Total Energy =                       -305.3080465472837659
    Molecular point group: c1
  Basis Set: CC-PVTZ
  Basis Set:

  -Total Gradient:
     Atom            X                  Y                   Z
    ------   -----------------  -----------------  -----------------
       1        0.000001420901     0.000004499743    -0.000000597545
       2       -0.000002262018    -0.000000019717    -0.000003941205
       3        0.000004005347     0.000007300818     0.000009928127
       4       -0.000012640976     0.000000836950    -0.000005263033
       5        0.000006499490    -0.000000107146    -0.000002461360
       6       -0.000001449822     0.000001944337     0.000000633218
       7        0.000373049694     0.001586445609     0.001946933960
       8        0.000005337307    -0.000004323884    -0.000000600616
       9       -0.000004807977     0.000002011368    -0.000007239275
      10       -0.000008617741    -0.000018468212     0.000004510744
      11       -0.000007115640    -0.000007145479     0.000014741673
      12        0.000003424119    -0.000001339294     0.000001175732
      13       -0.000511796041    -0.002197807805    -0.003596978650
      14       -0.000006106827     0.000001213126     0.000000489723
      15        0.000007879893     0.000010942795     0.000011358835
      16        0.000198477226     0.000572528671     0.004995151178
      17       -0.000005299950    -0.000005052383    -0.000001037047
      18        0.000020635237    -0.000006401818    -0.000023779492
      19       -0.000060632223     0.000052942320    -0.003343024968

  **** Optimization is complete! (in 5 steps) ****
    Final optimized geometry and variables:
    Molecular point group: c1

    Geometry (in Angstrom), charge = 0, multiplicity = 1:

    H            2.596538722349    -0.689946221827    -0.611285072720
    N            1.620073209371    -0.491847952597    -0.628539235054
    C            1.374338739285     0.898921297384    -0.304433431333
    C            0.901121307638    -1.381501243891     0.260965498620
    H            1.914301316976     1.526567297471    -1.003013118154
    H            1.708339327324     1.153720648154     0.703283819640
    C           -0.112656128601     1.187858061837    -0.408647695322
    H            1.094744370641    -2.406828765495    -0.030123152430
    H            1.209217320884    -1.264106138157     1.301683471113
    C           -0.586600016179    -1.097827910294     0.159402529412
    H           -0.418196148490     1.096879967620    -1.455552062057
    H           -0.303527729508     2.207781055455    -0.097967687479
    N           -0.861795252112     0.292687468400     0.447418765347
    H           -1.123244674212    -1.713874798958     0.871940926656
    H           -0.933589940257    -1.372565470706    -0.841117663904
    C           -2.274454304111     0.580539023453     0.479381116658
    H           -2.800436662888     0.197967108869    -0.400291435938
    H           -2.731748952871     0.142575725454     1.358242350474
    H           -2.434228574301     1.650679581175     0.498126760206

  Mulliken Charges: (a.u.)
   Center  Symbol    Alpha    Beta     Spin     Total
       1     H     0.43993  0.43993  0.00000  0.12015
       2     N     3.64283  3.64283  0.00000 -0.28565
       3     C     3.04153  3.04153  0.00000 -0.08306
       4     C     3.04066  3.04066  0.00000 -0.08132
       5     H     0.45252  0.45252  0.00000  0.09496
       6     H     0.46570  0.46570  0.00000  0.06860
       7     C     3.03238  3.03238  0.00000 -0.06476
       8     H     0.45247  0.45247  0.00000  0.09505
       9     H     0.46560  0.46560  0.00000  0.06881
      10     C     3.03426  3.03426  0.00000 -0.06852
      11     H     0.47002  0.47002  0.00000  0.05996
      12     H     0.45416  0.45416  0.00000  0.09168
      13     N     3.61416  3.61416  0.00000 -0.22831
      14     H     0.45460  0.45460  0.00000  0.09080
      15     H     0.46811  0.46811  0.00000  0.06378
      16     C     3.09610  3.09610  0.00000 -0.19220
      17     H     0.47007  0.47007  0.00000  0.05986
      18     H     0.45095  0.45095  0.00000  0.09810
      19     H     0.45397  0.45397  0.00000  0.09206

   Total alpha = 28.00000, Total beta = 28.00000, Total charge = -0.00000

*** Psi4 exiting successfully. Buy a developer a beer!
