                              Psi4 1.0.54 Driver

  ==> Input File <==

--------------------------------------------------------------------------
set {
	reference rhf
	basis cc-pvtz
}

set_num_threads( 4 )
memory 2 gb

molecule MOL {
0 1

H	 3.625052	 0.017499	 -0.867883
N	 3.091268	 -0.241216	 -0.065538
C	 1.860978	 0.530248	 0.016256
H	 3.666347	 -0.080764	 0.735017
C	 0.644130	 -0.381765	 -0.031064
H	 1.835721	 1.204666	 -0.833114
H	 1.808789	 1.151975	 0.911067
C	 -0.678115	 0.376691	 0.025731
H	 0.693998	 -0.977147	 -0.936845
H	 0.693309	 -1.082142	 0.800523
C	 -1.900706	 -0.535531	 -0.022488
H	 -0.725296	 1.079516	 -0.802982
H	 -0.715474	 0.974884	 0.933278
C	 -3.220513	 0.226854	 0.028039
H	 -1.865036	 -1.134397	 -0.928236
H	 -1.857948	 -1.236381	 0.806820
H	 -3.309098	 0.911849	 -0.808725
H	 -4.066838	 -0.449485	 -0.008086
H	 -3.301685	 0.809374	 0.939860

	symmetry c1
}
set optking {
	frozen_dihedral = ("
		1 2 3 6
	")
}

ee,wfn = optimize('scf', return_wfn=True)
oeprop( wfn, 'DIPOLE', 'QUADRUPOLE', 'MULLIKEN_CHARGES')
f=open( 'psi4out.xyz', 'w' )
f.write( "19  " )
f.write( str(ee) + "\n" )
f.write( MOL.save_string_xyz() )
f.close()
--------------------------------------------------------------------------

    Molecular point group: c1
  Charge       = 0
  Multiplicity = 1
  Basis Set: CC-PVTZ
  Basis Set:
  @DF-RHF Final Energy:  -251.44452630667374
    Total Energy =                       -251.4445263066736516
    Molecular point group: c1
  Basis Set: CC-PVTZ
  Basis Set:
  Basis Set: CC-PVTZ
  Basis Set:
  @DF-RHF Final Energy:  -251.44506598618366
    Total Energy =                       -251.4450659861835788
  Basis Set: CC-PVTZ
  Basis Set:
  Basis Set: CC-PVTZ
  Basis Set:
  @DF-RHF Final Energy:  -251.44521868999584
    Total Energy =                       -251.4452186899957269
  Basis Set: CC-PVTZ
  Basis Set:
  Basis Set: CC-PVTZ
  Basis Set:
  @DF-RHF Final Energy:  -251.44522190144170
    Total Energy =                       -251.4452219014419256
  Basis Set: CC-PVTZ
  Basis Set:
  Charge       = 0
  Multiplicity = 1
  Basis Set: CC-PVTZ
  Basis Set:

    Orbital Energies (a.u.)
    -----------------------

    Doubly Occupied:

       1A    -15.524828     2A    -11.238832     3A    -11.209851
       4A    -11.207724     5A    -11.204008     6A    -11.201448
       7A     -1.174654     8A     -1.071976     9A     -0.998142
      10A     -0.900588    11A     -0.810583    12A     -0.785617
      13A     -0.677738    14A     -0.635690    15A     -0.615162
      16A     -0.577747    17A     -0.570128    18A     -0.556094
      19A     -0.516701    20A     -0.506117    21A     -0.471851
      22A     -0.462609    23A     -0.458050    24A     -0.457263
      25A     -0.378847

  @DF-RHF Final Energy:  -251.44522266880264

   => Energetics <=

    Nuclear Repulsion Energy =            245.5329500544142149
    One-Electron Energy =                -825.5318507379425910
    Two-Electron Energy =                 328.5536780147255058
    DFT Exchange-Correlation Energy =       0.0000000000000000
    Empirical Dispersion Energy =           0.0000000000000000
    PCM Polarization Energy =               0.0000000000000000
    EFP Energy =                            0.0000000000000000
    Total Energy =                       -251.4452226688028986
    Molecular point group: c1
  Basis Set: CC-PVTZ
  Basis Set:

  -Total Gradient:
     Atom            X                  Y                   Z
    ------   -----------------  -----------------  -----------------
       1       -0.000172222886    -0.000203299602    -0.000166003544
       2        0.000262030170     0.000227478002     0.000214763383
       3       -0.000262255153    -0.000247192125    -0.000225920737
       4        0.000014957868     0.000018873894     0.000018318089
       5        0.000063325735     0.000038938053     0.000024140306
       6        0.000134351374     0.000179546199     0.000135778385
       7       -0.000032841102    -0.000027160903    -0.000000104470
       8        0.000010697490    -0.000011542247    -0.000002173493
       9        0.000018114046     0.000024263281     0.000006563389
      10        0.000002346969     0.000002562311    -0.000003542571
      11       -0.000022454979     0.000019890864    -0.000006574841
      12        0.000005871750    -0.000008828290     0.000009394778
      13       -0.000001897434    -0.000006386367    -0.000006197120
      14       -0.000016546744    -0.000016907742     0.000004560904
      15        0.000002022109     0.000001194079    -0.000000586224
      16       -0.000001747589     0.000008433770    -0.000003541101
      17        0.000003784779    -0.000004694858     0.000001836517
      18       -0.000009185658     0.000004374752     0.000001961490
      19        0.000001649258     0.000000456931    -0.000002673141

  **** Optimization is complete! (in 5 steps) ****
    Final optimized geometry and variables:
    Molecular point group: c1

    Geometry (in Angstrom), charge = 0, multiplicity = 1:

    H            3.630748876000     0.020421615249    -0.973935713251
    N            3.100174363258    -0.237004675752    -0.172247297074
    C            1.856151953439     0.521551906951    -0.069591234164
    H            3.680497993902    -0.116383793124     0.627359507269
    C            0.635853890603    -0.390164517396    -0.052735954007
    H            1.773117519005     1.214933218077    -0.901267640939
    H            1.857616821009     1.131670202640     0.829358689247
    C           -0.682095544756     0.369960154474     0.054292241779
    H            0.643624978836    -0.994858505352    -0.954771953486
    H            0.732474240484    -1.083252287110     0.778023970878
    C           -1.906975548531    -0.540413488056     0.069916515747
    H           -0.767428037297     1.066521889608    -0.777267667262
    H           -0.678676448740     0.976900896266     0.957374811247
    C           -3.222572219628     0.223437683075     0.176741299299
    H           -1.914245612309    -1.145835749593    -0.832195215983
    H           -1.825568432951    -1.235363478998     0.901075108930
    H           -3.350067230589     0.902483210927    -0.659937613126
    H           -4.070271913976    -0.452232296907     0.185547087501
    H           -3.260376615543     0.812738347500     1.087069011254

  Mulliken Charges: (a.u.)
   Center  Symbol    Alpha    Beta     Spin     Total
       1     H     0.42564  0.42564  0.00000  0.14872
       2     N     3.69778  3.69778  0.00000 -0.39556
       3     C     3.04722  3.04722  0.00000 -0.09444
       4     H     0.42607  0.42607  0.00000  0.14786
       5     C     3.06198  3.06198  0.00000 -0.12395
       6     H     0.45750  0.45750  0.00000  0.08500
       7     H     0.45812  0.45812  0.00000  0.08375
       8     C     3.09748  3.09748  0.00000 -0.19496
       9     H     0.45618  0.45618  0.00000  0.08764
      10     H     0.45676  0.45676  0.00000  0.08647
      11     C     3.08260  3.08260  0.00000 -0.16521
      12     H     0.45707  0.45707  0.00000  0.08586
      13     H     0.45709  0.45709  0.00000  0.08581
      14     C     3.14967  3.14967  0.00000 -0.29934
      15     H     0.45428  0.45428  0.00000  0.09144
      16     H     0.45434  0.45434  0.00000  0.09131
      17     H     0.45573  0.45573  0.00000  0.08854
      18     H     0.44871  0.44871  0.00000  0.10257
      19     H     0.45575  0.45575  0.00000  0.08849

   Total alpha = 25.00000, Total beta = 25.00000, Total charge = -0.00000

*** Psi4 exiting successfully. Buy a developer a beer!
