  ==> Input File <==

--------------------------------------------------------------------------
set {
	reference rhf
	basis 6-31G*
}

set_num_threads( 1 )
memory 2 gb

molecule MOL {
0 1

H	 -3.261111	 -0.295142	 1.469456
C	 -3.306842	 -0.277400	 0.373456
C	 -2.660244	 0.921717	 -0.272021
O	 -3.838538	 -1.161155	 -0.216482
C	 -1.618517	 0.530748	 -1.329473
H	 -3.440115	 1.545975	 -0.692513
H	 -2.171253	 1.486792	 0.520591
C	 -2.223387	 -0.151400	 -2.559150
H	 -1.088776	 1.427048	 -1.638186
H	 -0.872384	 -0.121197	 -0.877799
C	 -1.175357	 -0.524976	 -3.609335
H	 -2.964217	 0.509491	 -3.004393
H	 -2.762655	 -1.047017	 -2.256496
C	 -1.785557	 -1.192402	 -4.844709
H	 -0.633210	 0.371296	 -3.900033
H	 -0.441989	 -1.195972	 -3.164002
C	 -0.765070	 -1.659406	 -5.889020
H	 -2.490297	 -0.507143	 -5.313169
H	 -2.368339	 -2.052980	 -4.523021
C	 0.006759	 -0.529804	 -6.573050
H	 -1.290149	 -2.232120	 -6.649441
H	 -0.062276	 -2.347304	 -5.423403
H	 -0.671879	 0.183061	 -7.034073
H	 0.634328	 0.014422	 -5.875232
H	 0.652532	 -0.922021	 -7.352882

	symmetry c1
}
set optking {
	frozen_dihedral = ("
		6 3 5 8,
		3 5 8 12,
		12 8 11 14,
		8 11 14 18,
		20 17 14 18
	")
}

ee = energy('scf')
oeprop('DIPOLE', 'QUADRUPOLE', 'MULLIKEN_CHARGES')
f=open( 'psi4out.xyz', 'w' )
f.write( "25  " )
f.write( str(ee) + "\n" )
f.write( MOL.save_string_xyz() )
f.close()
--------------------------------------------------------------------------

    Molecular point group: c1

    Geometry (in Angstrom), charge = 0, multiplicity = 1:

       Center              X                  Y                   Z               Mass
    ------------   -----------------  -----------------  -----------------  -----------------
           H         -1.332067720420     0.160610148575     4.248510633524     1.007825032070
           C         -1.377798720420     0.178352148575     3.152510633524    12.000000000000
           C         -0.731200720420     1.377469148575     2.507033633524    12.000000000000
           O         -1.909494720420    -0.705402851425     2.562572633524    15.994914619560
           C          0.310526279580     0.986500148575     1.449581633524    12.000000000000
           H         -1.511071720420     2.001727148575     2.086541633524     1.007825032070
           H         -0.242209720420     1.942544148575     3.299645633524     1.007825032070
           C         -0.294343720420     0.304352148575     0.219904633524    12.000000000000
           H          0.840267279580     1.882800148575     1.140868633524     1.007825032070
           H          1.056659279580     0.334555148575     1.901255633524     1.007825032070
           C          0.753686279580    -0.069223851425    -0.830280366476    12.000000000000
           H         -1.035173720420     0.965243148575    -0.225338366476     1.007825032070
           H         -0.833611720420    -0.591264851425     0.522558633524     1.007825032070
           C          0.143486279580    -0.736649851425    -2.065654366476    12.000000000000
           H          1.295833279580     0.827048148575    -1.120978366476     1.007825032070
           H          1.487054279580    -0.740219851425    -0.384947366476     1.007825032070
           C          1.163973279580    -1.203653851425    -3.109965366476    12.000000000000
           H         -0.561253720420    -0.051390851425    -2.534114366476     1.007825032070
           H         -0.439295720420    -1.597227851425    -1.743966366476     1.007825032070
           C          1.935802279580    -0.074051851425    -3.793995366476    12.000000000000
           H          0.638894279580    -1.776367851425    -3.870386366476     1.007825032070
           H          1.866767279580    -1.891551851425    -2.644348366476     1.007825032070
           H          1.257164279580     0.638813148575    -4.255018366476     1.007825032070
           H          2.563371279580     0.470174148575    -3.096177366476     1.007825032070
           H          2.581575279580    -0.466268851425    -4.573827366476     1.007825032070

  Charge       = 0
  Multiplicity = 1
  Basis Set: 6-31G*
  Basis Set:

    Orbital Energies (a.u.)
    -----------------------

    Doubly Occupied:

       1A    -20.564574     2A    -11.328853     3A    -11.235944
       4A    -11.228941     5A    -11.212013     6A    -11.209864
       7A    -11.209163     8A    -11.207267     9A    -11.205809
      10A     -1.406101    11A     -1.094455    12A     -1.063631
      13A     -1.008209    14A     -0.939680    15A     -0.873327
      16A     -0.810912    17A     -0.779504    18A     -0.770937
      19A     -0.681439    20A     -0.659492    21A     -0.627677
      22A     -0.611982    23A     -0.597520    24A     -0.587006
      25A     -0.564278    26A     -0.551064    27A     -0.536701
      28A     -0.513801    29A     -0.503081    30A     -0.495394
      31A     -0.484905    32A     -0.471029    33A     -0.456537
      34A     -0.451564    35A     -0.434525    36A     -0.403729

  @DF-RHF Final Energy:  -387.11800891157645

   => Energetics <=

    Nuclear Repulsion Energy =            445.6109067404898951
    One-Electron Energy =               -1407.8961457206803516
    Two-Electron Energy =                 575.1672300686152539
    DFT Exchange-Correlation Energy =       0.0000000000000000
    Empirical Dispersion Energy =           0.0000000000000000
    PCM Polarization Energy =               0.0000000000000000
    EFP Energy =                            0.0000000000000000
    Total Energy =                       -387.1180089115752025

  Mulliken Charges: (a.u.)
   Center  Symbol    Alpha    Beta     Spin     Total
       1     H     0.42721  0.42721  0.00000  0.14557
       2     C     2.84336  2.84336  0.00000  0.31329
       3     C     3.20468  3.20468  0.00000 -0.40936
       4     O     4.23482  4.23482  0.00000 -0.46963
       5     C     3.15856  3.15856  0.00000 -0.31712
       6     H     0.39931  0.39931  0.00000  0.20139
       7     H     0.41482  0.41482  0.00000  0.17035
       8     C     3.15901  3.15901  0.00000 -0.31802
       9     H     0.41609  0.41609  0.00000  0.16782
      10     H     0.41871  0.41871  0.00000  0.16258
      11     C     3.15427  3.15427  0.00000 -0.30853
      12     H     0.42587  0.42587  0.00000  0.14825
      13     H     0.39559  0.39559  0.00000  0.20883
      14     C     3.15257  3.15257  0.00000 -0.30515
      15     H     0.42478  0.42478  0.00000  0.15045
      16     H     0.42495  0.42495  0.00000  0.15009
      17     C     3.15231  3.15231  0.00000 -0.30462
      18     H     0.42465  0.42465  0.00000  0.15070
      19     H     0.41964  0.41964  0.00000  0.16072
      20     C     3.24085  3.24085  0.00000 -0.48169
      21     H     0.42116  0.42116  0.00000  0.15767
      22     H     0.42358  0.42358  0.00000  0.15284
      23     H     0.42271  0.42271  0.00000  0.15457
      24     H     0.42066  0.42066  0.00000  0.15867
      25     H     0.41985  0.41985  0.00000  0.16030

   Total alpha = 36.00000, Total beta = 36.00000, Total charge =  0.00000
