  ==> Input File <==

--------------------------------------------------------------------------
set {
	reference rhf
	basis 6-31G*
}

set_num_threads( 4 )
memory 2 gb

molecule MOL {
0 1

H	 1.851500	 2.728414	 -1.978470
O	 2.702019	 2.342799	 -2.130095
C	 3.229212	 1.867043	 -0.917751
C	 2.537998	 0.603958	 -0.416188
H	 4.273596	 1.659463	 -1.112292
H	 3.190808	 2.643603	 -0.154692
C	 1.061234	 0.800368	 -0.064817
H	 2.632771	 -0.166332	 -1.177133
H	 3.074768	 0.249810	 0.462347
C	 0.410347	 -0.471375	 0.486395
H	 0.524046	 1.128344	 -0.950382
H	 0.967413	 1.597932	 0.672360
C	 -1.046564	 -0.306878	 0.934382
H	 0.469519	 -1.257859	 -0.263798
H	 0.994542	 -0.818865	 1.335905
C	 -2.037799	 -0.007733	 -0.193645
H	 -1.355933	 -1.222627	 1.433893
H	 -1.105233	 0.480434	 1.684406
C	 -3.489788	 0.042957	 0.286558
H	 -1.942468	 -0.769017	 -0.966606
H	 -1.791350	 0.939623	 -0.667018
C	 -4.216917	 1.317354	 -0.141063
H	 -4.025645	 -0.823308	 -0.095450
H	 -3.513059	 -0.038752	 1.371301
H	 -4.239342	 1.411634	 -1.223113
H	 -5.243387	 1.322503	 0.212445
H	 -3.726170	 2.201406	 0.256408

	symmetry c1
}
set optking {
	frozen_dihedral = ("
		20 16 19 22
	")
}

ee = optimize('scf')
oeprop('DIPOLE', 'QUADRUPOLE', 'MULLIKEN_CHARGES')
f=open( 'psi4out.xyz', 'w' )
f.write( "27  " )
f.write( str(ee) + "\n" )
f.write( MOL.save_string_xyz() )
f.close()
--------------------------------------------------------------------------

    Molecular point group: c1
  Charge       = 0
  Multiplicity = 1
  Basis Set: 6-31G*
  Basis Set:
  @DF-RHF Final Energy:  -388.27612540208025
    Total Energy =                       -388.2761254020801971
    Molecular point group: c1
  Basis Set: 6-31G*
  Basis Set:
  Basis Set: 6-31G*
  Basis Set:
  @DF-RHF Final Energy:  -388.27636665718751
    Total Energy =                       -388.2763666571861449
  Basis Set: 6-31G*
  Basis Set:
  Basis Set: 6-31G*
  Basis Set:
  @DF-RHF Final Energy:  -388.27643895591291
    Total Energy =                       -388.2764389559129086
  Basis Set: 6-31G*
  Basis Set:
  Basis Set: 6-31G*
  Basis Set:
  @DF-RHF Final Energy:  -388.27643184114845
    Total Energy =                       -388.2764318411479962
  Basis Set: 6-31G*
  Basis Set:
  Basis Set: 6-31G*
  Basis Set:
  @DF-RHF Final Energy:  -388.27644666027510
    Total Energy =                       -388.2764466602747007
  Basis Set: 6-31G*
  Basis Set:
  Charge       = 0
  Multiplicity = 1
  Basis Set: 6-31G*
  Basis Set:

    Orbital Energies (a.u.)
    -----------------------

    Doubly Occupied:

       1A    -20.552309     2A    -11.267059     3A    -11.219855
       4A    -11.217066     5A    -11.215982     6A    -11.215824
       7A    -11.215228     8A    -11.214120     9A    -11.210016
      10A     -1.359064    11A     -1.094358    12A     -1.059905
      13A     -1.011128    14A     -0.948342    15A     -0.887901
      16A     -0.821284    17A     -0.802147    18A     -0.777702
      19A     -0.693752    20A     -0.649844    21A     -0.629181
      22A     -0.614175    23A     -0.609731    24A     -0.585156
      25A     -0.581251    26A     -0.550655    27A     -0.537553
      28A     -0.533526    29A     -0.505553    30A     -0.492009
      31A     -0.488429    32A     -0.473754    33A     -0.470762
      34A     -0.455954    35A     -0.451880    36A     -0.440309
      37A     -0.422742

  @DF-RHF Final Energy:  -388.27644632182944

   => Energetics <=

    Nuclear Repulsion Energy =            460.7255134434228694
    One-Electron Energy =               -1439.4529061687164813
    Two-Electron Energy =                 590.4509464034639450
    DFT Exchange-Correlation Energy =       0.0000000000000000
    Empirical Dispersion Energy =           0.0000000000000000
    PCM Polarization Energy =               0.0000000000000000
    EFP Energy =                            0.0000000000000000
    Total Energy =                       -388.2764463218296669
    Molecular point group: c1
  Basis Set: 6-31G*
  Basis Set:

  -Total Gradient:
     Atom            X                  Y                   Z
    ------   -----------------  -----------------  -----------------
       1        0.000000375895    -0.000000810992     0.000000737629
       2        0.000002466730    -0.000000702647    -0.000001082042
       3       -0.000003758339     0.000002732174     0.000001156261
       4        0.000000240425    -0.000002554440     0.000004289921
       5       -0.000000227048    -0.000000031835    -0.000000218273
       6        0.000000073900     0.000000127613     0.000000305939
       7        0.000002314503     0.000000340576     0.000003046029
       8       -0.000001982944    -0.000001891142     0.000000116623
       9        0.000002767866     0.000000301040    -0.000000721263
      10        0.000002563980     0.000027123907     0.000010146396
      11       -0.000001866202    -0.000008187993     0.000000037564
      12       -0.000003214442     0.000008059711     0.000002943913
      13        0.000003389059    -0.000003327591    -0.000004191051
      14       -0.000017544829     0.000009744389    -0.000005251847
      15       -0.000001115213    -0.000010925378     0.000005642937
      16       -0.000393457127     0.001996326111    -0.001349586011
      17        0.000032302438    -0.000010671788    -0.000012423294
      18       -0.000014231491    -0.000002510336     0.000001224544
      19       -0.000500394765    -0.001273895467    -0.001422696913
      20        0.000423399290    -0.001430855444     0.001488509538
      21        0.000001518007    -0.000001623733     0.000000908269
      22        0.000457872094     0.000702723300     0.001283882798
      23        0.000008896341    -0.000006452289    -0.000012314413
      24        0.000002641487     0.000013401266     0.000002192618
      25        0.000004529145    -0.000001436653     0.000005057679
      26       -0.000005462532     0.000001375284    -0.000004525937
      27       -0.000002096232    -0.000006377646     0.000002812387

  **** Optimization is complete! (in 6 steps) ****
    Final optimized geometry and variables:
    Molecular point group: c1

    Geometry (in Angstrom), charge = 0, multiplicity = 1:

    H            1.924352373990     2.005665643779    -1.696517074309
    O            2.773821169356     1.618611431025    -1.850367032805
    C            3.300875626972     1.137227186428    -0.640212236121
    C            2.608360823409    -0.127161497873    -0.143760625916
    H            4.344861706510     0.929141743131    -0.836256681692
    H            3.263908548003     1.910644367256     0.126099418946
    C            1.131940210318     0.069461670151     0.208772806184
    H            2.702040908620    -0.894409714489    -0.907905011463
    H            3.144909128039    -0.485590265509     0.733158149391
    C            0.478992539987    -1.204689365767     0.752244957316
    H            0.595629119763     0.403859313327    -0.674914454221
    H            1.039384915417     0.862686774535     0.950788571855
    C           -0.976654677368    -1.040595287644     1.202657487993
    H            0.536070524950    -1.986377334492    -0.003234832677
    H            1.063388335188    -1.558960669748     1.598871044367
    C           -1.971588362197    -0.737515639209     0.076633354716
    H           -1.287206881321    -1.957448090613     1.699520655564
    H           -1.035559873569    -0.255319824137     1.955126972018
    C           -3.436138966824    -0.679550026147     0.566394032801
    H           -1.867725484575    -1.507599453339    -0.684122291633
    H           -1.710815703267     0.202707548381    -0.399971812561
    C           -4.176610672316     0.583871874122     0.126668789324
    H           -3.977811200975    -1.554573690812     0.219044156543
    H           -3.457334525198    -0.729321197641     1.652297890778
    H           -4.206567134291     0.666662463945    -0.956307802823
    H           -5.200865603553     0.586826906561     0.487015216683
    H           -3.686649813729     1.474035599493     0.511454972235

  Mulliken Charges: (a.u.)
   Center  Symbol    Alpha    Beta     Spin     Total
       1     H     0.27990  0.27990  0.00000  0.44020
       2     O     4.37093  4.37093  0.00000 -0.74185
       3     C     2.99740  2.99740  0.00000  0.00520
       4     C     3.16084  3.16084  0.00000 -0.32169
       5     H     0.41444  0.41444  0.00000  0.17113
       6     H     0.43204  0.43204  0.00000  0.13591
       7     C     3.16326  3.16326  0.00000 -0.32653
       8     H     0.41497  0.41497  0.00000  0.17006
       9     H     0.42433  0.42433  0.00000  0.15135
      10     C     3.15277  3.15277  0.00000 -0.30554
      11     H     0.42295  0.42295  0.00000  0.15409
      12     H     0.42545  0.42545  0.00000  0.14910
      13     C     3.15579  3.15579  0.00000 -0.31158
      14     H     0.42170  0.42170  0.00000  0.15661
      15     H     0.42145  0.42145  0.00000  0.15710
      16     C     3.15619  3.15619  0.00000 -0.31237
      17     H     0.42063  0.42063  0.00000  0.15874
      18     H     0.42437  0.42437  0.00000  0.15126
      19     C     3.15447  3.15447  0.00000 -0.30895
      20     H     0.42090  0.42090  0.00000  0.15820
      21     H     0.42069  0.42069  0.00000  0.15861
      22     C     3.23995  3.23995  0.00000 -0.47989
      23     H     0.41973  0.41973  0.00000  0.16053
      24     H     0.42035  0.42035  0.00000  0.15930
      25     H     0.42151  0.42151  0.00000  0.15699
      26     H     0.42027  0.42027  0.00000  0.15946
      27     H     0.42273  0.42273  0.00000  0.15455

   Total alpha = 37.00000, Total beta = 37.00000, Total charge =  0.00000
