                              Psi4 1.0.54 Driver

  ==> Input File <==

--------------------------------------------------------------------------
set {
	reference rhf
	basis cc-pvtz
}

set_num_threads( 4 )
memory 2 gb

molecule MOL {
0 1

O	 -1.510770	 1.240811	 -0.054933
C	 -1.081510	 0.147522	 0.122720
C	 0.327029	 -0.064006	 0.641890
C	 -1.903028	 -1.084121	 -0.174656
C	 1.349460	 -0.017068	 -0.500215
H	 0.399029	 -1.014606	 1.159950
H	 0.538021	 0.726928	 1.350471
C	 2.168164	 -1.298943	 -0.601539
H	 0.838716	 0.159156	 -1.442512
H	 2.008035	 0.828585	 -0.340602
H	 2.889359	 -1.235132	 -1.407663
H	 1.532931	 -2.157429	 -0.791888
H	 2.712786	 -1.486742	 0.317150
H	 -1.341891	 -1.779207	 -0.789259
H	 -2.820449	 -0.808163	 -0.671328
H	 -2.133314	 -1.593056	 0.755831

	symmetry c1
}
set optking {
	frozen_dihedral = ("
		9 5 3 2
	")
}

ee,wfn = optimize('scf', return_wfn=True)
oeprop( wfn, 'DIPOLE', 'QUADRUPOLE', 'MULLIKEN_CHARGES')
f=open( 'psi4out.xyz', 'w' )
f.write( "16  " )
f.write( str(ee) + "\n" )
f.write( MOL.save_string_xyz() )
f.close()
--------------------------------------------------------------------------

    Molecular point group: c1
  Charge       = 0
  Multiplicity = 1
  Basis Set: CC-PVTZ
  Basis Set:
  @DF-RHF Final Energy:  -270.12324710308235
    Total Energy =                       -270.1232471030822921
    Molecular point group: c1
  Basis Set: CC-PVTZ
  Basis Set:
  Basis Set: CC-PVTZ
  Basis Set:
  @DF-RHF Final Energy:  -270.12347819366136
    Total Energy =                       -270.1234781936616969
  Basis Set: CC-PVTZ
  Basis Set:
  Basis Set: CC-PVTZ
  Basis Set:
  @DF-RHF Final Energy:  -270.12378052231298
    Total Energy =                       -270.1237805223126998
  Basis Set: CC-PVTZ
  Basis Set:
  Basis Set: CC-PVTZ
  Basis Set:
  @DF-RHF Final Energy:  -270.12390012046251
    Total Energy =                       -270.1239001204623378
  Basis Set: CC-PVTZ
  Basis Set:
  @DF-RHF Final Energy:  -270.12400648169432
    Total Energy =                       -270.1240064816942663
  Basis Set: CC-PVTZ
  Basis Set:
  @DF-RHF Final Energy:  -270.12403898235164
    Total Energy =                       -270.1240389823514647
  Basis Set: CC-PVTZ
  Basis Set:
  Basis Set: CC-PVTZ
  Basis Set:
  @DF-RHF Final Energy:  -270.12404940003739
    Total Energy =                       -270.1240494000373928
  Basis Set: CC-PVTZ
  Basis Set:
  Basis Set: CC-PVTZ
  Basis Set:
  @DF-RHF Final Energy:  -270.12405169710075
    Total Energy =                       -270.1240516971005832
  Basis Set: CC-PVTZ
  Basis Set:
  Charge       = 0
  Multiplicity = 1
  Basis Set: CC-PVTZ
  Basis Set:

    Orbital Energies (a.u.)
    -----------------------

    Doubly Occupied:

       1A    -20.537120     2A    -11.319585     3A    -11.234151
       4A    -11.228477     5A    -11.227177     6A    -11.221002
       7A     -1.397049     8A     -1.083680     9A     -1.012285
      10A     -0.953182    11A     -0.834234    12A     -0.736538
      13A     -0.657972    14A     -0.652450    15A     -0.615708
      16A     -0.599777    17A     -0.588019    18A     -0.561100
      19A     -0.543238    20A     -0.517480    21A     -0.502908
      22A     -0.484206    23A     -0.476766    24A     -0.400303

  @DF-RHF Final Energy:  -270.12405245193924

   => Energetics <=

    Nuclear Repulsion Energy =            238.8115429034756403
    One-Electron Energy =                -839.1023702685694161
    Two-Electron Energy =                 330.1667749131545975
    DFT Exchange-Correlation Energy =       0.0000000000000000
    Empirical Dispersion Energy =           0.0000000000000000
    PCM Polarization Energy =               0.0000000000000000
    EFP Energy =                            0.0000000000000000
    Total Energy =                       -270.1240524519391215
    Molecular point group: c1
  Basis Set: CC-PVTZ
  Basis Set:

  -Total Gradient:
     Atom            X                  Y                   Z
    ------   -----------------  -----------------  -----------------
       1       -0.000029565924     0.000048415240    -0.000000551715
       2       -0.000095811292    -0.000658971335     0.000019189817
       3        0.000223646844     0.001044291957    -0.000156651251
       4       -0.000040853216     0.000038449151     0.000053020532
       5       -0.000222561032    -0.001238635583     0.000094684973
       6       -0.000014717571    -0.000015139994     0.000032568855
       7       -0.000010717689     0.000005228560     0.000021661065
       8        0.000014984941    -0.000007438033    -0.000012074147
       9        0.000150131664     0.000828009873    -0.000015872480
      10        0.000006246800    -0.000010018552    -0.000004434555
      11        0.000008451782    -0.000002338764    -0.000009245902
      12       -0.000006178430     0.000005890471     0.000004476752
      13       -0.000000409431    -0.000000488619     0.000001950317
      14        0.000041049671    -0.000021113984    -0.000039942628
      15       -0.000019836269     0.000019775732    -0.000008806242
      16       -0.000003860848    -0.000035916119     0.000020026608

  **** Optimization is complete! (in 9 steps) ****
    Final optimized geometry and variables:
    Molecular point group: c1

    Geometry (in Angstrom), charge = 0, multiplicity = 1:

    O           -1.437219848620     1.512605098127     0.261100129716
    C           -0.952863382299     0.428002762052     0.258015316707
    C            0.476266301290     0.195979754512     0.701498218996
    C           -1.737412571933    -0.783096564043    -0.193106675390
    C            1.436186529670     0.016504187433    -0.502469253935
    H            0.508890918662    -0.687362655772     1.330809421777
    H            0.770201946182     1.043501879366     1.302893023128
    C            2.210840336262    -1.296723650400    -0.478178119779
    H            0.885853177298     0.093885552237    -1.434298013470
    H            2.134991468545     0.843234808281    -0.512889326658
    H            2.877922028850    -1.370661087792    -1.329022929597
    H            1.541946166266    -2.150454994377    -0.505740803937
    H            2.810038579910    -1.377457315414     0.422237061976
    H           -1.161553801929    -1.390438714714    -0.881337763149
    H           -2.660864914146    -0.472643003246    -0.657322534308
    H           -1.960394063155    -1.399847518745     0.671748420135

  Mulliken Charges: (a.u.)
   Center  Symbol    Alpha    Beta     Spin     Total
       1     O     4.17467  4.17467  0.00000 -0.34934
       2     C     2.85755  2.85755  0.00000  0.28490
       3     C     3.10030  3.10030  0.00000 -0.20059
       4     C     3.15699  3.15699  0.00000 -0.31398
       5     C     3.10050  3.10050  0.00000 -0.20099
       6     H     0.45141  0.45141  0.00000  0.09718
       7     H     0.43592  0.43592  0.00000  0.12816
       8     C     3.14697  3.14697  0.00000 -0.29393
       9     H     0.44815  0.44815  0.00000  0.10370
      10     H     0.43969  0.43969  0.00000  0.12063
      11     H     0.44673  0.44673  0.00000  0.10655
      12     H     0.45563  0.45563  0.00000  0.08874
      13     H     0.45202  0.45202  0.00000  0.09596
      14     H     0.45070  0.45070  0.00000  0.09860
      15     H     0.43490  0.43490  0.00000  0.13019
      16     H     0.44789  0.44789  0.00000  0.10422

   Total alpha = 24.00000, Total beta = 24.00000, Total charge = -0.00000

*** Psi4 exiting successfully. Buy a developer a beer!
