                              Psi4 1.0.54 Driver

  ==> Input File <==

--------------------------------------------------------------------------
set {
	reference rhf
	basis cc-pvtz
}

set_num_threads( 4 )
memory 2 gb

molecule MOL {
0 1

H	 2.210896	 0.085712	 -0.700579
O	 1.450374	 -0.474716	 -0.732095
C	 0.489979	 0.078084	 0.002623
C	 -0.763662	 -0.754014	 0.000816
O	 0.640236	 1.105717	 0.567694
C	 -2.038001	 0.074705	 -0.000833
H	 -0.712945	 -1.405886	 -0.864342
H	 -0.715137	 -1.405770	 0.866182
H	 -2.087267	 0.710831	 -0.874232
H	 -2.903419	 -0.576199	 -0.001922
H	 -2.089467	 0.710909	 0.872389

	symmetry c1
}
set optking {
	frozen_dihedral = ("
		2 3 4 7
	")
}

ee,wfn = optimize('scf', return_wfn=True)
oeprop( wfn, 'DIPOLE', 'QUADRUPOLE', 'MULLIKEN_CHARGES')
f=open( 'psi4out.xyz', 'w' )
f.write( "11  " )
f.write( str(ee) + "\n" )
f.write( MOL.save_string_xyz() )
f.close()
--------------------------------------------------------------------------

    Molecular point group: c1
  Charge       = 0
  Multiplicity = 1
  Basis Set: CC-PVTZ
  Basis Set:
  @DF-RHF Final Energy:  -266.95180999343802
    Total Energy =                       -266.9518099934379620
    Molecular point group: c1
  Basis Set: CC-PVTZ
  Basis Set:
  Basis Set: CC-PVTZ
  Basis Set:
  @DF-RHF Final Energy:  -266.95193479857858
    Total Energy =                       -266.9519347985784634
  Basis Set: CC-PVTZ
  Basis Set:
  Basis Set: CC-PVTZ
  Basis Set:
  @DF-RHF Final Energy:  -266.95209829860482
    Total Energy =                       -266.9520982986047670
  Basis Set: CC-PVTZ
  Basis Set:
  Basis Set: CC-PVTZ
  Basis Set:
  @DF-RHF Final Energy:  -266.95216599012861
    Total Energy =                       -266.9521659901285489
  Basis Set: CC-PVTZ
  Basis Set:
  Charge       = 0
  Multiplicity = 1
  Basis Set: CC-PVTZ
  Basis Set:

    Orbital Energies (a.u.)
    -----------------------

    Doubly Occupied:

       1A    -20.606721     2A    -20.539868     3A    -11.374589
       4A    -11.242411     5A    -11.221571     6A     -1.479200
       7A     -1.369790     8A     -1.066410     9A     -0.917973
      10A     -0.807900    11A     -0.706795    12A     -0.692854
      13A     -0.658362    14A     -0.604560    15A     -0.596679
      16A     -0.535569    17A     -0.527570    18A     -0.508422
      19A     -0.481809    20A     -0.447505

  @DF-RHF Final Energy:  -266.95216633618924

   => Energetics <=

    Nuclear Repulsion Energy =            180.0685561257744212
    One-Electron Energy =                -721.2683280359453875
    Two-Electron Energy =                 274.2476055739817866
    DFT Exchange-Correlation Energy =       0.0000000000000000
    Empirical Dispersion Energy =           0.0000000000000000
    PCM Polarization Energy =               0.0000000000000000
    EFP Energy =                            0.0000000000000000
    Total Energy =                       -266.9521663361891797
    Molecular point group: c1
  Basis Set: CC-PVTZ
  Basis Set:

  -Total Gradient:
     Atom            X                  Y                   Z
    ------   -----------------  -----------------  -----------------
       1        0.000073748841     0.000002627837    -0.000011161316
       2       -0.000355375413     0.000640107553    -0.000975043603
       3        0.000530889239    -0.001054445548     0.001558021045
       4       -0.000971660698     0.001474718752    -0.001277548150
       5        0.000068943011    -0.000011118435    -0.000066095668
       6        0.000016367733    -0.000030396278    -0.000008640857
       7        0.000654037754    -0.000999035047     0.000780101522
       8       -0.000014463687    -0.000015099091    -0.000011739452
       9        0.000015803112    -0.000006487592     0.000003100586
      10       -0.000012830210    -0.000008248167     0.000003127416
      11       -0.000005459680     0.000007376022     0.000005878478

  **** Optimization is complete! (in 5 steps) ****
    Final optimized geometry and variables:
    Molecular point group: c1

    Geometry (in Angstrom), charge = 0, multiplicity = 1:

    H            2.238829944482     0.079212405588    -0.612985527174
    O            1.475122090326    -0.473639294858    -0.687902895330
    C            0.496892890407     0.062978143318     0.033095258314
    C           -0.755903288627    -0.773930254906     0.024261268902
    O            0.632636577595     1.081590835640     0.618832856052
    C           -2.027211892806     0.064120664586     0.061795701157
    H           -0.729470453398    -1.439893829195    -0.826601770091
    H           -0.697359272289    -1.402409605353     0.908382971305
    H           -2.114653263537     0.679804238026    -0.825169474641
    H           -2.895794535955    -0.580377003081     0.110813765686
    H           -2.031554889889     0.716742888931     0.923026510628

  Mulliken Charges: (a.u.)
   Center  Symbol    Alpha    Beta     Spin     Total
       1     H     0.38053  0.38053  0.00000  0.23895
       2     O     4.15899  4.15899  0.00000 -0.31798
       3     C     2.80474  2.80474  0.00000  0.39053
       4     C     3.09456  3.09456  0.00000 -0.18912
       5     O     4.19501  4.19501  0.00000 -0.39002
       6     C     3.14178  3.14178  0.00000 -0.28355
       7     H     0.43682  0.43682  0.00000  0.12636
       8     H     0.44446  0.44446  0.00000  0.11107
       9     H     0.45212  0.45212  0.00000  0.09576
      10     H     0.44911  0.44911  0.00000  0.10178
      11     H     0.44189  0.44189  0.00000  0.11623

   Total alpha = 20.00000, Total beta = 20.00000, Total charge =  0.00000

*** Psi4 exiting successfully. Buy a developer a beer!
