                              Psi4 1.0.54 Driver

  ==> Input File <==

--------------------------------------------------------------------------
set {
	reference rhf
	basis cc-pvtz
}

set_num_threads( 4 )
memory 2 gb

molecule MOL {
0 1

H	 -3.436473	 1.252944	 -1.023892
O	 -3.458596	 0.315260	 -0.960865
C	 -3.176635	 -0.080824	 0.355601
C	 -1.763371	 0.265266	 0.799691
H	 -3.321825	 -1.153438	 0.379502
H	 -3.895468	 0.357385	 1.043382
C	 -0.673390	 -0.426948	 -0.013392
H	 -1.631049	 1.344913	 0.747560
H	 -1.664587	 -0.001624	 1.849167
C	 0.737842	 -0.043159	 0.423759
H	 -0.806103	 -0.190518	 -1.063345
H	 -0.797221	 -1.503753	 0.074146
C	 1.090847	 -0.561401	 1.816548
H	 1.447731	 -0.423627	 -0.304384
H	 0.838031	 1.040186	 0.410268
C	 2.465949	 -0.134426	 2.332917
H	 1.028547	 -1.647193	 1.821338
H	 0.337120	 -0.212968	 2.517341
C	 3.646973	 -0.713860	 1.557945
H	 2.550944	 -0.436867	 3.372187
H	 2.529615	 0.950628	 2.327970
H	 3.606606	 -1.798366	 1.540812
H	 4.586090	 -0.426669	 2.017098
H	 3.668174	 -0.367673	 0.531636

	symmetry c1
}
set optking {
	frozen_dihedral = ("
		13 10 7 11
	")
}

ee,wfn = optimize('scf', return_wfn=True)
oeprop( wfn, 'DIPOLE', 'QUADRUPOLE', 'MULLIKEN_CHARGES')
f=open( 'psi4out.xyz', 'w' )
f.write( "24  " )
f.write( str(ee) + "\n" )
f.write( MOL.save_string_xyz() )
f.close()
--------------------------------------------------------------------------

    Molecular point group: c1
  Charge       = 0
  Multiplicity = 1
  Basis Set: CC-PVTZ
  Basis Set:
  @DF-RHF Final Energy:  -349.37791970312702
    Total Energy =                       -349.3779197031270769
    Molecular point group: c1
  Basis Set: CC-PVTZ
  Basis Set:
  Basis Set: CC-PVTZ
  Basis Set:
  @DF-RHF Final Energy:  -349.37664823848405
    Total Energy =                       -349.3766482384841083
  Basis Set: CC-PVTZ
  Basis Set:
  Basis Set: CC-PVTZ
  Basis Set:
  @DF-RHF Final Energy:  -349.37844891498855
    Total Energy =                       -349.3784489149884394
  Basis Set: CC-PVTZ
  Basis Set:
  Basis Set: CC-PVTZ
  Basis Set:
  @DF-RHF Final Energy:  -349.37850284022772
    Total Energy =                       -349.3785028402280659
  Basis Set: CC-PVTZ
  Basis Set:
  Basis Set: CC-PVTZ
  Basis Set:
  @DF-RHF Final Energy:  -349.37852064014191
    Total Energy =                       -349.3785206401415735
  Basis Set: CC-PVTZ
  Basis Set:
  Basis Set: CC-PVTZ
  Basis Set:
  @DF-RHF Final Energy:  -349.37853097362301
    Total Energy =                       -349.3785309736230715
  Basis Set: CC-PVTZ
  Basis Set:
  Charge       = 0
  Multiplicity = 1
  Basis Set: CC-PVTZ
  Basis Set:

    Orbital Energies (a.u.)
    -----------------------

    Doubly Occupied:

       1A    -20.546241     2A    -11.265512     3A    -11.214641
       4A    -11.212883     5A    -11.210564     6A    -11.209980
       7A    -11.209124     8A    -11.205356     9A     -1.364133
      10A     -1.089893    11A     -1.048159    12A     -0.985602
      13A     -0.917452    14A     -0.854273    15A     -0.806058
      16A     -0.770932    17A     -0.682533    18A     -0.642380
      19A     -0.633047    20A     -0.619928    21A     -0.600575
      22A     -0.586424    23A     -0.560804    24A     -0.545644
      25A     -0.518068    26A     -0.509714    27A     -0.498686
      28A     -0.480343    29A     -0.469326    30A     -0.457523
      31A     -0.456849    32A     -0.438077    33A     -0.426386

  @DF-RHF Final Energy:  -349.37853102843269

   => Energetics <=

    Nuclear Repulsion Energy =            387.5423881907786381
    One-Electron Energy =               -1241.7676229941550901
    Two-Electron Energy =                 504.8467037749441602
    DFT Exchange-Correlation Energy =       0.0000000000000000
    Empirical Dispersion Energy =           0.0000000000000000
    PCM Polarization Energy =               0.0000000000000000
    EFP Energy =                            0.0000000000000000
    Total Energy =                       -349.3785310284322918
    Molecular point group: c1
  Basis Set: CC-PVTZ
  Basis Set:

  -Total Gradient:
     Atom            X                  Y                   Z
    ------   -----------------  -----------------  -----------------
       1       -0.000003302868     0.000002759508    -0.000004338372
       2       -0.000019530198     0.000036452296     0.000039001080
       3        0.000018820488    -0.000079321404    -0.000002513774
       4       -0.000020414390     0.000053217596    -0.000026178554
       5       -0.000001510040     0.000000025950     0.000008971449
       6        0.000003694536     0.000011860370    -0.000021927833
       7       -0.000079075682     0.000222733286     0.000092078733
       8        0.000007548978     0.000002720145     0.000004451849
       9       -0.000018209175     0.000010617195    -0.000027662984
      10       -0.000076886915     0.000196923758     0.000139494520
      11        0.000092276387    -0.000281784536    -0.000086793998
      12       -0.000006115175    -0.000002114702    -0.000013079738
      13        0.000091339640    -0.000165958336    -0.000099989363
      14        0.000010203239     0.000006143859     0.000004987091
      15        0.000005021752    -0.000007147292     0.000004647297
      16       -0.000005401340    -0.000015650918     0.000011778809
      17        0.000004486798     0.000013473031     0.000001984967
      18        0.000021104786    -0.000001686546    -0.000007810952
      19       -0.000004495228     0.000006824295    -0.000009684201
      20       -0.000002367857     0.000002030349    -0.000015527058
      21       -0.000005521012    -0.000019634131    -0.000002605286
      22       -0.000003146160     0.000010812823     0.000004358247
      23       -0.000004001756     0.000002294963    -0.000002261387
      24       -0.000004518803    -0.000005591558     0.000008619461

  **** Optimization is complete! (in 7 steps) ****
    Final optimized geometry and variables:
    Molecular point group: c1

    Geometry (in Angstrom), charge = 0, multiplicity = 1:

    H           -3.214610299587     1.770238697527    -1.469033861986
    O           -3.263630985613     0.837811862970    -1.577858469136
    C           -3.029247695996     0.201832699276    -0.349188346741
    C           -1.619325284441     0.414138521273     0.183071432312
    H           -3.206254278800    -0.852065468338    -0.523007246933
    H           -3.754046295015     0.532814638813     0.390287828333
    C           -0.533740462490    -0.162479482656    -0.723818945334
    H           -1.451424142984     1.481496843819     0.321404861122
    H           -1.568898921449    -0.032410387812     1.171104244115
    C            0.900386416326     0.142904939180    -0.285084486720
    H           -0.681746775415     0.222495946913    -1.725632892115
    H           -0.665404245783    -1.240102271263    -0.792540334650
    C            1.332277528227    -0.547091300593     1.008929981667
    H            1.565786849627    -0.153787050636    -1.088251589082
    H            1.020531879156     1.218752455328    -0.174538467639
    C            2.767542632273    -0.242440449028     1.444394519914
    H            1.214954086444    -1.622809291804     0.895454581075
    H            0.667438409967    -0.253012664212     1.814288951672
    C            3.849424273818    -0.792567301678     0.518030231721
    H            2.919081816594    -0.655899283000     2.436818717518
    H            2.890873786652     0.832907099362     1.543661586919
    H            3.746486857452    -1.865919254851     0.394272584842
    H            4.835994776465    -0.601406716877     0.924698448806
    H            3.811308494586    -0.341386240391    -0.465874285604

  Mulliken Charges: (a.u.)
   Center  Symbol    Alpha    Beta     Spin     Total
       1     H     0.39525  0.39525  0.00000  0.20949
       2     O     4.20367  4.20367  0.00000 -0.40734
       3     C     2.97538  2.97538  0.00000  0.04924
       4     C     3.10290  3.10290  0.00000 -0.20581
       5     H     0.45867  0.45867  0.00000  0.08266
       6     H     0.45991  0.45991  0.00000  0.08019
       7     C     3.09766  3.09766  0.00000 -0.19532
       8     H     0.45887  0.45887  0.00000  0.08225
       9     H     0.45260  0.45260  0.00000  0.09479
      10     C     3.10223  3.10223  0.00000 -0.20446
      11     H     0.43982  0.43982  0.00000  0.12035
      12     H     0.45399  0.45399  0.00000  0.09202
      13     C     3.09633  3.09633  0.00000 -0.19265
      14     H     0.44465  0.44465  0.00000  0.11069
      15     H     0.45487  0.45487  0.00000  0.09027
      16     C     3.08904  3.08904  0.00000 -0.17809
      17     H     0.45442  0.45442  0.00000  0.09117
      18     H     0.44833  0.44833  0.00000  0.10334
      19     C     3.15207  3.15207  0.00000 -0.30414
      20     H     0.44886  0.44886  0.00000  0.10228
      21     H     0.45502  0.45502  0.00000  0.08997
      22     H     0.45488  0.45488  0.00000  0.09024
      23     H     0.44685  0.44685  0.00000  0.10631
      24     H     0.45373  0.45373  0.00000  0.09254

   Total alpha = 33.00000, Total beta = 33.00000, Total charge = -0.00000

*** Psi4 exiting successfully. Buy a developer a beer!
