  ==> Input File <==

--------------------------------------------------------------------------
set {
	reference rhf
	basis cc-pvtz
}

set_num_threads( 4 )
memory 2 gb

molecule MOL {
0 1

H	 2.088774	 -0.476905	 0.772005
O	 1.583947	 -0.677544	 -0.001533
C	 0.489979	 0.078084	 0.002623
C	 -0.763662	 -0.754014	 0.000816
O	 0.539051	 1.259395	 -0.000088
C	 -2.038001	 0.074705	 -0.000833
H	 -0.712945	 -1.405886	 -0.864342
H	 -0.715137	 -1.405770	 0.866182
H	 -2.087267	 0.710831	 -0.874232
H	 -2.903419	 -0.576199	 -0.001922
H	 -2.089467	 0.710909	 0.872389

	symmetry c1
}
set optking {
	frozen_dihedral = ("
		1 2 3 5
	")
}

ee = optimize('scf')
oeprop('DIPOLE', 'QUADRUPOLE', 'MULLIKEN_CHARGES')
f=open( 'psi4out.xyz', 'w' )
f.write( "11  " )
f.write( str(ee) + "\n" )
f.write( MOL.save_string_xyz() )
f.close()
--------------------------------------------------------------------------

    Molecular point group: c1
  Charge       = 0
  Multiplicity = 1
  Basis Set: CC-PVTZ
  Basis Set:
  @DF-RHF Final Energy:  -266.93815391916604
    Total Energy =                       -266.9381539191661545
    Molecular point group: c1
  Basis Set: CC-PVTZ
  Basis Set:
  Basis Set: CC-PVTZ
  Basis Set:
  @DF-RHF Final Energy:  -266.93609815881234
    Total Energy =                       -266.9360981588124559
  Basis Set: CC-PVTZ
  Basis Set:
  Basis Set: CC-PVTZ
  Basis Set:
  @DF-RHF Final Energy:  -266.93921975823321
    Total Energy =                       -266.9392197582331505
  Basis Set: CC-PVTZ
  Basis Set:
  Basis Set: CC-PVTZ
  Basis Set:
  @DF-RHF Final Energy:  -266.93940646848000
    Total Energy =                       -266.9394064684802856
  Basis Set: CC-PVTZ
  Basis Set:
  Basis Set: CC-PVTZ
  Basis Set:
  @DF-RHF Final Energy:  -266.93941200240522
    Total Energy =                       -266.9394120024052199
  Basis Set: CC-PVTZ
  Basis Set:
  Charge       = 0
  Multiplicity = 1
  Basis Set: CC-PVTZ
  Basis Set:

    Orbital Energies (a.u.)
    -----------------------

    Doubly Occupied:

       1A    -20.592091     2A    -20.548788     3A    -11.374892
       4A    -11.242934     5A    -11.218968     6A     -1.467642
       7A     -1.371464     8A     -1.065212     9A     -0.914478
      10A     -0.805619    11A     -0.710764    12A     -0.684652
      13A     -0.661369    14A     -0.612604    15A     -0.573369
      16A     -0.528563    17A     -0.526683    18A     -0.504881
      19A     -0.490915    20A     -0.449033

  @DF-RHF Final Energy:  -266.93941287282848

   => Energetics <=

    Nuclear Repulsion Energy =            179.5973424468407700
    One-Electron Energy =                -720.3836689053123337
    Two-Electron Energy =                 273.8469135856429943
    DFT Exchange-Correlation Energy =       0.0000000000000000
    Empirical Dispersion Energy =           0.0000000000000000
    PCM Polarization Energy =               0.0000000000000000
    EFP Energy =                            0.0000000000000000
    Total Energy =                       -266.9394128728285409
    Molecular point group: c1
  Basis Set: CC-PVTZ
  Basis Set:

  -Total Gradient:
     Atom            X                  Y                   Z
    ------   -----------------  -----------------  -----------------
       1       -0.004567115385    -0.007348537246     0.005443663597
       2        0.005256531674     0.009224996371    -0.011035466674
       3        0.000052399987    -0.001925690239     0.014692566274
       4        0.000053872170     0.000005912668     0.000051404777
       5       -0.000792779431     0.000018575673    -0.009077626390
       6       -0.000006692525    -0.000011050356    -0.000029292167
       7        0.000002513185     0.000019639801    -0.000036948618
       8        0.000006570500     0.000008629315    -0.000025264881
       9        0.000003161344    -0.000002116466     0.000003551480
      10       -0.000005906291     0.000007310043     0.000005043803
      11       -0.000002555225     0.000002330435     0.000008368798

  **** Optimization is complete! (in 6 steps) ****
    Final optimized geometry and variables:
    Molecular point group: c1

    Geometry (in Angstrom), charge = 0, multiplicity = 1:

    H            2.192774651421    -0.506201194013     0.653919670460
    O            1.604666841106    -0.672489330425    -0.064674123773
    C            0.490501144515     0.086663719544     0.032390380757
    C           -0.763709393728    -0.743687828262     0.002811520980
    O            0.530650336160     1.262461752605     0.039875121024
    C           -2.042014309080     0.076733476016    -0.044564043447
    H           -0.680813631022    -1.405537644188    -0.852528990850
    H           -0.738104831910    -1.390099112092     0.874511715433
    H           -2.068099772807     0.703904848956    -0.925647146812
    H           -2.904510473033    -0.577942720669    -0.065138824673
    H           -2.123320741149     0.722006499914     0.819935163715

  Mulliken Charges: (a.u.)
   Center  Symbol    Alpha    Beta     Spin     Total
       1     H     0.38230  0.38230  0.00000  0.23540
       2     O     4.17508  4.17508  0.00000 -0.35016
       3     C     2.80330  2.80330  0.00000  0.39341
       4     C     3.09949  3.09949  0.00000 -0.19899
       5     O     4.17021  4.17021  0.00000 -0.34042
       6     C     3.13970  3.13970  0.00000 -0.27939
       7     H     0.43860  0.43860  0.00000  0.12279
       8     H     0.44571  0.44571  0.00000  0.10858
       9     H     0.44710  0.44710  0.00000  0.10580
      10     H     0.44987  0.44987  0.00000  0.10027
      11     H     0.44864  0.44864  0.00000  0.10272

   Total alpha = 20.00000, Total beta = 20.00000, Total charge = -0.00000
