  ==> Input File <==

--------------------------------------------------------------------------
set {
	reference rhf
	basis cc-pvtz
}

set_num_threads( 4 )
memory 2 gb

molecule MOL {
0 1

H	 -2.808000	 -0.878000	 -0.079000
N	 -1.874000	 -0.731000	 0.250000
C	 -1.354000	 0.539000	 -0.226000
H	 -1.311000	 -1.478000	 -0.108000
C	 0.072000	 0.726000	 0.248000
H	 -1.372000	 0.641000	 -1.312000
H	 -1.962000	 1.339000	 0.185000
O	 0.864000	 -0.261000	 -0.348000
H	 0.435000	 1.715000	 -0.029000
H	 0.111000	 0.638000	 1.331000
C	 2.192000	 -0.260000	 0.068000
H	 2.701000	 -1.057000	 -0.456000
H	 2.681000	 0.684000	 -0.168000
H	 2.274000	 -0.433000	 1.139000

	symmetry c1
}
ee = optimize('scf')
oeprop('DIPOLE', 'QUADRUPOLE', 'MULLIKEN_CHARGES')
f=open( 'psi4out.xyz', 'w' )
f.write( "14  " )
f.write( str(ee) + "\n" )
f.write( MOL.save_string_xyz() )
f.close()
--------------------------------------------------------------------------

    Molecular point group: c1
  Charge       = 0
  Multiplicity = 1
  Basis Set: CC-PVTZ
  Basis Set:
  @DF-RHF Final Energy:  -248.22611333992356
    Total Energy =                       -248.2261133399238133
    Molecular point group: c1
  Basis Set: CC-PVTZ
  Basis Set:
  Basis Set: CC-PVTZ
  Basis Set:
  @DF-RHF Final Energy:  -248.22619124231312
    Total Energy =                       -248.2261912423129502
  Basis Set: CC-PVTZ
  Basis Set:
  Basis Set: CC-PVTZ
  Basis Set:
  @DF-RHF Final Energy:  -248.22619592470386
    Total Energy =                       -248.2261959247039727
  Basis Set: CC-PVTZ
  Basis Set:
  Charge       = 0
  Multiplicity = 1
  Basis Set: CC-PVTZ
  Basis Set:

    Orbital Energies (a.u.)
    -----------------------

    Doubly Occupied:

       1A    -20.550810     2A    -15.523575     3A    -11.263962
       4A    -11.263666     5A    -11.239929     6A     -1.384664
       7A     -1.176055     8A     -1.000620     9A     -0.907676
      10A     -0.815804    11A     -0.685520    12A     -0.676173
      13A     -0.647404    14A     -0.612259    15A     -0.607630
      16A     -0.542203    17A     -0.530349    18A     -0.498043
      19A     -0.474560    20A     -0.420264    21A     -0.383936

  @DF-RHF Final Energy:  -248.22619658909423

   => Energetics <=

    Nuclear Repulsion Energy =            194.6992784086393158
    One-Electron Energy =                -723.4407443835170852
    Two-Electron Energy =                 280.5152693857833128
    DFT Exchange-Correlation Energy =       0.0000000000000000
    Empirical Dispersion Energy =           0.0000000000000000
    PCM Polarization Energy =               0.0000000000000000
    EFP Energy =                            0.0000000000000000
    Total Energy =                       -248.2261965890944566
    Molecular point group: c1
  Basis Set: CC-PVTZ
  Basis Set:

  -Total Gradient:
     Atom            X                  Y                   Z
    ------   -----------------  -----------------  -----------------
       1       -0.000020365802     0.000025462526    -0.000001895342
       2       -0.000025329407    -0.000004961062     0.000030333988
       3        0.000065843131     0.000035883308    -0.000079428077
       4        0.000035985287     0.000002755674     0.000000258602
       5       -0.000044903921    -0.000014635238     0.000051377578
       6       -0.000022169604    -0.000004613002    -0.000003533888
       7        0.000003811497    -0.000031806843     0.000019846478
       8       -0.000000295540    -0.000011576527    -0.000036233233
       9       -0.000017166007    -0.000010104804    -0.000010220591
      10        0.000009371979     0.000008871367     0.000021436453
      11        0.000004592329     0.000015851610     0.000008507474
      12        0.000006602008    -0.000004794898    -0.000001314729
      13        0.000001562507    -0.000002677755    -0.000001407863
      14        0.000002461544    -0.000003654358     0.000002273149

  **** Optimization is complete! (in 4 steps) ****
    Final optimized geometry and variables:
    Molecular point group: c1

    Geometry (in Angstrom), charge = 0, multiplicity = 1:

    H           -2.816458323565    -0.841656761917    -0.064678733282
    N           -1.878861367536    -0.711873367051     0.250183807443
    C           -1.341419029085     0.551458130586    -0.220230730938
    H           -1.333674122147    -1.468529608994    -0.105117712039
    C            0.082189752250     0.731516179162     0.254705037992
    H           -1.357065540845     0.652077842609    -1.304746490629
    H           -1.939897403379     1.357530549005     0.189796654120
    O            0.881194478661    -0.248324108714    -0.336237366387
    H            0.440900567323     1.722476033857    -0.020062647295
    H            0.119895521014     0.643586473131     1.338114523966
    C            2.208067163341    -0.234416938932     0.074171264955
    H            2.725498177237    -1.027053899432    -0.446767790155
    H            2.688376263694     0.712084606340    -0.164855479610
    H            2.295136800187    -0.403406495765     1.144883015697

  Mulliken Charges: (a.u.)
   Center  Symbol    Alpha    Beta     Spin     Total
       1     H     0.43022  0.43022  0.00000  0.13956
       2     N     3.69419  3.69419  0.00000 -0.38838
       3     C     3.02193  3.02193  0.00000 -0.04386
       4     H     0.42248  0.42248  0.00000  0.15503
       5     C     2.96937  2.96937  0.00000  0.06125
       6     H     0.46453  0.46453  0.00000  0.07095
       7     H     0.45869  0.45869  0.00000  0.08262
       8     O     4.17996  4.17996  0.00000 -0.35993
       9     H     0.46968  0.46968  0.00000  0.06064
      10     H     0.46860  0.46860  0.00000  0.06279
      11     C     3.03186  3.03186  0.00000 -0.06371
      12     H     0.44758  0.44758  0.00000  0.10485
      13     H     0.47117  0.47117  0.00000  0.05767
      14     H     0.46974  0.46974  0.00000  0.06052

   Total alpha = 21.00000, Total beta = 21.00000, Total charge = -0.00000
