  ==> Input File <==

--------------------------------------------------------------------------
set {
	reference rhf
	basis cc-pvtz
}

set_num_threads( 4 )
memory 2 gb

molecule MOL {
0 1

H	 3.295829	 -0.417489	 -0.025692
C	 2.237431	 -0.239384	 -0.019596
C	 1.409373	 -1.035040	 0.757955
C	 1.708527	 0.780001	 -0.785514
H	 1.827874	 -1.825316	 1.350505
C	 0.051063	 -0.809916	 0.768629
H	 2.351437	 1.393746	 -1.385897
C	 0.344172	 1.004872	 -0.773756
H	 -0.605126	 -1.413971	 1.362927
C	 -0.486398	 0.214248	 0.000000
H	 -0.074196	 1.796502	 -1.367444
C	 -1.946525	 0.470130	 0.000000
O	 -2.779618	 -0.371226	 0.000000
H	 -2.227127	 1.528393	 0.000000

	symmetry c1
}
set optking {
	frozen_dihedral = ("
		8 10 12 14
	")
}

ee = optimize('scf')
oeprop('DIPOLE', 'QUADRUPOLE', 'MULLIKEN_CHARGES')
f=open( 'psi4out.xyz', 'w' )
f.write( "14  " )
f.write( str(ee) + "\n" )
f.write( MOL.save_string_xyz() )
f.close()
--------------------------------------------------------------------------

    Molecular point group: c1
  Charge       = 0
  Multiplicity = 1
  Basis Set: CC-PVTZ
  Basis Set:
  @DF-RHF Final Energy:  -343.54486342980090
    Total Energy =                       -343.5448634298011257
    Molecular point group: c1
  Basis Set: CC-PVTZ
  Basis Set:
  Basis Set: CC-PVTZ
  Basis Set:
  @DF-RHF Final Energy:  -343.54243787633902
    Total Energy =                       -343.5424378763390791
  Basis Set: CC-PVTZ
  Basis Set:
  Basis Set: CC-PVTZ
  Basis Set:
  @DF-RHF Final Energy:  -343.54547715930039
    Total Energy =                       -343.5454771593002761
  Basis Set: CC-PVTZ
  Basis Set:
  Basis Set: CC-PVTZ
  Basis Set:
  @DF-RHF Final Energy:  -343.54554436715108
    Total Energy =                       -343.5455443671511375
  Basis Set: CC-PVTZ
  Basis Set:
  Charge       = 0
  Multiplicity = 1
  Basis Set: CC-PVTZ
  Basis Set:

    Orbital Energies (a.u.)
    -----------------------

    Doubly Occupied:

       1A    -20.556381     2A    -11.328771     3A    -11.250755
       4A    -11.247336     5A    -11.247256     6A    -11.245471
       7A    -11.243223     8A    -11.241702     9A     -1.411721
      10A     -1.176131    11A     -1.050639    12A     -1.035093
      13A     -0.891799    14A     -0.847090    15A     -0.795780
      16A     -0.725558    17A     -0.681516    18A     -0.657024
      19A     -0.630878    20A     -0.621987    21A     -0.605667
      22A     -0.553289    23A     -0.530373    24A     -0.511351
      25A     -0.508167    26A     -0.426236    27A     -0.354181
      28A     -0.352009

  @DF-RHF Final Energy:  -343.54554521764044

   => Energetics <=

    Nuclear Repulsion Energy =            323.9135154351163237
    One-Electron Energy =               -1107.4633564841651605
    Two-Electron Energy =                 440.0042958314083421
    DFT Exchange-Correlation Energy =       0.0000000000000000
    Empirical Dispersion Energy =           0.0000000000000000
    PCM Polarization Energy =               0.0000000000000000
    EFP Energy =                            0.0000000000000000
    Total Energy =                       -343.5455452176404947
    Molecular point group: c1
  Basis Set: CC-PVTZ
  Basis Set:

  -Total Gradient:
     Atom            X                  Y                   Z
    ------   -----------------  -----------------  -----------------
       1       -0.000003339421    -0.000017197048    -0.000020036592
       2        0.000021058016     0.000096973344     0.000034122755
       3       -0.000038844881     0.000036224045     0.000084113053
       4        0.000029041303    -0.000096636120    -0.000077941738
       5        0.000001763868    -0.000007142243    -0.000013106380
       6        0.000028182436    -0.000113558099    -0.000110277715
       7        0.000003979295     0.000011825045     0.000010330874
       8       -0.000435609130    -0.003474968797    -0.003860108610
       9        0.000001818738     0.000047470951     0.000032928697
      10        0.000486131846     0.005194937896     0.007742043802
      11        0.000002630270    -0.000007282048     0.000003650480
      12        0.000041705478    -0.001897413190    -0.010252726240
      13        0.000012415814    -0.000014643137    -0.000006222879
      14       -0.000150933638     0.000241409400     0.006433230494

  **** Optimization is complete! (in 5 steps) ****
    Final optimized geometry and variables:
    Molecular point group: c1

    Geometry (in Angstrom), charge = 0, multiplicity = 1:

    H            3.289920057312    -0.434340531481    -0.040320996737
    C            2.233614529004    -0.244909910877    -0.026495177110
    C            1.402215768290    -1.031348854535     0.753905421568
    C            1.708072671674     0.778847338241    -0.790179788336
    H            1.814484069404    -1.828226374947     1.342155622268
    C            0.043288006031    -0.799262974662     0.763746426400
    H            2.351241924689     1.379871171775    -1.403280110861
    C            0.348737569298     1.027970272392    -0.759527306670
    H           -0.615107888028    -1.417128279244     1.341804155681
    C           -0.484406245079     0.247363022547     0.022288836128
    H           -0.062634801290     1.829984730751    -1.344583278403
    C           -1.954736842259     0.466094595144    -0.023837570768
    O           -2.757292530316    -0.399410091082     0.056166338819
    H           -2.271929630983     1.513163682314    -0.071585560194

  Mulliken Charges: (a.u.)
   Center  Symbol    Alpha    Beta     Spin     Total
       1     H     0.41999  0.41999  0.00000  0.16003
       2     C     3.07414  3.07414  0.00000 -0.14828
       3     C     3.06819  3.06819  0.00000 -0.13639
       4     C     3.07171  3.07171  0.00000 -0.14342
       5     H     0.42015  0.42015  0.00000  0.15971
       6     C     3.08582  3.08582  0.00000 -0.17164
       7     H     0.42067  0.42067  0.00000  0.15866
       8     C     3.09064  3.09064  0.00000 -0.18128
       9     H     0.41226  0.41226  0.00000  0.17548
      10     C     2.96836  2.96836  0.00000  0.06329
      11     H     0.42341  0.42341  0.00000  0.15318
      12     C     2.92191  2.92191  0.00000  0.15618
      13     O     4.16634  4.16634  0.00000 -0.33267
      14     H     0.45643  0.45643  0.00000  0.08715

   Total alpha = 28.00000, Total beta = 28.00000, Total charge =  0.00000
