  ==> Input File <==

--------------------------------------------------------------------------
set {
	reference rhf
	basis 6-31G*
}

set_num_threads( 4 )
memory 2 gb

molecule MOL {
0 1

H	 -2.273092	 1.173159	 0.000295
O	 -1.438904	 1.618192	 0.000114
C	 -0.409536	 0.736003	 0.000030
C	 -0.213381	 0.009602	 -1.164042
C	 0.418676	 0.556636	 1.105848
H	 -0.875075	 0.178966	 -1.993179
C	 0.816620	 -0.908603	 -1.238260
C	 1.446248	 -0.373161	 1.003081
C	 0.202917	 1.350063	 2.375072
H	 0.963491	 -1.468995	 -2.144286
C	 1.654284	 -1.105507	 -0.152201
H	 2.094878	 -0.523464	 1.848677
H	 -0.778471	 1.166482	 2.807645
H	 0.936720	 1.080607	 3.124007
H	 0.296013	 2.420942	 2.206111
H	 2.457398	 -1.817997	 -0.202852

	symmetry c1
}
set optking {
	frozen_dihedral = ("
		4 3 2 1
	")
}

ee = optimize('scf')
oeprop('DIPOLE', 'QUADRUPOLE', 'MULLIKEN_CHARGES')
f=open( 'psi4out.xyz', 'w' )
f.write( "16  " )
f.write( str(ee) + "\n" )
f.write( MOL.save_string_xyz() )
f.close()
--------------------------------------------------------------------------

    Molecular point group: c1
  Charge       = 0
  Multiplicity = 1
  Basis Set: 6-31G*
  Basis Set:
  @DF-RHF Final Energy:  -344.58966929125603
    Total Energy =                       -344.5896692912560297
    Molecular point group: c1
  Basis Set: 6-31G*
  Basis Set:
  Basis Set: 6-31G*
  Basis Set:
  @DF-RHF Final Energy:  -344.59117502546172
    Total Energy =                       -344.5911750254618937
  Basis Set: 6-31G*
  Basis Set:
  Basis Set: 6-31G*
  Basis Set:
  @DF-RHF Final Energy:  -344.59126490061465
    Total Energy =                       -344.5912649006149309
  Basis Set: 6-31G*
  Basis Set:
  Basis Set: 6-31G*
  Basis Set:
  @DF-RHF Final Energy:  -344.59127219466035
    Total Energy =                       -344.5912721946602915
  Basis Set: 6-31G*
  Basis Set:
  Basis Set: 6-31G*
  Basis Set:
  @DF-RHF Final Energy:  -344.59127350748150
    Total Energy =                       -344.5912735074815032
  Basis Set: 6-31G*
  Basis Set:
  Charge       = 0
  Multiplicity = 1
  Basis Set: 6-31G*
  Basis Set:

    Orbital Energies (a.u.)
    -----------------------

    Doubly Occupied:

       1A    -20.577000     2A    -11.284029     3A    -11.233190
       4A    -11.229710     5A    -11.227851     6A    -11.225493
       7A    -11.224580     8A    -11.215760     9A     -1.391674
      10A     -1.148196    11A     -1.043505    12A     -1.002645
      13A     -0.930314    14A     -0.832084    15A     -0.801695
      16A     -0.725680    17A     -0.665483    18A     -0.654122
      19A     -0.619975    20A     -0.590077    21A     -0.570908
      22A     -0.561888    23A     -0.541731    24A     -0.518855
      25A     -0.499197    26A     -0.481973    27A     -0.462896
      28A     -0.328778    29A     -0.315544

  @DF-RHF Final Energy:  -344.59127371571174

   => Energetics <=

    Nuclear Repulsion Energy =            349.6638252557974056
    One-Electron Energy =               -1160.7005328741984158
    Two-Electron Energy =                 466.4454339026892171
    DFT Exchange-Correlation Energy =       0.0000000000000000
    Empirical Dispersion Energy =           0.0000000000000000
    PCM Polarization Energy =               0.0000000000000000
    EFP Energy =                            0.0000000000000000
    Total Energy =                       -344.5912737157117931
    Molecular point group: c1
  Basis Set: 6-31G*
  Basis Set:

  -Total Gradient:
     Atom            X                  Y                   Z
    ------   -----------------  -----------------  -----------------
       1        0.000033022760    -0.000071982497     0.001380147965
       2        0.000234077087     0.000506940776    -0.001891154226
       3       -0.000906618376    -0.001172229207     0.000877120272
       4        0.000628652158     0.000736587177    -0.000368181509
       5       -0.000025813227     0.000015450492    -0.000012801246
       6        0.000005595130    -0.000000366161     0.000009781825
       7       -0.000004310053     0.000001358731    -0.000015067856
       8        0.000001854868    -0.000005128970    -0.000005172288
       9        0.000007067845    -0.000011862923    -0.000003080313
      10        0.000004272236    -0.000008444771     0.000001665848
      11        0.000009819975     0.000008944223     0.000026613353
      12        0.000001873199     0.000000378367     0.000007139507
      13        0.000004697741    -0.000003545285    -0.000008850585
      14        0.000003849256     0.000001868088     0.000007622815
      15        0.000005282572     0.000000997961    -0.000002487240
      16       -0.000003323166     0.000001033998    -0.000003296320

  **** Optimization is complete! (in 6 steps) ****
    Final optimized geometry and variables:
    Molecular point group: c1

    Geometry (in Angstrom), charge = 0, multiplicity = 1:

    H           -2.513260800488     0.939877681849    -0.213588011098
    O           -1.665065332349     1.362620047538    -0.206694900719
    C           -0.665858614773     0.425019153877    -0.272155355472
    C           -0.461708805128    -0.288779595879    -1.439218148505
    C            0.165388721730     0.257707484456     0.831771059759
    H           -1.109845453052    -0.112588934355    -2.279311659687
    C            0.571263334806    -1.208866375103    -1.517685575694
    C            1.200170526093    -0.662339323601     0.727871237289
    C           -0.062451885579     1.060816015756     2.089135374474
    H            0.725059141850    -1.765573266432    -2.424684819836
    C            1.405543451635    -1.396169980120    -0.430451893719
    H            1.854801822215    -0.808477791723     1.569331422021
    H           -1.046386953883     0.870566143197     2.505574573610
    H            0.675682486207     0.811711508487     2.842500196253
    H           -0.001484442584     2.124820477173     1.889961016755
    H            2.213605564697    -2.103636858081    -0.481585062279

  Mulliken Charges: (a.u.)
   Center  Symbol    Alpha    Beta     Spin     Total
       1     H     0.27200  0.27200  0.00000  0.45600
       2     O     4.38734  4.38734  0.00000 -0.77468
       3     C     2.83134  2.83134  0.00000  0.33732
       4     C     3.11785  3.11785  0.00000 -0.23571
       5     C     3.00114  3.00114  0.00000 -0.00228
       6     H     0.39744  0.39744  0.00000  0.20511
       7     C     3.10121  3.10121  0.00000 -0.20242
       8     C     3.11259  3.11259  0.00000 -0.22518
       9     C     3.24076  3.24076  0.00000 -0.48151
      10     H     0.39911  0.39911  0.00000  0.20177
      11     C     3.10123  3.10123  0.00000 -0.20246
      12     H     0.40092  0.40092  0.00000  0.19817
      13     H     0.41456  0.41456  0.00000  0.17087
      14     H     0.41734  0.41734  0.00000  0.16533
      15     H     0.40491  0.40491  0.00000  0.19018
      16     H     0.40026  0.40026  0.00000  0.19948

   Total alpha = 29.00000, Total beta = 29.00000, Total charge =  0.00000
