  ==> Input File <==

--------------------------------------------------------------------------
set {
	reference rhf
	basis 6-31G*
}

set_num_threads( 4 )
memory 2 gb

molecule MOL {
0 1

O	 1.846825	 1.296220	 0.000415
C	 1.705091	 0.115954	 0.001797
C	 0.381791	 -0.609817	 0.001258
O	 2.721346	 -0.737485	 -0.000216
C	 -0.823008	 0.326187	 0.001381
H	 0.371250	 -1.265087	 -0.865474
H	 0.370908	 -1.265746	 0.867490
C	 -2.149452	 -0.435131	 -0.000098
H	 -0.770201	 0.977095	 -0.865636
H	 -0.771220	 0.975655	 0.869608
C	 -3.368779	 0.488503	 -0.000883
H	 -2.193746	 -1.087250	 -0.871175
H	 -2.195311	 -1.087803	 0.870418
C	 -3.027248	 1.927686	 0.382993
H	 -4.115373	 0.098397	 0.687271
H	 -3.827649	 0.476694	 -0.987005
H	 -2.597744	 1.976559	 1.379664
H	 -3.911451	 2.557398	 0.373092
H	 -2.307324	 2.357729	 -0.307719
C	 4.024888	 -0.184556	 -0.001949
H	 4.179030	 0.422472	 -0.882452
H	 4.701782	 -1.024608	 -0.003642
H	 4.181981	 0.421185	 0.878906

	symmetry c1
}
set optking {
	frozen_dihedral = ("
		15 11 8 12
	")
}

ee = optimize('scf')
oeprop('DIPOLE', 'QUADRUPOLE', 'MULLIKEN_CHARGES')
f=open( 'psi4out.xyz', 'w' )
f.write( "23  " )
f.write( str(ee) + "\n" )
f.write( MOL.save_string_xyz() )
f.close()
--------------------------------------------------------------------------

    Molecular point group: c1
  Charge       = 0
  Multiplicity = 1
  Basis Set: 6-31G*
  Basis Set:
  @DF-RHF Final Energy:  -422.96418864157783
    Total Energy =                       -422.9641886415779481
    Molecular point group: c1
  Basis Set: 6-31G*
  Basis Set:
  Basis Set: 6-31G*
  Basis Set:
  @DF-RHF Final Energy:  -422.96443710104398
    Total Energy =                       -422.9644371010446093
  Basis Set: 6-31G*
  Basis Set:
  Basis Set: 6-31G*
  Basis Set:
  @DF-RHF Final Energy:  -422.96737217464937
    Total Energy =                       -422.9673721746498813
  Basis Set: 6-31G*
  Basis Set:
  Basis Set: 6-31G*
  Basis Set:
  @DF-RHF Final Energy:  -422.96759363582407
    Total Energy =                       -422.9675936358235049
  Basis Set: 6-31G*
  Basis Set:
  Basis Set: 6-31G*
  Basis Set:
  @DF-RHF Final Energy:  -422.96764504720284
    Total Energy =                       -422.9676450472043143
  Basis Set: 6-31G*
  Basis Set:
  Basis Set: 6-31G*
  Basis Set:
  @DF-RHF Final Energy:  -422.96778976178996
    Total Energy =                       -422.9677897617903000
  Basis Set: 6-31G*
  Basis Set:
  Basis Set: 6-31G*
  Basis Set:
  @DF-RHF Final Energy:  -422.96780719683437
    Total Energy =                       -422.9678071968339736
  Basis Set: 6-31G*
  Basis Set:
  Charge       = 0
  Multiplicity = 1
  Basis Set: 6-31G*
  Basis Set:

    Orbital Energies (a.u.)
    -----------------------

    Doubly Occupied:

       1A    -20.603500     2A    -20.545285     3A    -11.372092
       4A    -11.280761     5A    -11.235207     6A    -11.218768
       7A    -11.218186     8A    -11.217058     9A    -11.206942
      10A     -1.469176    11A     -1.362612    12A     -1.091160
      13A     -1.039510    14A     -0.984599    15A     -0.930467
      16A     -0.859425    17A     -0.778627    18A     -0.765099
      19A     -0.696147    20A     -0.683704    21A     -0.671990
      22A     -0.649861    23A     -0.608451    24A     -0.597145
      25A     -0.591134    26A     -0.557404    27A     -0.534606
      28A     -0.525866    29A     -0.519497    30A     -0.514011
      31A     -0.495182    32A     -0.463051    33A     -0.459626
      34A     -0.458036    35A     -0.451244    36A     -0.435305

  @DF-RHF Final Energy:  -422.96780778594336

   => Energetics <=

    Nuclear Repulsion Energy =            458.3190951450729926
    One-Electron Energy =               -1484.3923317436799607
    Two-Electron Energy =                 603.1054288126636038
    DFT Exchange-Correlation Energy =       0.0000000000000000
    Empirical Dispersion Energy =           0.0000000000000000
    PCM Polarization Energy =               0.0000000000000000
    EFP Energy =                            0.0000000000000000
    Total Energy =                       -422.9678077859432506
    Molecular point group: c1
  Basis Set: 6-31G*
  Basis Set:

  -Total Gradient:
     Atom            X                  Y                   Z
    ------   -----------------  -----------------  -----------------
       1       -0.000009505375     0.000007864772     0.000009114176
       2        0.000002734795     0.000000816181    -0.000028424379
       3        0.000001550320    -0.000022481047     0.000003141435
       4       -0.000005047344    -0.000011109264     0.000000247404
       5       -0.000000301852    -0.000013743384    -0.000036394498
       6        0.000005279000     0.000000286503     0.000004364493
       7        0.000007370133    -0.000006674311     0.000004899210
       8       -0.002705838164    -0.003753068402     0.004155013597
       9       -0.000008813463     0.000008873757     0.000013069273
      10       -0.000009965368    -0.000008080591     0.000016607122
      11       -0.001677168393    -0.002693242341    -0.005356306845
      12        0.002603663424     0.003595004405    -0.002690266162
      13        0.000008713530     0.000008327139     0.000000887049
      14       -0.000024329134    -0.000015960098    -0.000007635564
      15        0.001837382331     0.002915619599     0.003902487994
      16       -0.000004630943     0.000014879349     0.000008820919
      17       -0.000000840285    -0.000009173884    -0.000004292370
      18       -0.000004235860    -0.000009948313     0.000000087083
      19       -0.000008446450    -0.000010450921    -0.000001883535
      20       -0.000004467087     0.000003768102     0.000008646216
      21       -0.000003917492    -0.000001446757    -0.000000629830
      22       -0.000002848657    -0.000001305880    -0.000000684586
      23        0.000003662318     0.000001245387    -0.000000868202

  **** Optimization is complete! (in 8 steps) ****
    Final optimized geometry and variables:
    Molecular point group: c1

    Geometry (in Angstrom), charge = 0, multiplicity = 1:

    O            1.719457769011     1.022519610039    -0.062183487760
    C            1.548712335260    -0.153841733039    -0.049307539566
    C            0.208142348534    -0.847183654313    -0.032986359134
    O            2.543783678065    -1.031990350720    -0.047835667290
    C           -0.973273227473     0.118955715970    -0.032155124070
    H            0.175934200760    -1.510594777479    -0.892983561613
    H            0.188323620006    -1.494576154694     0.839614392367
    C           -2.309145813488    -0.634316242700    -0.017419516586
    H           -0.909290317129     0.754757140847    -0.909001387554
    H           -0.889355886450     0.775435880823     0.825752389421
    C           -3.586467766633     0.243626976394    -0.065824722954
    H           -2.308814718820    -1.285556632340    -0.888120481311
    H           -2.338628510371    -1.276219802967     0.858856246067
    C           -3.421986454032     1.707623055239     0.358036006846
    H           -4.323760054291    -0.189382938965     0.603994851382
    H           -4.009911745398     0.217539020228    -1.064883157709
    H           -3.052551068034     1.791094576432     1.375587398381
    H           -4.382549476019     2.212305769171     0.318429805996
    H           -2.740983686872     2.250977964315    -0.287397104380
    C            3.860437806423    -0.511276980905    -0.062536069967
    H            4.024526371347     0.082232091817    -0.950424505889
    H            4.516548492811    -1.367713446646    -0.058740658637
    H            4.037302839858     0.099843709988     0.810832284825

  Mulliken Charges: (a.u.)
   Center  Symbol    Alpha    Beta     Spin     Total
       1     O     4.28620  4.28620  0.00000 -0.57240
       2     C     2.60495  2.60495  0.00000  0.79009
       3     C     3.20786  3.20786  0.00000 -0.41572
       4     O     4.30726  4.30726  0.00000 -0.61452
       5     C     3.15549  3.15549  0.00000 -0.31098
       6     H     0.40098  0.40098  0.00000  0.19804
       7     H     0.40090  0.40090  0.00000  0.19819
       8     C     3.15757  3.15757  0.00000 -0.31513
       9     H     0.41173  0.41173  0.00000  0.17653
      10     H     0.40956  0.40956  0.00000  0.18088
      11     C     3.15384  3.15384  0.00000 -0.30768
      12     H     0.42189  0.42189  0.00000  0.15621
      13     H     0.42168  0.42168  0.00000  0.15664
      14     C     3.24372  3.24372  0.00000 -0.48744
      15     H     0.42016  0.42016  0.00000  0.15968
      16     H     0.41992  0.41992  0.00000  0.16016
      17     H     0.42096  0.42096  0.00000  0.15808
      18     H     0.41928  0.41928  0.00000  0.16144
      19     H     0.41695  0.41695  0.00000  0.16610
      20     C     3.09242  3.09242  0.00000 -0.18484
      21     H     0.40911  0.40911  0.00000  0.18177
      22     H     0.40845  0.40845  0.00000  0.18311
      23     H     0.40910  0.40910  0.00000  0.18181

   Total alpha = 36.00000, Total beta = 36.00000, Total charge = -0.00000
