  ==> Input File <==

--------------------------------------------------------------------------
set {
	reference rhf
	basis cc-pvtz
}

set_num_threads( 4 )
memory 2 gb

molecule MOL {
0 1

H	 -2.279420	 -0.296265	 -0.503556
O	 -1.432053	 -0.565244	 -0.200812
C	 -0.727158	 0.534527	 0.310686
C	 0.680222	 0.664433	 -0.252229
H	 -1.306802	 1.408001	 0.044211
H	 -0.690821	 0.490158	 1.397609
C	 1.605391	 -0.489360	 0.123098
H	 0.615089	 0.745647	 -1.332226
H	 1.101414	 1.597893	 0.110950
H	 1.247627	 -1.432485	 -0.275204
H	 2.601435	 -0.332816	 -0.273062
H	 1.691776	 -0.589902	 1.200774

	symmetry c1
}
set optking {
	frozen_dihedral = ("
		1 2 3 4
	")
}

ee = optimize('scf')
oeprop('DIPOLE', 'QUADRUPOLE', 'MULLIKEN_CHARGES')
f=open( 'psi4out.xyz', 'w' )
f.write( "12  " )
f.write( str(ee) + "\n" )
f.write( MOL.save_string_xyz() )
f.close()
--------------------------------------------------------------------------

    Molecular point group: c1
  Charge       = 0
  Multiplicity = 1
  Basis Set: CC-PVTZ
  Basis Set:
  @DF-RHF Final Energy:  -193.18820695672321
    Total Energy =                       -193.1882069567232918
    Molecular point group: c1
  Basis Set: CC-PVTZ
  Basis Set:
  Basis Set: CC-PVTZ
  Basis Set:
  @DF-RHF Final Energy:  -193.18930427210393
    Total Energy =                       -193.1893042721041525
  Basis Set: CC-PVTZ
  Basis Set:
  Basis Set: CC-PVTZ
  Basis Set:
  @DF-RHF Final Energy:  -193.18963282783616
    Total Energy =                       -193.1896328278361921
  Basis Set: CC-PVTZ
  Basis Set:
  Basis Set: CC-PVTZ
  Basis Set:
  @DF-RHF Final Energy:  -193.18963688879893
    Total Energy =                       -193.1896368887989865
  Basis Set: CC-PVTZ
  Basis Set:
  Charge       = 0
  Multiplicity = 1
  Basis Set: CC-PVTZ
  Basis Set:

    Orbital Energies (a.u.)
    -----------------------

    Doubly Occupied:

       1A    -20.545270     2A    -11.266522     3A    -11.212753
       4A    -11.201236     5A     -1.363043     6A     -1.047743
       7A     -0.919295     8A     -0.802414     9A     -0.704469
      10A     -0.642454    11A     -0.595447    12A     -0.570269
      13A     -0.540747    14A     -0.505816    15A     -0.480584
      16A     -0.466160    17A     -0.432700

  @DF-RHF Final Energy:  -193.18963745071537

   => Energetics <=

    Nuclear Repulsion Energy =            133.2466709029598917
    One-Electron Energy =                -526.2787781730328334
    Two-Electron Energy =                 199.8424698193576887
    DFT Exchange-Correlation Energy =       0.0000000000000000
    Empirical Dispersion Energy =           0.0000000000000000
    PCM Polarization Energy =               0.0000000000000000
    EFP Energy =                            0.0000000000000000
    Total Energy =                       -193.1896374507152814
    Molecular point group: c1
  Basis Set: CC-PVTZ
  Basis Set:

  -Total Gradient:
     Atom            X                  Y                   Z
    ------   -----------------  -----------------  -----------------
       1        0.000322848606     0.000133692186    -0.000717519980
       2       -0.000456223613    -0.000031707384     0.000746128123
       3        0.000299492013    -0.000385559153     0.000331468404
       4       -0.000168280182     0.000242770151    -0.000364200106
       5        0.000008516873     0.000010891345    -0.000002251102
       6        0.000021279718     0.000002676753    -0.000003988556
       7       -0.000009746319     0.000009439548     0.000003523847
       8       -0.000013061271    -0.000001137913     0.000001704060
       9        0.000001112621     0.000016281742    -0.000004688407
      10       -0.000000901054     0.000001819653    -0.000001015853
      11       -0.000010454038     0.000010800669     0.000004283214
      12        0.000005416647    -0.000009967599     0.000006556357

  **** Optimization is complete! (in 5 steps) ****
    Final optimized geometry and variables:
    Molecular point group: c1

    Geometry (in Angstrom), charge = 0, multiplicity = 1:

    H           -2.203720420336    -0.392745603004    -0.522148612302
    O           -1.355678845669    -0.608352354123    -0.186176908001
    C           -0.719407044058     0.539663477641     0.321396756667
    C            0.686507866524     0.663202041637    -0.238483066245
    H           -1.287762005816     1.430287919248     0.071867842355
    H           -0.682790765018     0.472243425978     1.405277187236
    C            1.586700117912    -0.511731721538     0.128308533978
    H            0.622741517566     0.754803598124    -1.318199582647
    H            1.118688638211     1.588423369227     0.133530980495
    H            1.174298888063    -1.442730460674    -0.237525661827
    H            2.575704711096    -0.388928530627    -0.297738100137
    H            1.697604903242    -0.595572115116     1.204711741934

  Mulliken Charges: (a.u.)
   Center  Symbol    Alpha    Beta     Spin     Total
       1     H     0.39142  0.39142  0.00000  0.21717
       2     O     4.20478  4.20478  0.00000 -0.40956
       3     C     2.97080  2.97080  0.00000  0.05840
       4     C     3.07612  3.07612  0.00000 -0.15223
       5     H     0.46690  0.46690  0.00000  0.06620
       6     H     0.47056  0.47056  0.00000  0.05888
       7     C     3.14965  3.14965  0.00000 -0.29931
       8     H     0.45766  0.45766  0.00000  0.08467
       9     H     0.45782  0.45782  0.00000  0.08435
      10     H     0.44539  0.44539  0.00000  0.10921
      11     H     0.45105  0.45105  0.00000  0.09790
      12     H     0.45784  0.45784  0.00000  0.08432

   Total alpha = 17.00000, Total beta = 17.00000, Total charge =  0.00000
