                              Psi4 1.0.54 Driver

  ==> Input File <==

--------------------------------------------------------------------------
set {
	reference rhf
	basis cc-pvtz
}

set_num_threads( 4 )
memory 2 gb

molecule MOL {
0 1

H	 -0.859705	 1.229115	 2.976237
C	 -1.508390	 0.419411	 2.615025
C	 -2.191720	 0.692632	 1.302661
O	 -1.633557	 -0.567537	 3.253440
C	 -1.216901	 1.136108	 0.207794
H	 -2.743863	 -0.191411	 1.011214
H	 -2.909150	 1.489395	 1.486423
C	 -0.247837	 0.040196	 -0.230469
H	 -1.792290	 1.471805	 -0.648112
H	 -0.657268	 2.001888	 0.553382
C	 1.181757	 0.280428	 0.247371
H	 -0.259600	 -0.030819	 -1.314870
H	 -0.591284	 -0.923375	 0.136958
C	 2.151032	 -0.811012	 -0.202643
H	 1.515939	 1.247397	 -0.115449
H	 1.191514	 0.341223	 1.333422
C	 3.580021	 -0.656538	 0.320835
H	 2.170545	 -0.847575	 -1.289412
H	 1.766632	 -1.772905	 0.124928
C	 4.327657	 0.562694	 -0.213579
H	 4.138806	 -1.549270	 0.057813
H	 3.561991	 -0.620783	 1.406976
H	 4.355973	 0.557257	 -1.298551
H	 3.867136	 1.491650	 0.100501
H	 5.351524	 0.571613	 0.142204

	symmetry c1
}
set optking {
	frozen_dihedral = ("
		3 5 8 12
	")
}

ee,wfn = optimize('scf', return_wfn=True)
oeprop( wfn, 'DIPOLE', 'QUADRUPOLE', 'MULLIKEN_CHARGES')
f=open( 'psi4out.xyz', 'w' )
f.write( "25  " )
f.write( str(ee) + "\n" )
f.write( MOL.save_string_xyz() )
f.close()
--------------------------------------------------------------------------

    Molecular point group: c1
  Charge       = 0
  Multiplicity = 1
  Basis Set: CC-PVTZ
  Basis Set:
  @DF-RHF Final Energy:  -387.25490575062753
    Total Energy =                       -387.2549057506274721
    Molecular point group: c1
  Basis Set: CC-PVTZ
  Basis Set:
  Basis Set: CC-PVTZ
  Basis Set:
  @DF-RHF Final Energy:  -387.25525551254100
    Total Energy =                       -387.2552555125407707
  Basis Set: CC-PVTZ
  Basis Set:
  Basis Set: CC-PVTZ
  Basis Set:
  @DF-RHF Final Energy:  -387.25526408698727
    Total Energy =                       -387.2552640869878360
  Basis Set: CC-PVTZ
  Basis Set:
  Basis Set: CC-PVTZ
  Basis Set:
  @DF-RHF Final Energy:  -387.25533187993398
    Total Energy =                       -387.2553318799341469
  Basis Set: CC-PVTZ
  Basis Set:
  Basis Set: CC-PVTZ
  Basis Set:
  @DF-RHF Final Energy:  -387.25535062971420
    Total Energy =                       -387.2553506297141439
  Basis Set: CC-PVTZ
  Basis Set:
  Basis Set: CC-PVTZ
  Basis Set:
  @DF-RHF Final Energy:  -387.25535873514400
    Total Energy =                       -387.2553587351442275
  Basis Set: CC-PVTZ
  Basis Set:
  Basis Set: CC-PVTZ
  Basis Set:
  @DF-RHF Final Energy:  -387.25536291548678
    Total Energy =                       -387.2553629154871260
  Basis Set: CC-PVTZ
  Basis Set:
  Charge       = 0
  Multiplicity = 1
  Basis Set: CC-PVTZ
  Basis Set:

    Orbital Energies (a.u.)
    -----------------------

    Doubly Occupied:

       1A    -20.552084     2A    -11.321014     3A    -11.233966
       4A    -11.232902     5A    -11.219960     6A    -11.216705
       7A    -11.214155     8A    -11.212928     9A    -11.207375
      10A     -1.406738    11A     -1.102570    12A     -1.068800
      13A     -1.012285    14A     -0.942643    15A     -0.878161
      16A     -0.817386    17A     -0.789272    18A     -0.779621
      19A     -0.669679    20A     -0.654619    21A     -0.644994
      22A     -0.617371    23A     -0.614807    24A     -0.578047
      25A     -0.573708    26A     -0.561980    27A     -0.535266
      28A     -0.520549    29A     -0.511192    30A     -0.505257
      31A     -0.485362    32A     -0.474136    33A     -0.460626
      34A     -0.457739    35A     -0.443278    36A     -0.411137

  @DF-RHF Final Energy:  -387.25536352303487

   => Energetics <=

    Nuclear Repulsion Energy =            449.6557812362601112
    One-Electron Energy =               -1415.9656577011801346
    Two-Electron Energy =                 579.0545129418851502
    DFT Exchange-Correlation Energy =       0.0000000000000000
    Empirical Dispersion Energy =           0.0000000000000000
    PCM Polarization Energy =               0.0000000000000000
    EFP Energy =                            0.0000000000000000
    Total Energy =                       -387.2553635230349300
    Molecular point group: c1
  Basis Set: CC-PVTZ
  Basis Set:

  -Total Gradient:
     Atom            X                  Y                   Z
    ------   -----------------  -----------------  -----------------
       1        0.000013925117     0.000000369278    -0.000000514525
       2       -0.000015548534    -0.000016139172    -0.000000235637
       3       -0.000718855966    -0.000357479976    -0.000856827668
       4       -0.000031375806     0.000011219159     0.000014391547
       5        0.000809253474     0.000245695886     0.001219445715
       6       -0.000010607346    -0.000000274123    -0.000009150227
       7       -0.000012481988    -0.000000613303     0.000021698374
       8        0.001120610348     0.001231230672    -0.000417164985
       9       -0.000012369828    -0.000014293802    -0.000003650033
      10       -0.000006054302     0.000007686356    -0.000008565888
      11        0.000023913865    -0.000004512948    -0.000032704632
      12       -0.001182085971    -0.001108496480     0.000070217052
      13        0.000005530299    -0.000000393974    -0.000004469261
      14        0.000020638373     0.000002766509     0.000005088748
      15        0.000005298423    -0.000002785780    -0.000002536336
      16       -0.000001235571     0.000004498667     0.000003780707
      17       -0.000002591032    -0.000004422925     0.000001999871
      18       -0.000002267077     0.000003999799     0.000000745763
      19       -0.000002865874     0.000002039816    -0.000001392562
      20       -0.000001071085    -0.000000290127    -0.000001589440
      21       -0.000001587186     0.000000574502    -0.000000681662
      22        0.000002088167    -0.000000785258     0.000003175231
      23        0.000001664665     0.000000389784    -0.000000591220
      24       -0.000001399058    -0.000000738509    -0.000000839981
      25       -0.000000526108     0.000000755948     0.000000371045

  **** Optimization is complete! (in 8 steps) ****
    Final optimized geometry and variables:
    Molecular point group: c1

    Geometry (in Angstrom), charge = 0, multiplicity = 1:

    H           -1.498651042042     1.145112118166     2.225260764311
    C           -2.049860955355     0.301205248293     1.789445786351
    C           -2.728908413175     0.594734960476     0.480326052165
    O           -2.076157526048    -0.740318257891     2.348977254447
    C           -1.746170630551     1.040986205461    -0.610871416743
    H           -3.280052135731    -0.284003200161     0.172613300227
    H           -3.441427599905     1.395336751230     0.665217039227
    C           -0.748793506479    -0.050881144068    -1.048203148821
    H           -2.334968884970     1.361797010957    -1.461319441286
    H           -1.208701479858     1.922555822643    -0.273837391427
    C            0.681703019572     0.178602224121    -0.562817489501
    H           -0.749758063557    -0.124989499698    -2.130473349058
    H           -1.091908791754    -1.016817376535    -0.690546887017
    C            1.638188055694    -0.931205099495    -0.993351900181
    H            1.028452396798     1.136672638634    -0.937152942095
    H            0.691010057736     0.252077585666     0.522337945688
    C            3.068166082345    -0.785536861173    -0.470067306694
    H            1.658639442092    -0.985201157837    -2.079636298009
    H            1.241255965854    -1.882058218217    -0.649758376092
    C            3.831790893353     0.415216505522    -1.023444971459
    H            3.616158460859    -1.689387844008    -0.717318892870
    H            3.048514497442    -0.732032604960     0.615115059700
    H            3.861615159247     0.391646455075    -2.108201624417
    H            3.382701840264     1.355087433893    -0.725525830251
    H            4.855194255351     0.417228688851    -0.666177363435

  Mulliken Charges: (a.u.)
   Center  Symbol    Alpha    Beta     Spin     Total
       1     H     0.46190  0.46190  0.00000  0.07619
       2     C     2.90569  2.90569  0.00000  0.18863
       3     C     3.08663  3.08663  0.00000 -0.17327
       4     O     4.16698  4.16698  0.00000 -0.33396
       5     C     3.12102  3.12102  0.00000 -0.24204
       6     H     0.44308  0.44308  0.00000  0.11384
       7     H     0.44178  0.44178  0.00000  0.11645
       8     C     3.10482  3.10482  0.00000 -0.20964
       9     H     0.43748  0.43748  0.00000  0.12504
      10     H     0.44936  0.44936  0.00000  0.10127
      11     C     3.09196  3.09196  0.00000 -0.18392
      12     H     0.44416  0.44416  0.00000  0.11168
      13     H     0.44441  0.44441  0.00000  0.11118
      14     C     3.09696  3.09696  0.00000 -0.19392
      15     H     0.45115  0.45115  0.00000  0.09770
      16     H     0.45298  0.45298  0.00000  0.09404
      17     C     3.09086  3.09086  0.00000 -0.18172
      18     H     0.45363  0.45363  0.00000  0.09275
      19     H     0.44607  0.44607  0.00000  0.10787
      20     C     3.15259  3.15259  0.00000 -0.30518
      21     H     0.44785  0.44785  0.00000  0.10430
      22     H     0.45292  0.45292  0.00000  0.09416
      23     H     0.45506  0.45506  0.00000  0.08988
      24     H     0.45478  0.45478  0.00000  0.09043
      25     H     0.44588  0.44588  0.00000  0.10823

   Total alpha = 36.00000, Total beta = 36.00000, Total charge =  0.00000

*** Psi4 exiting successfully. Buy a developer a beer!
