                              Psi4 1.0.54 Driver

  ==> Input File <==

--------------------------------------------------------------------------
set {
	reference rhf
	basis cc-pvtz
}

set_num_threads( 4 )
memory 2 gb

molecule MOL {
0 1

H	 0.692856	 -1.249597	 -0.407969
C	 0.678408	 -0.336618	 -1.018788
C	 0.062554	 0.862911	 -0.350953
O	 1.132739	 -0.347522	 -2.109943
C	 -1.339253	 0.577611	 0.196911
H	 0.053922	 1.683647	 -1.056511
H	 0.719901	 1.134290	 0.472044
C	 -1.813142	 -0.849710	 -0.061612
H	 -2.032833	 1.276441	 -0.256032
H	 -1.357249	 0.782269	 1.263793
H	 -1.839268	 -1.063526	 -1.124230
H	 -2.810118	 -1.001930	 0.334000
H	 -1.159274	 -1.579980	 0.402282

	symmetry c1
}
set optking {
	frozen_dihedral = ("
		6 3 5 9
	")
}

ee,wfn = optimize('scf', return_wfn=True)
oeprop( wfn, 'DIPOLE', 'QUADRUPOLE', 'MULLIKEN_CHARGES')
f=open( 'psi4out.xyz', 'w' )
f.write( "13  " )
f.write( str(ee) + "\n" )
f.write( MOL.save_string_xyz() )
f.close()
--------------------------------------------------------------------------

    Molecular point group: c1
  Charge       = 0
  Multiplicity = 1
  Basis Set: CC-PVTZ
  Basis Set:
  @DF-RHF Final Energy:  -231.05942763390931
    Total Energy =                       -231.0594276339095359
    Molecular point group: c1
  Basis Set: CC-PVTZ
  Basis Set:
  Basis Set: CC-PVTZ
  Basis Set:
  @DF-RHF Final Energy:  -230.95737457408046
    Total Energy =                       -230.9573745740804895
  Basis Set: CC-PVTZ
  Basis Set:
  Basis Set: CC-PVTZ
  Basis Set:
  @DF-RHF Final Energy:  -231.04385667435574
    Total Energy =                       -231.0438566743557374
  Basis Set: CC-PVTZ
  Basis Set:
  Basis Set: CC-PVTZ
  Basis Set:
  @DF-RHF Final Energy:  -231.06125716529749
    Total Energy =                       -231.0612571652973770
  Basis Set: CC-PVTZ
  Basis Set:
  @DF-RHF Final Energy:  -231.05479627226521
    Total Energy =                       -231.0547962722652358
  @DF-RHF Final Energy:  -231.06209300142467
    Total Energy =                       -231.0620930014246142
  Basis Set: CC-PVTZ
  Basis Set:
  @DF-RHF Final Energy:  -231.06216087159578
    Total Energy =                       -231.0621608715959496
  Basis Set: CC-PVTZ
  Basis Set:
  Basis Set: CC-PVTZ
  Basis Set:
  @DF-RHF Final Energy:  -231.06231146960400
    Total Energy =                       -231.0623114696041966
  Basis Set: CC-PVTZ
  Basis Set:
  Basis Set: CC-PVTZ
  Basis Set:
  @DF-RHF Final Energy:  -231.06235649037887
    Total Energy =                       -231.0623564903788747
  Basis Set: CC-PVTZ
  Basis Set:
  Charge       = 0
  Multiplicity = 1
  Basis Set: CC-PVTZ
  Basis Set:

    Orbital Energies (a.u.)
    -----------------------

    Doubly Occupied:

       1A    -20.551116     2A    -11.320834     3A    -11.237183
       4A    -11.234180     5A    -11.222546     6A     -1.405995
       7A     -1.082056     8A     -0.974670     9A     -0.858330
      10A     -0.778042    11A     -0.676646    12A     -0.637779
      13A     -0.630221    14A     -0.603475    15A     -0.559440
      16A     -0.532061    17A     -0.518130    18A     -0.488164
      19A     -0.477946    20A     -0.411247

  @DF-RHF Final Energy:  -231.06235747582090

   => Energetics <=

    Nuclear Repulsion Energy =            174.2416486391927322
    One-Electron Energy =                -658.2078921840136445
    Two-Electron Energy =                 252.9038860690000661
    DFT Exchange-Correlation Energy =       0.0000000000000000
    Empirical Dispersion Energy =           0.0000000000000000
    PCM Polarization Energy =               0.0000000000000000
    EFP Energy =                            0.0000000000000000
    Total Energy =                       -231.0623574758208747
    Molecular point group: c1
  Basis Set: CC-PVTZ
  Basis Set:

  -Total Gradient:
     Atom            X                  Y                   Z
    ------   -----------------  -----------------  -----------------
       1       -0.000036325593     0.000019399475    -0.000028037130
       2        0.000086370928    -0.000061821613     0.000047203761
       3       -0.000097367311     0.000025147529     0.000141009849
       4        0.000000150511     0.000020187737     0.000031489494
       5       -0.000006004847    -0.000019283350    -0.000162752056
       6       -0.000039423844    -0.000025124204    -0.000114947573
       7        0.000039876803     0.000010398453    -0.000019661298
       8        0.000008924153    -0.000015433758     0.000007954587
       9        0.000048343386     0.000040381296     0.000124650199
      10        0.000006161037     0.000004423029    -0.000006080785
      11       -0.000017457819    -0.000000431777    -0.000005202556
      12        0.000010937629    -0.000002196198    -0.000008880110
      13       -0.000004185035     0.000004353381    -0.000006746385

  **** Optimization is complete! (in 10 steps) ****
    Final optimized geometry and variables:
    Molecular point group: c1

    Geometry (in Angstrom), charge = 0, multiplicity = 1:

    H            1.059321617600    -1.273925812282    -0.392803393260
    C            0.950517721451    -0.195103977365    -0.548365338533
    C            0.478770615366     0.597122245481     0.642204013598
    O            1.221318643048     0.277591854733    -1.598321193944
    C           -0.938735205298     0.234326631443     1.165764635103
    H            0.530143722744     1.641632375040     0.369718648374
    H            1.210232322764     0.428642155430     1.427622206953
    C           -1.677778981257    -0.873650130550     0.414784857811
    H           -1.544405227953     1.130930728458     1.130973828117
    H           -0.871574233650    -0.040104350616     2.211196667467
    H           -1.778549108621    -0.644522033194    -0.640232027253
    H           -2.674800836826    -0.991667180262     0.821043188020
    H           -1.177486608640    -1.831017329483     0.502345036440

  Mulliken Charges: (a.u.)
   Center  Symbol    Alpha    Beta     Spin     Total
       1     H     0.46236  0.46236  0.00000  0.07527
       2     C     2.90465  2.90465  0.00000  0.19070
       3     C     3.08751  3.08751  0.00000 -0.17501
       4     O     4.16670  4.16670  0.00000 -0.33340
       5     C     3.09294  3.09294  0.00000 -0.18588
       6     H     0.44161  0.44161  0.00000  0.11677
       7     H     0.44898  0.44898  0.00000  0.10203
       8     C     3.15829  3.15829  0.00000 -0.31658
       9     H     0.44562  0.44562  0.00000  0.10876
      10     H     0.44810  0.44810  0.00000  0.10381
      11     H     0.44680  0.44680  0.00000  0.10640
      12     H     0.44387  0.44387  0.00000  0.11226
      13     H     0.45257  0.45257  0.00000  0.09486

   Total alpha = 20.00000, Total beta = 20.00000, Total charge = -0.00000

*** Psi4 exiting successfully. Buy a developer a beer!
