  ==> Input File <==

--------------------------------------------------------------------------
set {
	reference rhf
	basis 6-31G*
}

set_num_threads( 4 )
memory 2 gb

molecule MOL {
0 1

H	 -3.920501	 -1.407530	 0.970948
C	 -2.852701	 -1.282786	 1.002984
C	 -2.203347	 -1.195027	 2.225190
C	 -2.130352	 -1.210292	 -0.177647
H	 -2.764748	 -1.251395	 3.140076
C	 -0.830348	 -1.034636	 2.265576
H	 -2.635439	 -1.278510	 -1.124135
C	 -0.755886	 -1.049753	 -0.139649
H	 -0.311175	 -0.964875	 3.202200
C	 -0.102120	 -0.961470	 1.083691
H	 -0.192932	 -0.993166	 -1.050803
C	 1.374729	 -0.788410	 1.181792
O	 1.970282	 -0.730723	 0.000018
O	 1.968603	 -0.709014	 2.211292
C	 3.377318	 -0.566646	 -0.000065
H	 3.695437	 -0.028981	 -0.881264
H	 3.789299	 -1.563704	 0.000236
H	 3.695516	 -0.028316	 0.880770

	symmetry c1
}
set optking {
	frozen_dihedral = ("
		12 13 15 16
	")
}

ee = optimize('scf')
oeprop('DIPOLE', 'QUADRUPOLE', 'MULLIKEN_CHARGES')
f=open( 'psi4out.xyz', 'w' )
f.write( "18  " )
f.write( str(ee) + "\n" )
f.write( MOL.save_string_xyz() )
f.close()
--------------------------------------------------------------------------

    Molecular point group: c1
  Charge       = 0
  Multiplicity = 1
  Basis Set: 6-31G*
  Basis Set:
  @DF-RHF Final Energy:  -457.34809652827511
    Total Energy =                       -457.3480965282751640
    Molecular point group: c1
  Basis Set: 6-31G*
  Basis Set:
  Basis Set: 6-31G*
  Basis Set:
  @DF-RHF Final Energy:  -457.34904353339152
    Total Energy =                       -457.3490435333917503
  Basis Set: 6-31G*
  Basis Set:
  Basis Set: 6-31G*
  Basis Set:
  @DF-RHF Final Energy:  -457.34918056547036
    Total Energy =                       -457.3491805654700784
  Basis Set: 6-31G*
  Basis Set:
  Basis Set: 6-31G*
  Basis Set:
  @DF-RHF Final Energy:  -457.34935730985086
    Total Energy =                       -457.3493573098508023
  Basis Set: 6-31G*
  Basis Set:
  Basis Set: 6-31G*
  Basis Set:
  @DF-RHF Final Energy:  -457.34946223726791
    Total Energy =                       -457.3494622372681988
  Basis Set: 6-31G*
  Basis Set:
  Charge       = 0
  Multiplicity = 1
  Basis Set: 6-31G*
  Basis Set:

    Orbital Energies (a.u.)
    -----------------------

    Doubly Occupied:

       1A    -20.607156     2A    -20.543997     3A    -11.378703
       4A    -11.282274     5A    -11.245212     6A    -11.245021
       7A    -11.243781     8A    -11.241371     9A    -11.237174
      10A    -11.236413    11A     -1.471242    12A     -1.364257
      13A     -1.164949    14A     -1.047907    15A     -1.024504
      16A     -0.978857    17A     -0.859903    18A     -0.833997
      19A     -0.777384    20A     -0.739804    21A     -0.683568
      22A     -0.676426    23A     -0.671615    24A     -0.631068
      25A     -0.623660    26A     -0.597496    27A     -0.584679
      28A     -0.565061    29A     -0.525821    30A     -0.516337
      31A     -0.503625    32A     -0.498430    33A     -0.457668
      34A     -0.444302    35A     -0.344639    36A     -0.340679

  @DF-RHF Final Energy:  -457.34946230793145

   => Energetics <=

    Nuclear Repulsion Energy =            492.7674752117215462
    One-Electron Energy =               -1599.8559062062524845
    Two-Electron Energy =                 649.7389686865994918
    DFT Exchange-Correlation Energy =       0.0000000000000000
    Empirical Dispersion Energy =           0.0000000000000000
    PCM Polarization Energy =               0.0000000000000000
    EFP Energy =                            0.0000000000000000
    Total Energy =                       -457.3494623079313897
    Molecular point group: c1
  Basis Set: 6-31G*
  Basis Set:

  -Total Gradient:
     Atom            X                  Y                   Z
    ------   -----------------  -----------------  -----------------
       1        0.000001262601    -0.000001074647     0.000000911343
       2        0.000000175826    -0.000001269636     0.000009760234
       3       -0.000000092753     0.000009944414     0.000003707499
       4        0.000019581348     0.000003551622    -0.000003898631
       5        0.000004089033     0.000002644782     0.000001435157
       6        0.000020991618    -0.000015974869    -0.000000537321
       7        0.000007727711     0.000002230549    -0.000001197575
       8        0.000030797949    -0.000012414352     0.000017803264
       9        0.000003297134     0.000002110731     0.000010993098
      10        0.000040284748     0.000026442114    -0.000005249032
      11        0.000017888390     0.000006541350    -0.000019307109
      12       -0.000132941906     0.001464818347    -0.000054388744
      13        0.000180551371    -0.001861186997     0.000143582211
      14       -0.000114915356     0.000001128765     0.000156200123
      15        0.000123310638    -0.001124427205    -0.001067847515
      16       -0.000129873640     0.001500550477     0.000827462108
      17       -0.000042553956    -0.000020842531    -0.000000580485
      18       -0.000029580756     0.000017227085    -0.000018848626

  **** Optimization is complete! (in 6 steps) ****
    Final optimized geometry and variables:
    Molecular point group: c1

    Geometry (in Angstrom), charge = 0, multiplicity = 1:

    H           -4.031528437071    -0.441650303707    -0.007449281034
    C           -2.963085125896    -0.325198619147     0.032309204595
    C           -2.321582314422    -0.244773309566     1.259177474714
    C           -2.231945606679    -0.256191450879    -1.143073680101
    H           -2.889679675199    -0.298586228055     2.170121762686
    C           -0.947740672120    -0.095327469064     1.309426991734
    H           -2.730882448203    -0.318835561306    -2.093190541696
    C           -0.856583127697    -0.106302439809    -1.095146456148
    H           -0.434798253255    -0.031494146909     2.249837816115
    C           -0.210608530428    -0.025168880079     0.132827121058
    H           -0.287107228825    -0.052753182439    -2.002335935639
    C            1.267154933323     0.137030701936     0.242697519485
    O            1.866951969194     0.184992703654    -0.937815872386
    O            1.849022315924     0.213766539562     1.279144211227
    C            3.271285092061     0.373861378111    -0.969964309137
    H            3.485770644848     0.899944902863    -1.887704777722
    H            3.767744267622    -0.586868945031    -0.963414982915
    H            3.597322633401     0.955980580580    -0.123630979812

  Mulliken Charges: (a.u.)
   Center  Symbol    Alpha    Beta     Spin     Total
       1     H     0.39546  0.39546  0.00000  0.20909
       2     C     3.09001  3.09001  0.00000 -0.18001
       3     C     3.10707  3.10707  0.00000 -0.21414
       4     C     3.10712  3.10712  0.00000 -0.21425
       5     H     0.39545  0.39545  0.00000  0.20911
       6     C     3.08649  3.08649  0.00000 -0.17298
       7     H     0.39635  0.39635  0.00000  0.20729
       8     C     3.08702  3.08702  0.00000 -0.17403
       9     H     0.37595  0.37595  0.00000  0.24809
      10     C     3.07752  3.07752  0.00000 -0.15505
      11     H     0.38055  0.38055  0.00000  0.23891
      12     C     2.57948  2.57948  0.00000  0.84104
      13     O     4.31588  4.31588  0.00000 -0.63176
      14     O     4.29151  4.29151  0.00000 -0.58301
      15     C     3.09527  3.09527  0.00000 -0.19054
      16     H     0.40926  0.40926  0.00000  0.18149
      17     H     0.41150  0.41150  0.00000  0.17700
      18     H     0.39812  0.39812  0.00000  0.20376

   Total alpha = 36.00000, Total beta = 36.00000, Total charge =  0.00000
