  ==> Input File <==

--------------------------------------------------------------------------
set {
	reference rhf
	basis 6-31G*
}

set_num_threads( 1 )
memory 2 gb

molecule MOL {
0 1

H	 -3.420663	 1.227371	 -1.044276
O	 -3.452007	 0.283848	 -0.965577
C	 -3.181085	 -0.079926	 0.364119
C	 -1.765924	 0.277073	 0.805136
H	 -3.327791	 -1.152017	 0.410903
H	 -3.905698	 0.375695	 1.036898
C	 -0.677594	 -0.417312	 -0.014550
H	 -1.637766	 1.358238	 0.744969
H	 -1.659588	 0.017670	 1.857098
C	 0.738335	 -0.034840	 0.421385
H	 -0.814977	 -0.178223	 -1.064632
H	 -0.802730	 -1.495410	 0.071702
C	 1.566058	 0.570213	 -0.715660
H	 0.675888	 0.666964	 1.249631
H	 1.249371	 -0.916523	 0.806197
C	 3.020840	 0.888113	 -0.351373
H	 1.079419	 1.476959	 -1.071595
H	 1.564206	 -0.123046	 -1.554233
C	 3.187822	 1.992122	 0.694421
H	 3.545538	 1.184024	 -1.256590
H	 3.510069	 -0.018461	 -0.000688
H	 2.697254	 2.908193	 0.376152
H	 4.237999	 2.218430	 0.851743
H	 2.769411	 1.709151	 1.654642

	symmetry c1
}
set optking {
	frozen_dihedral = ("
		20 16 13 17,
		17 13 10 7,
		11 7 4 3,
		1 2 3 5,
		7 4 3 2
	")
}

ee = energy('scf')
oeprop('DIPOLE', 'QUADRUPOLE', 'MULLIKEN_CHARGES')
f=open( 'psi4out.xyz', 'w' )
f.write( "24  " )
f.write( str(ee) + "\n" )
f.write( MOL.save_string_xyz() )
f.close()
--------------------------------------------------------------------------

    Molecular point group: c1

    Geometry (in Angstrom), charge = 0, multiplicity = 1:

       Center              X                  Y                   Z               Mass
    ------------   -----------------  -----------------  -----------------  -----------------
           H         -3.293655551864     0.777690877356    -1.062268936919     1.007825032070
           O         -3.324999551864    -0.165832122644    -0.983569936919    15.994914619560
           C         -3.054077551864    -0.529606122644     0.346126063081    12.000000000000
           C         -1.638916551864    -0.172607122644     0.787143063081    12.000000000000
           H         -3.200783551864    -1.601697122644     0.392910063081     1.007825032070
           H         -3.778690551864    -0.073985122644     1.018905063081     1.007825032070
           C         -0.550586551864    -0.866992122644    -0.032542936919    12.000000000000
           H         -1.510758551864     0.908557877356     0.726976063081     1.007825032070
           H         -1.532580551864    -0.432010122644     1.839105063081     1.007825032070
           C          0.865342448136    -0.484520122644     0.403392063081    12.000000000000
           H         -0.687969551864    -0.627903122644    -1.082624936919     1.007825032070
           H         -0.675722551864    -1.945090122644     0.053709063081     1.007825032070
           C          1.693065448136     0.120532877356    -0.733652936919    12.000000000000
           H          0.802895448136     0.217283877356     1.231638063081     1.007825032070
           H          1.376378448136    -1.366203122644     0.788204063081     1.007825032070
           C          3.147847448136     0.438432877356    -0.369365936919    12.000000000000
           H          1.206426448136     1.027278877356    -1.089587936919     1.007825032070
           H          1.691213448136    -0.572726122644    -1.572225936919     1.007825032070
           C          3.314829448136     1.542441877356     0.676428063081    12.000000000000
           H          3.672545448136     0.734343877356    -1.274582936919     1.007825032070
           H          3.637076448136    -0.468141122644    -0.018680936919     1.007825032070
           H          2.824261448136     2.458512877356     0.358159063081     1.007825032070
           H          4.365006448136     1.768749877356     0.833750063081     1.007825032070
           H          2.896418448136     1.259470877356     1.636649063081     1.007825032070

  Charge       = 0
  Multiplicity = 1
  Basis Set: 6-31G*
  Basis Set:

    Orbital Energies (a.u.)
    -----------------------

    Doubly Occupied:

       1A    -20.553427     2A    -11.267177     3A    -11.217756
       4A    -11.213884     5A    -11.212460     6A    -11.210635
       7A    -11.209474     8A    -11.207733     9A     -1.359969
      10A     -1.088951    11A     -1.047957    12A     -0.985345
      13A     -0.915015    14A     -0.850649    15A     -0.802546
      16A     -0.776317    17A     -0.680094    18A     -0.642010
      19A     -0.632601    20A     -0.615480    21A     -0.600689
      22A     -0.588229    23A     -0.556148    24A     -0.542320
      25A     -0.515429    26A     -0.510481    27A     -0.497622
      28A     -0.475821    29A     -0.466502    30A     -0.459432
      31A     -0.452525    32A     -0.448109    33A     -0.417978

  @DF-RHF Final Energy:  -349.24192135618284

   => Energetics <=

    Nuclear Repulsion Energy =            387.1474269857513946
    One-Electron Energy =               -1240.7374061571235870
    Two-Electron Energy =                 504.3480578151895202
    DFT Exchange-Correlation Energy =       0.0000000000000000
    Empirical Dispersion Energy =           0.0000000000000000
    PCM Polarization Energy =               0.0000000000000000
    EFP Energy =                            0.0000000000000000
    Total Energy =                       -349.2419213561826723

  Mulliken Charges: (a.u.)
   Center  Symbol    Alpha    Beta     Spin     Total
       1     H     0.28342  0.28342  0.00000  0.43315
       2     O     4.36826  4.36826  0.00000 -0.73651
       3     C     2.99668  2.99668  0.00000  0.00664
       4     C     3.17147  3.17147  0.00000 -0.34293
       5     H     0.41635  0.41635  0.00000  0.16731
       6     H     0.42840  0.42840  0.00000  0.14321
       7     C     3.15497  3.15497  0.00000 -0.30993
       8     H     0.42801  0.42801  0.00000  0.14398
       9     H     0.42184  0.42184  0.00000  0.15631
      10     C     3.15675  3.15675  0.00000 -0.31350
      11     H     0.40888  0.40888  0.00000  0.18223
      12     H     0.42114  0.42114  0.00000  0.15772
      13     C     3.15448  3.15448  0.00000 -0.30897
      14     H     0.42035  0.42035  0.00000  0.15930
      15     H     0.42168  0.42168  0.00000  0.15664
      16     C     3.15293  3.15293  0.00000 -0.30587
      17     H     0.42554  0.42554  0.00000  0.14892
      18     H     0.42046  0.42046  0.00000  0.15907
      19     C     3.24095  3.24095  0.00000 -0.48190
      20     H     0.42131  0.42131  0.00000  0.15738
      21     H     0.42335  0.42335  0.00000  0.15329
      22     H     0.42310  0.42310  0.00000  0.15379
      23     H     0.41940  0.41940  0.00000  0.16119
      24     H     0.42026  0.42026  0.00000  0.15948

   Total alpha = 33.00000, Total beta = 33.00000, Total charge =  0.00000
