  ==> Input File <==

--------------------------------------------------------------------------
set {
	reference rhf
	basis 6-31G*
}

set_num_threads( 1 )
memory 2 gb

molecule MOL {
0 1

O	 -2.447897	 0.713971	 -0.889890
C	 -1.921153	 0.064240	 -0.045697
C	 -2.615713	 -0.950783	 0.821287
O	 -0.632575	 0.154573	 0.251549
H	 -2.511087	 -0.674508	 1.864203
H	 -3.660879	 -1.000640	 0.554870
H	 -2.152385	 -1.921913	 0.690936
C	 0.160891	 -1.019931	 0.106212
C	 1.589627	 -0.672828	 0.480843
H	 0.089836	 -1.367806	 -0.916050
H	 -0.238459	 -1.792301	 0.749618
C	 2.246377	 0.346236	 -0.452210
H	 2.163194	 -1.597435	 0.473358
H	 1.604769	 -0.303424	 1.502885
C	 3.691736	 0.652107	 -0.061850
H	 2.219579	 -0.032311	 -1.472055
H	 1.666466	 1.263317	 -0.447249
H	 4.134505	 1.377213	 -0.737283
H	 4.305508	 -0.243868	 -0.089969
H	 3.748266	 1.059562	 0.943567

	symmetry c1
}
set optking {
	frozen_dihedral = ("
		16 12 9 8,
		2 4 8 10,
		12 9 8 10
	")
}

ee = energy('scf')
oeprop('DIPOLE', 'QUADRUPOLE', 'MULLIKEN_CHARGES')
f=open( 'psi4out.xyz', 'w' )
f.write( "20  " )
f.write( str(ee) + "\n" )
f.write( MOL.save_string_xyz() )
f.close()
--------------------------------------------------------------------------

    Molecular point group: c1

    Geometry (in Angstrom), charge = 0, multiplicity = 1:

       Center              X                  Y                   Z               Mass
    ------------   -----------------  -----------------  -----------------  -----------------
           O         -2.447962225428     0.803167754964    -0.916715727597    15.994914619560
           C         -1.921218225428     0.153436754964    -0.072522727597    12.000000000000
           C         -2.615778225428    -0.861586245036     0.794461272403    12.000000000000
           O         -0.632640225428     0.243769754964     0.224723272403    15.994914619560
           H         -2.511152225428    -0.585311245036     1.837377272403     1.007825032070
           H         -3.660944225428    -0.911443245036     0.528044272403     1.007825032070
           H         -2.152450225428    -1.832716245036     0.664110272403     1.007825032070
           C          0.160825774572    -0.930734245036     0.079386272403    12.000000000000
           C          1.589561774572    -0.583631245036     0.454017272403    12.000000000000
           H          0.089770774572    -1.278609245036    -0.942875727597     1.007825032070
           H         -0.238524225428    -1.703104245036     0.722792272403     1.007825032070
           C          2.246311774572     0.435432754964    -0.479035727597    12.000000000000
           H          2.163128774572    -1.508238245036     0.446532272403     1.007825032070
           H          1.604703774572    -0.214227245036     1.476059272403     1.007825032070
           C          3.691670774572     0.741303754964    -0.088675727597    12.000000000000
           H          2.219513774572     0.056885754964    -1.498880727597     1.007825032070
           H          1.666400774572     1.352513754964    -0.474074727597     1.007825032070
           H          4.134439774572     1.466409754964    -0.764108727597     1.007825032070
           H          4.305442774572    -0.154671245036    -0.116794727597     1.007825032070
           H          3.748200774572     1.148758754964     0.916741272403     1.007825032070

  Charge       = 0
  Multiplicity = 1
  Basis Set: 6-31G*
  Basis Set:

    Orbital Energies (a.u.)
    -----------------------

    Doubly Occupied:

       1A    -20.590406     2A    -20.551727     3A    -11.375990
       4A    -11.298605     5A    -11.235250     6A    -11.231814
       7A    -11.220551     8A    -11.213546     9A     -1.463413
      10A     -1.368413    11A     -1.087236    12A     -1.019906
      13A     -0.997612    14A     -0.888972    15A     -0.812559
      16A     -0.782501    17A     -0.696450    18A     -0.688975
      19A     -0.655563    20A     -0.640132    21A     -0.616657
      22A     -0.590077    23A     -0.578221    24A     -0.567091
      25A     -0.545159    26A     -0.529241    27A     -0.500403
      28A     -0.487874    29A     -0.477484    30A     -0.473451
      31A     -0.452594    32A     -0.435291

  @DF-RHF Final Energy:  -383.92193162219587

   => Energetics <=

    Nuclear Repulsion Energy =            385.9136538683164872
    One-Electron Energy =               -1287.5247558366636440
    Two-Electron Energy =                 517.6891703461504903
    DFT Exchange-Correlation Energy =       0.0000000000000000
    Empirical Dispersion Energy =           0.0000000000000000
    PCM Polarization Energy =               0.0000000000000000
    EFP Energy =                            0.0000000000000000
    Total Energy =                       -383.9219316221966665

  Mulliken Charges: (a.u.)
   Center  Symbol    Alpha    Beta     Spin     Total
       1     O     4.25696  4.25696  0.00000 -0.51393
       2     C     2.62200  2.62200  0.00000  0.75601
       3     C     3.29971  3.29971  0.00000 -0.59942
       4     O     4.30692  4.30692  0.00000 -0.61384
       5     H     0.39880  0.39880  0.00000  0.20241
       6     H     0.39513  0.39513  0.00000  0.20973
       7     H     0.40599  0.40599  0.00000  0.18803
       8     C     3.00869  3.00869  0.00000 -0.01737
       9     C     3.16161  3.16161  0.00000 -0.32321
      10     H     0.41319  0.41319  0.00000  0.17363
      11     H     0.41745  0.41745  0.00000  0.16509
      12     C     3.15581  3.15581  0.00000 -0.31163
      13     H     0.41923  0.41923  0.00000  0.16155
      14     H     0.41200  0.41200  0.00000  0.17601
      15     C     3.24118  3.24118  0.00000 -0.48236
      16     H     0.42245  0.42245  0.00000  0.15510
      17     H     0.40376  0.40376  0.00000  0.19249
      18     H     0.41587  0.41587  0.00000  0.16825
      19     H     0.42293  0.42293  0.00000  0.15415
      20     H     0.42034  0.42034  0.00000  0.15932

   Total alpha = 32.00000, Total beta = 32.00000, Total charge = -0.00000
