  ==> Input File <==

--------------------------------------------------------------------------
set {
	reference rhf
	basis 6-31G*
}

set_num_threads( 4 )
memory 2 gb

molecule MOL {
0 1

H	 3.893188	 0.355400	 -0.101367
N	 3.092854	 -0.246221	 -0.068770
C	 1.865559	 0.531981	 0.018834
H	 3.199514	 -0.826043	 0.741946
C	 0.645745	 -0.382037	 -0.029944
H	 1.841966	 1.207024	 -0.831236
H	 1.815756	 1.155410	 0.915079
C	 -0.679275	 0.379305	 0.025956
H	 0.698998	 -0.976915	 -0.937203
H	 0.693479	 -1.083846	 0.802235
C	 -0.561350	 1.829664	 -0.446195
H	 -1.060352	 0.365812	 1.045979
H	 -1.421272	 -0.135253	 -0.582746
C	 -1.886860	 2.587795	 -0.384791
H	 0.178487	 2.346109	 0.161375
H	 -0.183218	 1.846237	 -1.466194
H	 -2.274377	 2.618347	 0.629710
H	 -1.770698	 3.612183	 -0.724997
H	 -2.638673	 2.114845	 -1.010480

	symmetry c1
}
set optking {
	frozen_dihedral = ("
		12 8 5 9
	")
}

ee = optimize('scf')
oeprop('DIPOLE', 'QUADRUPOLE', 'MULLIKEN_CHARGES')
f=open( 'psi4out.xyz', 'w' )
f.write( "19  " )
f.write( str(ee) + "\n" )
f.write( MOL.save_string_xyz() )
f.close()
--------------------------------------------------------------------------

    Molecular point group: c1
  Charge       = 0
  Multiplicity = 1
  Basis Set: 6-31G*
  Basis Set:
  @DF-RHF Final Energy:  -251.34164448287413
    Total Energy =                       -251.3416444828741305
    Molecular point group: c1
  Basis Set: 6-31G*
  Basis Set:
  Basis Set: 6-31G*
  Basis Set:
  @DF-RHF Final Energy:  -251.34286061756245
    Total Energy =                       -251.3428606175625077
  Basis Set: 6-31G*
  Basis Set:
  Basis Set: 6-31G*
  Basis Set:
  @DF-RHF Final Energy:  -251.34506366926706
    Total Energy =                       -251.3450636692671765
  Basis Set: 6-31G*
  Basis Set:
  Basis Set: 6-31G*
  Basis Set:
  @DF-RHF Final Energy:  -251.34530390998694
    Total Energy =                       -251.3453039099870239
  Basis Set: 6-31G*
  Basis Set:
  Basis Set: 6-31G*
  Basis Set:
  @DF-RHF Final Energy:  -251.34532794777371
    Total Energy =                       -251.3453279477737397
  Basis Set: 6-31G*
  Basis Set:
  Basis Set: 6-31G*
  Basis Set:
  @DF-RHF Final Energy:  -251.34534193727714
    Total Energy =                       -251.3453419372771123
  Basis Set: 6-31G*
  Basis Set:
  Basis Set: 6-31G*
  Basis Set:
  @DF-RHF Final Energy:  -251.34534433688859
    Total Energy =                       -251.3453443368886155
  Basis Set: 6-31G*
  Basis Set:
  Charge       = 0
  Multiplicity = 1
  Basis Set: 6-31G*
  Basis Set:

    Orbital Energies (a.u.)
    -----------------------

    Doubly Occupied:

       1A    -15.532409     2A    -11.239642     3A    -11.214927
       4A    -11.213071     5A    -11.209831     6A    -11.208133
       7A     -1.176648     8A     -1.070870     9A     -0.995381
      10A     -0.899749    11A     -0.835479    12A     -0.769210
      13A     -0.664041    14A     -0.638790    15A     -0.614032
      16A     -0.590264    17A     -0.571695    18A     -0.550535
      19A     -0.524221    20A     -0.502310    21A     -0.490461
      22A     -0.458404    23A     -0.453986    24A     -0.447754
      25A     -0.380679

  @DF-RHF Final Energy:  -251.34534448853660

   => Energetics <=

    Nuclear Repulsion Energy =            249.3527192551298697
    One-Electron Energy =                -832.8910825825780648
    Two-Electron Energy =                 332.1930188389114846
    DFT Exchange-Correlation Energy =       0.0000000000000000
    Empirical Dispersion Energy =           0.0000000000000000
    PCM Polarization Energy =               0.0000000000000000
    EFP Energy =                            0.0000000000000000
    Total Energy =                       -251.3453444885367389
    Molecular point group: c1
  Basis Set: 6-31G*
  Basis Set:

  -Total Gradient:
     Atom            X                  Y                   Z
    ------   -----------------  -----------------  -----------------
       1        0.000012714192    -0.000004493983     0.000003725712
       2        0.000016774945    -0.000003459556     0.000007364454
       3       -0.000014037012    -0.000004136309     0.000000289232
       4        0.000001042619    -0.000001080592     0.000000234836
       5        0.002441163044     0.004737246288    -0.003991866825
       6       -0.000002851883    -0.000009834191    -0.000001728476
       7       -0.000002780122     0.000012455217    -0.000003975637
       8        0.003263735347     0.005194130395     0.002243411889
       9       -0.002557205709    -0.004780986887     0.002972033497
      10        0.000010663267     0.000001745323    -0.000013053600
      11       -0.000014492060    -0.000027891697    -0.000051408084
      12       -0.003161310117    -0.005146671552    -0.001195750324
      13        0.000002920806     0.000018490804     0.000007957623
      14       -0.000002027856     0.000006527213     0.000014176824
      15        0.000003835112    -0.000006466974     0.000010055582
      16        0.000002329830     0.000007319494    -0.000005174143
      17       -0.000006644384    -0.000001632747     0.000000452039
      18       -0.000002597912     0.000006164161     0.000004259602
      19        0.000008767890     0.000002575594    -0.000001004201

  **** Optimization is complete! (in 8 steps) ****
    Final optimized geometry and variables:
    Molecular point group: c1

    Geometry (in Angstrom), charge = 0, multiplicity = 1:

    H            3.531020238979    -0.646406523519     0.115079284591
    N            2.678507949919    -1.172267948846     0.100810303625
    C            1.525065533496    -0.287304114800     0.180964322167
    H            2.704822251956    -1.789319045326     0.890318927208
    C            0.239778352822    -1.100330301050     0.066759167507
    H            1.597237962682     0.416261559908    -0.640681213758
    H            1.502716087654     0.303385198798     1.100179668968
    C           -1.084770451314    -0.316724381444     0.187930302387
    H            0.255836471479    -1.678736322171    -0.851501406451
    H            0.251954823234    -1.850979706981     0.856408298221
    C           -1.084732266812     1.120479734186    -0.337979223729
    H           -1.433652893607    -0.341739281691     1.218114706676
    H           -1.842510735718    -0.872492186606    -0.361206222245
    C           -2.467085037558     1.767614258224    -0.255279097907
    H           -0.376679568513     1.725934520754     0.221050872133
    H           -0.746657573942     1.128326297801    -1.371956351066
    H           -2.824470818388     1.797855787750     0.770288355817
    H           -2.447238088162     2.786922806110    -0.628549973470
    H           -3.195143534358     1.214356209679    -0.841668482433

  Mulliken Charges: (a.u.)
   Center  Symbol    Alpha    Beta     Spin     Total
       1     H     0.33238  0.33238  0.00000  0.33523
       2     N     3.92234  3.92234  0.00000 -0.84469
       3     C     3.06320  3.06320  0.00000 -0.12640
       4     H     0.33537  0.33537  0.00000  0.32925
       5     C     3.15381  3.15381  0.00000 -0.30762
       6     H     0.41846  0.41846  0.00000  0.16309
       7     H     0.43436  0.43436  0.00000  0.13129
       8     C     3.15652  3.15652  0.00000 -0.31304
       9     H     0.41191  0.41191  0.00000  0.17618
      10     H     0.42659  0.42659  0.00000  0.14682
      11     C     3.15583  3.15583  0.00000 -0.31165
      12     H     0.42307  0.42307  0.00000  0.15385
      13     H     0.42116  0.42116  0.00000  0.15769
      14     C     3.23917  3.23917  0.00000 -0.47834
      15     H     0.42175  0.42175  0.00000  0.15650
      16     H     0.42134  0.42134  0.00000  0.15732
      17     H     0.42192  0.42192  0.00000  0.15615
      18     H     0.41941  0.41941  0.00000  0.16117
      19     H     0.42140  0.42140  0.00000  0.15719

   Total alpha = 25.00000, Total beta = 25.00000, Total charge =  0.00000
