  ==> Input File <==

--------------------------------------------------------------------------
set {
	reference rhf
	basis cc-pvtz
}

set_num_threads( 4 )
memory 2 gb

molecule MOL {
0 1

H	 3.083659	 -1.378387	 0.000000
O	 2.179005	 -1.633391	 0.000000
C	 1.366950	 -0.558201	 0.000000
C	 0.110494	 -0.579111	 0.586141
C	 1.823565	 0.591903	 -0.610560
H	 -0.243631	 -1.475892	 1.061336
C	 -0.685356	 0.548241	 0.560525
H	 2.793481	 0.611229	 -1.064137
C	 1.019466	 1.717223	 -0.631669
H	 -1.655636	 0.520344	 1.017253
C	 -0.236006	 1.702765	 -0.048226
C	 1.499553	 2.962440	 -1.286138
H	 -0.852617	 2.580955	 -0.069721
O	 2.551514	 3.084565	 -1.813285
H	 0.793977	 3.798257	 -1.251902

	symmetry c1
}
set optking {
	frozen_dihedral = ("
		4 3 2 1
	")
}

ee = optimize('scf')
oeprop('DIPOLE', 'QUADRUPOLE', 'MULLIKEN_CHARGES')
f=open( 'psi4out.xyz', 'w' )
f.write( "15  " )
f.write( str(ee) + "\n" )
f.write( MOL.save_string_xyz() )
f.close()
--------------------------------------------------------------------------

    Molecular point group: c1
  Charge       = 0
  Multiplicity = 1
  Basis Set: CC-PVTZ
  Basis Set:
  @DF-RHF Final Energy:  -418.43713520966429
    Total Energy =                       -418.4371352096636656
    Molecular point group: c1
  Basis Set: CC-PVTZ
  Basis Set:
  Basis Set: CC-PVTZ
  Basis Set:
  @DF-RHF Final Energy:  -418.43883286426529
    Total Energy =                       -418.4388328642651231
  Basis Set: CC-PVTZ
  Basis Set:
  Basis Set: CC-PVTZ
  Basis Set:
  @DF-RHF Final Energy:  -418.43870829074638
    Total Energy =                       -418.4387082907462627
  Basis Set: CC-PVTZ
  Basis Set:
  Basis Set: CC-PVTZ
  Basis Set:
  @DF-RHF Final Energy:  -418.43869990942278
    Total Energy =                       -418.4386999094224393
  Basis Set: CC-PVTZ
  Basis Set:
  Basis Set: CC-PVTZ
  Basis Set:
  @DF-RHF Final Energy:  -418.43899169079208
    Total Energy =                       -418.4389916907915676
  Basis Set: CC-PVTZ
  Basis Set:
  Basis Set: CC-PVTZ
  Basis Set:
  @DF-RHF Final Energy:  -418.43899476672055
    Total Energy =                       -418.4389947667204979
  Basis Set: CC-PVTZ
  Basis Set:
  Charge       = 0
  Multiplicity = 1
  Basis Set: CC-PVTZ
  Basis Set:

    Orbital Energies (a.u.)
    -----------------------

    Doubly Occupied:

       1A    -20.591872     2A    -20.556535     3A    -11.329974
       4A    -11.309569     5A    -11.251944     6A    -11.249182
       7A    -11.245824     8A    -11.243653     9A    -11.242001
      10A     -1.422704    11A     -1.412254    12A     -1.174751
      13A     -1.053176    14A     -1.029728    15A     -0.903245
      16A     -0.856340    17A     -0.799972    18A     -0.757579
      19A     -0.703879    20A     -0.673424    21A     -0.665275
      22A     -0.634251    23A     -0.619457    24A     -0.612197
      25A     -0.569651    26A     -0.557499    27A     -0.538426
      28A     -0.519147    29A     -0.492566    30A     -0.429035
      31A     -0.357932    32A     -0.335150

  @DF-RHF Final Energy:  -418.43899530334602

   => Energetics <=

    Nuclear Repulsion Energy =            404.0866098582163204
    One-Electron Energy =               -1370.7748270454494559
    Two-Electron Energy =                 548.2492218838871167
    DFT Exchange-Correlation Energy =       0.0000000000000000
    Empirical Dispersion Energy =           0.0000000000000000
    PCM Polarization Energy =               0.0000000000000000
    EFP Energy =                            0.0000000000000000
    Total Energy =                       -418.4389953033460188
    Molecular point group: c1
  Basis Set: CC-PVTZ
  Basis Set:

  -Total Gradient:
     Atom            X                  Y                   Z
    ------   -----------------  -----------------  -----------------
       1       -0.000057324340     0.000079893385     0.002702344493
       2        0.000434700608     0.000167822905    -0.002621509811
       3       -0.001154037397    -0.000787604703    -0.001701738290
       4        0.000757212029     0.000597706788     0.001641698815
       5        0.000026298056    -0.000036687501    -0.000000305199
       6        0.000007498154    -0.000004897337     0.000001582053
       7       -0.000008215852    -0.000021822413    -0.000029104235
       8       -0.000006077545     0.000001956062     0.000000512490
       9       -0.000022094182     0.000000175969    -0.000020697341
      10        0.000002731696    -0.000002027660     0.000005559854
      11        0.000019223041     0.000002034135     0.000043090655
      12       -0.000038652667    -0.000015915085    -0.000046757911
      13        0.000005957960     0.000003563484    -0.000004687409
      14        0.000019490824     0.000012938010     0.000013765833
      15        0.000013289613     0.000002863960     0.000016246000

  **** Optimization is complete! (in 7 steps) ****
    Final optimized geometry and variables:
    Molecular point group: c1

    Geometry (in Angstrom), charge = 0, multiplicity = 1:

    H            1.914404201835    -2.333180591074     0.420600953024
    O            0.995453603523    -2.533040928967     0.411144462063
    C            0.253964877492    -1.403458479475     0.367978390682
    C           -1.000455854088    -1.434830169763     0.964660397903
    C            0.698430802740    -0.253001889610    -0.241179763022
    H           -1.323073166231    -2.339945207739     1.440509685741
    C           -1.805945459232    -0.320006820498     0.934074380514
    H            1.662723003552    -0.211648818635    -0.709936943855
    C           -0.114538237739     0.872758637241    -0.257138446928
    H           -2.774628008387    -0.352938638640     1.393809431442
    C           -1.365367131880     0.843602632607     0.323883726683
    C            0.359359760587     2.120165235114    -0.907777693337
    H           -1.990600004757     1.715973999181     0.304490487630
    O            1.416678542781     2.250053463657    -1.423795030009
    H           -0.353641578228     2.949825102166    -0.881624631583

  Mulliken Charges: (a.u.)
   Center  Symbol    Alpha    Beta     Spin     Total
       1     H     0.38337  0.38337  0.00000  0.23326
       2     O     4.17775  4.17775  0.00000 -0.35549
       3     C     2.84926  2.84926  0.00000  0.30147
       4     C     3.10126  3.10126  0.00000 -0.20251
       5     C     3.13757  3.13757  0.00000 -0.27514
       6     H     0.41428  0.41428  0.00000  0.17144
       7     C     3.05837  3.05837  0.00000 -0.11673
       8     H     0.41342  0.41342  0.00000  0.17316
       9     C     2.98037  2.98037  0.00000  0.03925
      10     H     0.41919  0.41919  0.00000  0.16161
      11     C     3.10575  3.10575  0.00000 -0.21149
      12     C     2.90915  2.90915  0.00000  0.18170
      13     H     0.42292  0.42292  0.00000  0.15416
      14     O     4.17206  4.17206  0.00000 -0.34411
      15     H     0.45528  0.45528  0.00000  0.08943

   Total alpha = 32.00000, Total beta = 32.00000, Total charge = -0.00000
