  ==> Input File <==

--------------------------------------------------------------------------
set {
	reference rhf
	basis 6-31G*
}

set_num_threads( 1 )
memory 2 gb

molecule MOL {
0 1

H	 3.264554	 1.068809	 2.238421
N	 2.432771	 0.510570	 2.245675
C	 1.522815	 0.926693	 1.188155
H	 2.007446	 0.636685	 3.144576
C	 0.302525	 0.013290	 1.139754
H	 2.058957	 0.858913	 0.246446
H	 1.195050	 1.964504	 1.287744
C	 -0.679275	 0.379305	 0.025956
H	 0.644896	 -1.010224	 1.017129
H	 -0.210617	 0.053852	 2.100158
C	 -1.903357	 -0.536963	 -0.023547
H	 -0.166275	 0.341841	 -0.933875
H	 -1.008985	 1.409156	 0.154589
C	 -3.225172	 0.228290	 0.028445
H	 -1.867824	 -1.134999	 -0.931459
H	 -1.860449	 -1.239604	 0.805977
H	 -3.313397	 0.915643	 -0.808262
H	 -4.073500	 -0.448134	 -0.008893
H	 -3.306061	 0.809945	 0.942516

	symmetry c1
}
set optking {
	frozen_dihedral = ("
		6 3 5 9,
		12 8 5 9,
		1 2 3 6
	")
}

ee = energy('scf')
oeprop('DIPOLE', 'QUADRUPOLE', 'MULLIKEN_CHARGES')
f=open( 'psi4out.xyz', 'w' )
f.write( "19  " )
f.write( str(ee) + "\n" )
f.write( MOL.save_string_xyz() )
f.close()
--------------------------------------------------------------------------

    Molecular point group: c1

    Geometry (in Angstrom), charge = 0, multiplicity = 1:

       Center              X                  Y                   Z               Mass
    ------------   -----------------  -----------------  -----------------  -----------------
           H          3.498885854304     0.798601293138     1.445364843848     1.007825032070
           N          2.667102854304     0.240362293138     1.452618843848    14.003074004780
           C          1.757146854304     0.656485293138     0.395098843848    12.000000000000
           H          2.241777854304     0.366477293138     2.351519843848     1.007825032070
           C          0.536856854304    -0.256917706862     0.346697843848    12.000000000000
           H          2.293288854304     0.588705293138    -0.546610156152     1.007825032070
           H          1.429381854304     1.694296293138     0.494687843848     1.007825032070
           C         -0.444943145696     0.109097293138    -0.767100156152    12.000000000000
           H          0.879227854304    -1.280431706862     0.224072843848     1.007825032070
           H          0.023714854304    -0.216355706862     1.307101843848     1.007825032070
           C         -1.669025145696    -0.807170706862    -0.816603156152    12.000000000000
           H          0.068056854304     0.071633293138    -1.726931156152     1.007825032070
           H         -0.774653145696     1.138948293138    -0.638467156152     1.007825032070
           C         -2.990840145696    -0.041917706862    -0.764611156152    12.000000000000
           H         -1.633492145696    -1.405206706862    -1.724515156152     1.007825032070
           H         -1.626117145696    -1.509811706862     0.012920843848     1.007825032070
           H         -3.079065145696     0.645435293138    -1.601318156152     1.007825032070
           H         -3.839168145696    -0.718341706862    -0.801949156152     1.007825032070
           H         -3.071729145696     0.539737293138     0.149459843848     1.007825032070

  Charge       = 0
  Multiplicity = 1
  Basis Set: 6-31G*
  Basis Set:

    Orbital Energies (a.u.)
    -----------------------

    Doubly Occupied:

       1A    -15.532344     2A    -11.239214     3A    -11.212273
       4A    -11.211109     5A    -11.209780     6A    -11.207863
       7A     -1.176446     8A     -1.073101     9A     -0.997489
      10A     -0.900522    11A     -0.815004    12A     -0.787859
      13A     -0.662684    14A     -0.640896    15A     -0.613436
      16A     -0.594001    17A     -0.561795    18A     -0.558035
      19A     -0.520845    20A     -0.500297    21A     -0.487035
      22A     -0.464918    23A     -0.453402    24A     -0.447760
      25A     -0.380782

  @DF-RHF Final Energy:  -251.34596277101770

   => Energetics <=

    Nuclear Repulsion Energy =            246.6223933293962887
    One-Electron Energy =                -827.4388724172737284
    Two-Electron Energy =                 329.4705163168598574
    DFT Exchange-Correlation Energy =       0.0000000000000000
    Empirical Dispersion Energy =           0.0000000000000000
    PCM Polarization Energy =               0.0000000000000000
    EFP Energy =                            0.0000000000000000
    Total Energy =                       -251.3459627710176392

  Mulliken Charges: (a.u.)
   Center  Symbol    Alpha    Beta     Spin     Total
       1     H     0.33254  0.33254  0.00000  0.33493
       2     N     3.92190  3.92190  0.00000 -0.84379
       3     C     3.06074  3.06074  0.00000 -0.12148
       4     H     0.33545  0.33545  0.00000  0.32909
       5     C     3.15399  3.15399  0.00000 -0.30798
       6     H     0.42087  0.42087  0.00000  0.15826
       7     H     0.43475  0.43475  0.00000  0.13050
       8     C     3.15846  3.15846  0.00000 -0.31691
       9     H     0.41253  0.41253  0.00000  0.17493
      10     H     0.42753  0.42753  0.00000  0.14493
      11     C     3.15357  3.15357  0.00000 -0.30714
      12     H     0.42104  0.42104  0.00000  0.15793
      13     H     0.42190  0.42190  0.00000  0.15620
      14     C     3.24047  3.24047  0.00000 -0.48095
      15     H     0.42025  0.42025  0.00000  0.15950
      16     H     0.41931  0.41931  0.00000  0.16137
      17     H     0.42166  0.42166  0.00000  0.15668
      18     H     0.42057  0.42057  0.00000  0.15887
      19     H     0.42247  0.42247  0.00000  0.15506

   Total alpha = 25.00000, Total beta = 25.00000, Total charge = -0.00000
