  ==> Input File <==

--------------------------------------------------------------------------
set {
	reference rhf
	basis 6-31G*
}

set_num_threads( 4 )
memory 2 gb

molecule MOL {
0 1

H	 -1.070890	 -1.366565	 0.180696
O	 -1.422729	 -0.573567	 -0.196946
C	 -0.731407	 0.539437	 0.309156
C	 0.680193	 0.672443	 -0.251532
H	 -1.319765	 1.404033	 0.030086
H	 -0.700012	 0.506517	 1.397677
C	 0.845516	 0.067541	 -1.645973
H	 0.944802	 1.725544	 -0.276169
H	 1.367756	 0.187392	 0.438049
H	 0.224948	 0.578480	 -2.376064
H	 1.872413	 0.148121	 -1.986495
H	 0.578220	 -0.986383	 -1.653800

	symmetry c1
}
set optking {
	frozen_dihedral = ("
		8 4 3 2
	")
}

ee = optimize('scf')
oeprop('DIPOLE', 'QUADRUPOLE', 'MULLIKEN_CHARGES')
f=open( 'psi4out.xyz', 'w' )
f.write( "12  " )
f.write( str(ee) + "\n" )
f.write( MOL.save_string_xyz() )
f.close()
--------------------------------------------------------------------------

    Molecular point group: c1
  Charge       = 0
  Multiplicity = 1
  Basis Set: 6-31G*
  Basis Set:
  @DF-RHF Final Energy:  -193.10533972526360
    Total Energy =                       -193.1053397252636330
    Molecular point group: c1
  Basis Set: 6-31G*
  Basis Set:
  Basis Set: 6-31G*
  Basis Set:
  @DF-RHF Final Energy:  -193.10606330930418
    Total Energy =                       -193.1060633093041474
  Basis Set: 6-31G*
  Basis Set:
  Basis Set: 6-31G*
  Basis Set:
  @DF-RHF Final Energy:  -193.10636103470779
    Total Energy =                       -193.1063610347078168
  Basis Set: 6-31G*
  Basis Set:
  Basis Set: 6-31G*
  Basis Set:
  @DF-RHF Final Energy:  -193.10636955895586
    Total Energy =                       -193.1063695589558904
  Basis Set: 6-31G*
  Basis Set:
  Basis Set: 6-31G*
  Basis Set:
  @DF-RHF Final Energy:  -193.10637425179749
    Total Energy =                       -193.1063742517975186
  Basis Set: 6-31G*
  Basis Set:
  Charge       = 0
  Multiplicity = 1
  Basis Set: 6-31G*
  Basis Set:

    Orbital Energies (a.u.)
    -----------------------

    Doubly Occupied:

       1A    -20.554705     2A    -11.268411     3A    -11.219118
       4A    -11.207797     5A     -1.360844     6A     -1.045509
       7A     -0.922811     8A     -0.809251     9A     -0.683341
      10A     -0.635895    11A     -0.625111    12A     -0.569698
      13A     -0.526938    14A     -0.510565    15A     -0.487018
      16A     -0.463157    17A     -0.431489

  @DF-RHF Final Energy:  -193.10637469156438

   => Energetics <=

    Nuclear Repulsion Energy =            133.4657615484534858
    One-Electron Energy =                -526.5009560039311509
    Two-Electron Energy =                 199.9288197639133386
    DFT Exchange-Correlation Energy =       0.0000000000000000
    Empirical Dispersion Energy =           0.0000000000000000
    PCM Polarization Energy =               0.0000000000000000
    EFP Energy =                            0.0000000000000000
    Total Energy =                       -193.1063746915643264
    Molecular point group: c1
  Basis Set: 6-31G*
  Basis Set:

  -Total Gradient:
     Atom            X                  Y                   Z
    ------   -----------------  -----------------  -----------------
       1       -0.000003350136    -0.000008747427    -0.000004093591
       2       -0.001607077898     0.002664573437    -0.003789562161
       3        0.001735347398    -0.003606996607     0.003982159293
       4        0.002030423438     0.000597758793     0.005481495402
       5        0.000005089320     0.000012782465     0.000009058248
       6        0.000009223495     0.000000851564    -0.000006465978
       7       -0.000005703871     0.000019743023    -0.000003511512
       8       -0.002165431936     0.000328444575    -0.005674678754
       9        0.000007925243     0.000001993765     0.000009404492
      10        0.000002327205     0.000000923683    -0.000009414074
      11       -0.000009232844    -0.000005406876     0.000000933561
      12        0.000000460588    -0.000005920393     0.000004675075

  **** Optimization is complete! (in 6 steps) ****
    Final optimized geometry and variables:
    Molecular point group: c1

    Geometry (in Angstrom), charge = 0, multiplicity = 1:

    H           -0.906074492189    -1.500932804847     0.621484857464
    O           -1.267032163164    -0.701599830029     0.263404438017
    C           -0.541976731546     0.402923545500     0.739104135762
    C            0.892970578356     0.499502864095     0.198637575305
    H           -1.106565586725     1.263673119627     0.403767626092
    H           -0.539938277808     0.425686609727     1.826590992270
    C            1.046708811942    -0.062903375883    -1.216721498818
    H            1.161597337433     1.551999350074     0.159506136184
    H            1.593826389713     0.005849524728     0.867444872875
    H            0.354036501480     0.413288043469    -1.902964707167
    H            2.054276495277     0.107911775890    -1.582947577645
    H            0.855355416327    -1.128634116087    -1.251537240346

  Mulliken Charges: (a.u.)
   Center  Symbol    Alpha    Beta     Spin     Total
       1     H     0.28321  0.28321  0.00000  0.43357
       2     O     4.36729  4.36729  0.00000 -0.73459
       3     C     2.99446  2.99446  0.00000  0.01107
       4     C     3.17848  3.17848  0.00000 -0.35695
       5     H     0.41587  0.41587  0.00000  0.16827
       6     H     0.42779  0.42779  0.00000  0.14442
       7     C     3.23063  3.23063  0.00000 -0.46126
       8     H     0.41888  0.41888  0.00000  0.16224
       9     H     0.42312  0.42312  0.00000  0.15376
      10     H     0.41690  0.41690  0.00000  0.16621
      11     H     0.42225  0.42225  0.00000  0.15550
      12     H     0.42112  0.42112  0.00000  0.15775

   Total alpha = 17.00000, Total beta = 17.00000, Total charge =  0.00000
