  ==> Input File <==

--------------------------------------------------------------------------
set {
	reference rhf
	basis 6-31G*
}

set_num_threads( 1 )
memory 2 gb

molecule MOL {
0 1

H	 -2.258317	 -0.920211	 0.781428
O	 -2.347518	 -0.290803	 0.079804
C	 -1.184022	 0.487508	 -0.006784
C	 0.062599	 -0.378592	 0.031606
H	 -1.176523	 1.099369	 -0.904519
H	 -1.187323	 1.153111	 0.844927
O	 1.171513	 0.459272	 -0.058250
H	 0.050699	 -1.089204	 -0.797170
H	 0.078739	 -0.954914	 0.954740
C	 2.397842	 -0.198080	 -0.002151
H	 2.508049	 -0.905315	 -0.822092
H	 3.173794	 0.550865	 -0.078850
H	 2.517602	 -0.735921	 0.936026

	symmetry c1
}
set optking {
	frozen_dihedral = ("
		8 4 3 5,
		10 7 4 8,
		4 7 10 13
	")
}

ee = energy('scf')
oeprop('DIPOLE', 'QUADRUPOLE', 'MULLIKEN_CHARGES')
f=open( 'psi4out.xyz', 'w' )
f.write( "13  " )
f.write( str(ee) + "\n" )
f.write( MOL.save_string_xyz() )
f.close()
--------------------------------------------------------------------------

    Molecular point group: c1

    Geometry (in Angstrom), charge = 0, multiplicity = 1:

       Center              X                  Y                   Z               Mass
    ------------   -----------------  -----------------  -----------------  -----------------
           H         -2.261507609916    -0.917691117867     0.761199161638     1.007825032070
           O         -2.350708609916    -0.288283117867     0.059575161638    15.994914619560
           C         -1.187212609916     0.490027882133    -0.027012838362    12.000000000000
           C          0.059408390084    -0.376072117867     0.011377161638    12.000000000000
           H         -1.179713609916     1.101888882133    -0.924747838362     1.007825032070
           H         -1.190513609916     1.155630882133     0.824698161638     1.007825032070
           O          1.168322390084     0.461791882133    -0.078478838362    15.994914619560
           H          0.047508390084    -1.086684117867    -0.817398838362     1.007825032070
           H          0.075548390084    -0.952394117867     0.934511161638     1.007825032070
           C          2.394651390084    -0.195560117867    -0.022379838362    12.000000000000
           H          2.504858390084    -0.902795117867    -0.842320838362     1.007825032070
           H          3.170603390084     0.553384882133    -0.099078838362     1.007825032070
           H          2.514411390084    -0.733401117867     0.915797161638     1.007825032070

  Charge       = 0
  Multiplicity = 1
  Basis Set: 6-31G*
  Basis Set:

    Orbital Energies (a.u.)
    -----------------------

    Doubly Occupied:

       1A    -20.565772     2A    -20.558015     3A    -11.276049
       4A    -11.272619     5A    -11.269193     6A     -1.391992
       7A     -1.364818     8A     -1.020456     9A     -0.914643
      10A     -0.847715    11A     -0.702704    12A     -0.678042
      13A     -0.667440    14A     -0.635160    15A     -0.599696
      16A     -0.577101    17A     -0.547342    18A     -0.493792
      19A     -0.475911    20A     -0.438167    21A     -0.425262

  @DF-RHF Final Energy:  -267.94773758871179

   => Energetics <=

    Nuclear Repulsion Energy =            190.4450238914613180
    One-Electron Energy =                -743.3416862270968295
    Two-Electron Energy =                 284.9489247469234670
    DFT Exchange-Correlation Energy =       0.0000000000000000
    Empirical Dispersion Energy =           0.0000000000000000
    PCM Polarization Energy =               0.0000000000000000
    EFP Energy =                            0.0000000000000000
    Total Energy =                       -267.9477375887120161

  Mulliken Charges: (a.u.)
   Center  Symbol    Alpha    Beta     Spin     Total
       1     H     0.28172  0.28172  0.00000  0.43656
       2     O     4.37288  4.37288  0.00000 -0.74576
       3     C     2.99637  2.99637  0.00000  0.00727
       4     C     3.00392  3.00392  0.00000 -0.00784
       5     H     0.40757  0.40757  0.00000  0.18485
       6     H     0.42239  0.42239  0.00000  0.15522
       7     O     4.30629  4.30629  0.00000 -0.61257
       8     H     0.42372  0.42372  0.00000  0.15256
       9     H     0.43803  0.43803  0.00000  0.12395
      10     C     3.08080  3.08080  0.00000 -0.16161
      11     H     0.42768  0.42768  0.00000  0.14463
      12     H     0.40982  0.40982  0.00000  0.18036
      13     H     0.42880  0.42880  0.00000  0.14239

   Total alpha = 21.00000, Total beta = 21.00000, Total charge =  0.00000
