  ==> Input File <==

--------------------------------------------------------------------------
set {
	reference rhf
	basis 6-31G*
}

set_num_threads( 4 )
memory 2 gb

molecule MOL {
0 1

H	 -2.286874	 -0.046031	 -0.952094
N	 -1.852125	 0.165761	 -0.074816
C	 -0.563778	 -0.502042	 0.037919
H	 -2.476493	 -0.152055	 0.642062
C	 0.575259	 0.508231	 -0.048326
H	 -0.482092	 -1.204004	 -0.786564
H	 -0.460411	 -1.085169	 0.956626
C	 1.954651	 -0.143624	 0.035137
H	 0.475158	 1.060484	 -0.977307
H	 0.469181	 1.234488	 0.755973
H	 2.103292	 -0.853109	 -0.774172
H	 2.742821	 0.599562	 -0.030094
H	 2.083613	 -0.679371	 0.971560

	symmetry c1
}
set optking {
	frozen_dihedral = ("
		1 2 3 6
	")
}

ee = optimize('scf')
oeprop('DIPOLE', 'QUADRUPOLE', 'MULLIKEN_CHARGES')
f=open( 'psi4out.xyz', 'w' )
f.write( "13  " )
f.write( str(ee) + "\n" )
f.write( MOL.save_string_xyz() )
f.close()
--------------------------------------------------------------------------

    Molecular point group: c1
  Charge       = 0
  Multiplicity = 1
  Basis Set: 6-31G*
  Basis Set:
  @DF-RHF Final Energy:  -173.27829743427202
    Total Energy =                       -173.2782974342719626
    Molecular point group: c1
  Basis Set: 6-31G*
  Basis Set:
  Basis Set: 6-31G*
  Basis Set:
  @DF-RHF Final Energy:  -173.27914254817412
    Total Energy =                       -173.2791425481741499
  Basis Set: 6-31G*
  Basis Set:
  Basis Set: 6-31G*
  Basis Set:
  @DF-RHF Final Energy:  -173.27936553818532
    Total Energy =                       -173.2793655381851750
  Basis Set: 6-31G*
  Basis Set:
  Basis Set: 6-31G*
  Basis Set:
  @DF-RHF Final Energy:  -173.27936764064586
    Total Energy =                       -173.2793676406458303
  Basis Set: 6-31G*
  Basis Set:
  Basis Set: 6-31G*
  Basis Set:
  @DF-RHF Final Energy:  -173.27937112372706
    Total Energy =                       -173.2793711237269747
  Basis Set: 6-31G*
  Basis Set:
  Charge       = 0
  Multiplicity = 1
  Basis Set: 6-31G*
  Basis Set:

    Orbital Energies (a.u.)
    -----------------------

    Doubly Occupied:

       1A    -15.531608     2A    -11.240920     3A    -11.205908
       4A    -11.204858     5A     -1.173457     6A     -1.032162
       7A     -0.898110     8A     -0.793759     9A     -0.673847
      10A     -0.611933    11A     -0.601073    12A     -0.572898
      13A     -0.517558    14A     -0.489258    15A     -0.484592
      16A     -0.462957    17A     -0.378225

  @DF-RHF Final Energy:  -173.27937138986070

   => Energetics <=

    Nuclear Repulsion Energy =            131.3924858325915181
    One-Electron Energy =                -493.5974657231598712
    Two-Electron Energy =                 188.9256085007076251
    DFT Exchange-Correlation Energy =       0.0000000000000000
    Empirical Dispersion Energy =           0.0000000000000000
    PCM Polarization Energy =               0.0000000000000000
    EFP Energy =                            0.0000000000000000
    Total Energy =                       -173.2793713898606995
    Molecular point group: c1
  Basis Set: 6-31G*
  Basis Set:

  -Total Gradient:
     Atom            X                  Y                   Z
    ------   -----------------  -----------------  -----------------
       1       -0.000592578221    -0.001112031363     0.000598645290
       2        0.000901593872     0.001635238984    -0.000943322523
       3       -0.000792677025    -0.001435850960     0.001067891293
       4        0.000001588988    -0.000001821368     0.000005714687
       5       -0.000017937200     0.000004469964    -0.000010439002
       6        0.000506031887     0.000902669572    -0.000744618812
       7       -0.000004075842     0.000007059812     0.000004230147
       8       -0.000001839912    -0.000004253842     0.000017020503
       9       -0.000007139269     0.000004856091    -0.000001037183
      10        0.000011414504    -0.000003302035     0.000001643887
      11       -0.000010831301     0.000006167947     0.000003412658
      12       -0.000003091632     0.000001479635    -0.000002843106
      13        0.000009541147    -0.000004682438     0.000003702161

  **** Optimization is complete! (in 6 steps) ****
    Final optimized geometry and variables:
    Molecular point group: c1

    Geometry (in Angstrom), charge = 0, multiplicity = 1:

    H           -2.322046043918    -0.046366750181    -0.912971655716
    N           -1.860113886596     0.169038349359    -0.052750606781
    C           -0.558536843749    -0.493014254940     0.036021392385
    H           -2.469909692918    -0.126347397857     0.682368576283
    C            0.583320067680     0.518301001094    -0.030877304973
    H           -0.432542975150    -1.219692382512    -0.764978118756
    H           -0.490360424300    -1.047831522073     0.967971445130
    C            1.961773875283    -0.135496857874     0.054601926887
    H            0.495525562001     1.081233840566    -0.956470713011
    H            0.457149293154     1.235294529361     0.775072660964
    H            2.118463028833    -0.837426482107    -0.760391993188
    H            2.752108079224     0.606711376589     0.004596206253
    H            2.083092001714    -0.682000327088     0.986353442749

  Mulliken Charges: (a.u.)
   Center  Symbol    Alpha    Beta     Spin     Total
       1     H     0.33185  0.33185  0.00000  0.33630
       2     N     3.92617  3.92617  0.00000 -0.85235
       3     C     3.06675  3.06675  0.00000 -0.13351
       4     H     0.33132  0.33132  0.00000  0.33736
       5     C     3.13892  3.13892  0.00000 -0.27785
       6     H     0.42806  0.42806  0.00000  0.14387
       7     H     0.42509  0.42509  0.00000  0.14983
       8     C     3.24621  3.24621  0.00000 -0.49242
       9     H     0.42192  0.42192  0.00000  0.15616
      10     H     0.41894  0.41894  0.00000  0.16212
      11     H     0.42352  0.42352  0.00000  0.15296
      12     H     0.41791  0.41791  0.00000  0.16418
      13     H     0.42333  0.42333  0.00000  0.15334

   Total alpha = 17.00000, Total beta = 17.00000, Total charge =  0.00000
