  ==> Input File <==

--------------------------------------------------------------------------
set {
	reference rhf
	basis 6-31G*
}

set_num_threads( 1 )
memory 2 gb

molecule MOL {
0 1

H	 -0.954291	 -1.366283	 0.020806
O	 -1.422729	 -0.573567	 -0.196946
C	 -0.731407	 0.539437	 0.309156
C	 0.680193	 0.672443	 -0.251532
H	 -1.319765	 1.404033	 0.030086
H	 -0.700012	 0.506517	 1.397677
C	 1.599139	 -0.492137	 0.118598
H	 0.616402	 0.758534	 -1.332349
H	 1.107032	 1.602637	 0.117369
H	 1.239738	 -1.428634	 -0.297334
H	 2.601428	 -0.335055	 -0.265730
H	 1.674954	 -0.608418	 1.197020

	symmetry c1
}
set optking {
	frozen_dihedral = ("
		8 4 3 2
	")
}

ee = energy('scf')
oeprop('DIPOLE', 'QUADRUPOLE', 'MULLIKEN_CHARGES')
f=open( 'psi4out.xyz', 'w' )
f.write( "12  " )
f.write( str(ee) + "\n" )
f.write( MOL.save_string_xyz() )
f.close()
--------------------------------------------------------------------------

    Molecular point group: c1

    Geometry (in Angstrom), charge = 0, multiplicity = 1:

       Center              X                  Y                   Z               Mass
    ------------   -----------------  -----------------  -----------------  -----------------
           H         -0.956248035405    -1.366287414744     0.023489042872     1.007825032070
           O         -1.424686035405    -0.573571414744    -0.194262957128    15.994914619560
           C         -0.733364035405     0.539432585256     0.311839042872    12.000000000000
           C          0.678235964595     0.672438585256    -0.248848957128    12.000000000000
           H         -1.321722035405     1.404028585256     0.032769042872     1.007825032070
           H         -0.701969035405     0.506512585256     1.400360042872     1.007825032070
           C          1.597181964595    -0.492141414744     0.121281042872    12.000000000000
           H          0.614444964595     0.758529585256    -1.329665957128     1.007825032070
           H          1.105074964595     1.602632585256     0.120052042872     1.007825032070
           H          1.237780964595    -1.428638414744    -0.294650957128     1.007825032070
           H          2.599470964595    -0.335059414744    -0.263046957128     1.007825032070
           H          1.672996964595    -0.608422414744     1.199703042872     1.007825032070

  Charge       = 0
  Multiplicity = 1
  Basis Set: 6-31G*
  Basis Set:

    Orbital Energies (a.u.)
    -----------------------

    Doubly Occupied:

       1A    -20.552596     2A    -11.267799     3A    -11.220888
       4A    -11.220261     5A     -1.359786     6A     -1.052749
       7A     -0.929199     8A     -0.811631     9A     -0.692803
      10A     -0.638459    11A     -0.605281    12A     -0.588467
      13A     -0.543248    14A     -0.509230    15A     -0.494607
      16A     -0.469125    17A     -0.430218

  @DF-RHF Final Energy:  -193.10971138803191

   => Energetics <=

    Nuclear Repulsion Energy =            133.2037181600612996
    One-Electron Energy =                -525.8541094001006968
    Two-Electron Energy =                 199.5406798520073153
    DFT Exchange-Correlation Energy =       0.0000000000000000
    Empirical Dispersion Energy =           0.0000000000000000
    PCM Polarization Energy =               0.0000000000000000
    EFP Energy =                            0.0000000000000000
    Total Energy =                       -193.1097113880321103

  Mulliken Charges: (a.u.)
   Center  Symbol    Alpha    Beta     Spin     Total
       1     H     0.27967  0.27967  0.00000  0.44067
       2     O     4.37179  4.37179  0.00000 -0.74358
       3     C     2.99350  2.99350  0.00000  0.01300
       4     C     3.16483  3.16483  0.00000 -0.32965
       5     H     0.41449  0.41449  0.00000  0.17102
       6     H     0.43211  0.43211  0.00000  0.13579
       7     C     3.25067  3.25067  0.00000 -0.50133
       8     H     0.41375  0.41375  0.00000  0.17249
       9     H     0.42174  0.42174  0.00000  0.15653
      10     H     0.42465  0.42465  0.00000  0.15070
      11     H     0.41261  0.41261  0.00000  0.17478
      12     H     0.42020  0.42020  0.00000  0.15959

   Total alpha = 17.00000, Total beta = 17.00000, Total charge = -0.00000
