  ==> Input File <==

--------------------------------------------------------------------------
set {
	reference rhf
	basis cc-pvtz
}

set_num_threads( 4 )
memory 2 gb

molecule MOL {
0 1

H	 2.206975	 0.529287	 -0.803181
O	 2.063695	 -0.083403	 -0.105237
C	 0.742924	 0.005675	 0.350750
H	 0.731380	 0.039219	 1.440080
C	 -0.064076	 -1.193495	 -0.124425
C	 -0.047832	 1.190568	 -0.194462
H	 0.194729	 -1.376165	 -1.161308
H	 0.163013	 -2.094508	 0.429933
C	 -1.533112	 -0.752002	 0.006102
H	 0.148003	 1.266545	 -1.259275
H	 0.226235	 2.136493	 0.259722
C	 -1.506634	 0.799189	 0.067162
H	 -2.124360	 -1.110499	 -0.826089
H	 -1.983103	 -1.158030	 0.903403
H	 -2.183808	 1.252169	 -0.644677
H	 -1.813926	 1.138698	 1.049457

	symmetry c1
}
set optking {
	frozen_dihedral = ("
		1 2 3 6
	")
}

ee = optimize('scf')
oeprop('DIPOLE', 'QUADRUPOLE', 'MULLIKEN_CHARGES')
f=open( 'psi4out.xyz', 'w' )
f.write( "16  " )
f.write( str(ee) + "\n" )
f.write( MOL.save_string_xyz() )
f.close()
--------------------------------------------------------------------------

    Molecular point group: c1
  Charge       = 0
  Multiplicity = 1
  Basis Set: CC-PVTZ
  Basis Set:
  @DF-RHF Final Energy:  -270.11391211361166
    Total Energy =                       -270.1139121136118320
    Molecular point group: c1
  Basis Set: CC-PVTZ
  Basis Set:
  Basis Set: CC-PVTZ
  Basis Set:
  @DF-RHF Final Energy:  -270.11463616428375
    Total Energy =                       -270.1146361642838656
  Basis Set: CC-PVTZ
  Basis Set:
  Basis Set: CC-PVTZ
  Basis Set:
  @DF-RHF Final Energy:  -270.11479508970382
    Total Energy =                       -270.1147950897041028
  Basis Set: CC-PVTZ
  Basis Set:
  Basis Set: CC-PVTZ
  Basis Set:
  @DF-RHF Final Energy:  -270.11480340272487
    Total Energy =                       -270.1148034027245330
  Basis Set: CC-PVTZ
  Basis Set:
  @DF-RHF Final Energy:  -270.11481243080760
    Total Energy =                       -270.1148124308073193
  @DF-RHF Final Energy:  -270.11482484618818
    Total Energy =                       -270.1148248461880144
  @DF-RHF Final Energy:  -270.11482807949631
    Total Energy =                       -270.1148280794967036
  @DF-RHF Final Energy:  -270.11483556458853
    Total Energy =                       -270.1148355645884749
  @DF-RHF Final Energy:  -270.11483734337855
    Total Energy =                       -270.1148373433785537
  @DF-RHF Final Energy:  -270.11483902775478
    Total Energy =                       -270.1148390277546696
  @DF-RHF Final Energy:  -270.11484064716319
    Total Energy =                       -270.1148406471629073
  @DF-RHF Final Energy:  -270.11484220629654
    Total Energy =                       -270.1148422062966006
  Basis Set: CC-PVTZ
  Basis Set:
  @DF-RHF Final Energy:  -270.11484370717858
    Total Energy =                       -270.1148437071785793
  Basis Set: CC-PVTZ
  Basis Set:
  Basis Set: CC-PVTZ
  Basis Set:
  @DF-RHF Final Energy:  -270.11484514664710
    Total Energy =                       -270.1148451466469282
  Basis Set: CC-PVTZ
  Basis Set:
  Basis Set: CC-PVTZ
  Basis Set:
  @DF-RHF Final Energy:  -270.11484652296258
    Total Energy =                       -270.1148465229626368
  Basis Set: CC-PVTZ
  Basis Set:
  Charge       = 0
  Multiplicity = 1
  Basis Set: CC-PVTZ
  Basis Set:

    Orbital Energies (a.u.)
    -----------------------

    Doubly Occupied:

       1A    -20.543511     2A    -11.267430     3A    -11.218726
       4A    -11.218074     5A    -11.215171     6A    -11.207197
       7A     -1.364114     8A     -1.117162     9A     -0.969985
      10A     -0.950029    11A     -0.802992    12A     -0.782220
      13A     -0.683168    14A     -0.666715    15A     -0.608786
      16A     -0.601011    17A     -0.577419    18A     -0.537533
      19A     -0.504491    20A     -0.485011    21A     -0.473544
      22A     -0.459421    23A     -0.451217    24A     -0.419112

  @DF-RHF Final Energy:  -270.11484685197058

   => Energetics <=

    Nuclear Repulsion Energy =            255.5302423198453425
    One-Electron Energy =                -873.0421053406474812
    Two-Electron Energy =                 347.3970161688312714
    DFT Exchange-Correlation Energy =       0.0000000000000000
    Empirical Dispersion Energy =           0.0000000000000000
    PCM Polarization Energy =               0.0000000000000000
    EFP Energy =                            0.0000000000000000
    Total Energy =                       -270.1148468519708672
    Molecular point group: c1
  Basis Set: CC-PVTZ
  Basis Set:

  -Total Gradient:
     Atom            X                  Y                   Z
    ------   -----------------  -----------------  -----------------
       1        0.000213521421     0.000607986615     0.000657381034
       2       -0.000325610919    -0.000876493209    -0.001004225328
       3        0.000238818904     0.000549238233     0.000764485837
       4        0.000002868130     0.000021703238    -0.000000429719
       5        0.000008129033    -0.000010810537     0.000021835526
       6       -0.000141314099    -0.000274514867    -0.000439418650
       7        0.000000942404    -0.000017624743     0.000002223153
       8        0.000000485786     0.000007991191     0.000014664263
       9        0.000003201438    -0.000000600293     0.000009821972
      10       -0.000000343757    -0.000018334907    -0.000002074891
      11       -0.000001097131     0.000008911269    -0.000016142291
      12       -0.000000326865     0.000002782698    -0.000009363993
      13        0.000018856228     0.000010992243    -0.000021590509
      14       -0.000024943510    -0.000012561455    -0.000013841335
      15       -0.000017477085     0.000014613926     0.000022318720
      16        0.000024290023    -0.000013279403     0.000014356210

  **** Optimization is complete! (in 16 steps) ****
    Final optimized geometry and variables:
    Molecular point group: c1

    Geometry (in Angstrom), charge = 0, multiplicity = 1:

    H            2.266866284290     0.583892654460    -0.706224598575
    O            2.090066526921    -0.063552940696    -0.050011659073
    C            0.744844030602    -0.012253280243     0.340296389629
    H            0.730810803504    -0.002331948044     1.426722518065
    C           -0.079320461896    -1.194215756341    -0.158074090952
    C           -0.038941142861     1.187924694540    -0.179238544678
    H            0.126976835296    -1.331015320099    -1.215044168103
    H            0.170007569251    -2.120267862720     0.343364622356
    C           -1.533580531344    -0.753769299442     0.063070298561
    H            0.163922277434     1.299351956088    -1.242561176810
    H            0.235175832577     2.116963484576     0.305442288888
    C           -1.508339720803     0.799703109562     0.042561211188
    H           -2.195004910419    -1.159728228836    -0.690689695065
    H           -1.897821711098    -1.108202118959     1.019530540151
    H           -2.149481277845     1.209392874562    -0.726509976721
    H           -1.863310498110     1.194454092930     0.986427629980

  Mulliken Charges: (a.u.)
   Center  Symbol    Alpha    Beta     Spin     Total
       1     H     0.39173  0.39173  0.00000  0.21654
       2     O     4.20905  4.20905  0.00000 -0.41810
       3     C     2.92640  2.92640  0.00000  0.14720
       4     H     0.45330  0.45330  0.00000  0.09341
       5     C     3.09177  3.09177  0.00000 -0.18354
       6     C     3.11429  3.11429  0.00000 -0.22858
       7     H     0.45951  0.45951  0.00000  0.08099
       8     H     0.44403  0.44403  0.00000  0.11195
       9     C     3.11474  3.11474  0.00000 -0.22948
      10     H     0.46016  0.46016  0.00000  0.07969
      11     H     0.44127  0.44127  0.00000  0.11746
      12     C     3.10999  3.10999  0.00000 -0.21998
      13     H     0.44409  0.44409  0.00000  0.11181
      14     H     0.44838  0.44838  0.00000  0.10325
      15     H     0.44405  0.44405  0.00000  0.11190
      16     H     0.44726  0.44726  0.00000  0.10548

   Total alpha = 24.00000, Total beta = 24.00000, Total charge = -0.00000
