                              Psi4 1.0.54 Driver

  ==> Input File <==

--------------------------------------------------------------------------
set {
	reference rhf
	basis cc-pvtz
}

set_num_threads( 4 )
memory 2 gb

molecule MOL {
0 1

O	 -2.374409	 1.338660	 -0.336961
C	 -2.104891	 0.204655	 -0.107126
C	 -0.881910	 -0.448129	 -0.720509
C	 -2.949910	 -0.638219	 0.818225
C	 0.347158	 -0.269973	 0.179766
H	 -0.702925	 0.025463	 -1.677476
H	 -1.064432	 -1.503838	 -0.890889
C	 1.600887	 -0.904629	 -0.418467
H	 0.498726	 0.789760	 0.341691
H	 0.154519	 -0.711415	 1.154608
C	 2.846057	 -0.807864	 0.464764
H	 1.807967	 -0.445477	 -1.381938
H	 1.399674	 -1.953501	 -0.618429
C	 3.368626	 0.610925	 0.676515
H	 3.631844	 -1.404498	 0.012135
H	 2.638120	 -1.264106	 1.429097
H	 3.579551	 1.093503	 -0.272284
H	 4.287370	 0.598870	 1.251436
H	 2.658975	 1.230287	 1.211367
H	 -3.440322	 -1.417144	 0.243099
H	 -3.694377	 -0.025850	 1.303346
H	 -2.331085	 -1.129829	 1.560495

	symmetry c1
}
set optking {
	frozen_dihedral = ("
		6 3 2 1
	")
}

ee,wfn = optimize('scf', return_wfn=True)
oeprop( wfn, 'DIPOLE', 'QUADRUPOLE', 'MULLIKEN_CHARGES')
f=open( 'psi4out.xyz', 'w' )
f.write( "22  " )
f.write( str(ee) + "\n" )
f.write( MOL.save_string_xyz() )
f.close()
--------------------------------------------------------------------------

    Molecular point group: c1
  Charge       = 0
  Multiplicity = 1
  Basis Set: CC-PVTZ
  Basis Set:
  @DF-RHF Final Energy:  -348.22346269106265
    Total Energy =                       -348.2234626910628776
    Molecular point group: c1
  Basis Set: CC-PVTZ
  Basis Set:
  Basis Set: CC-PVTZ
  Basis Set:
  @DF-RHF Final Energy:  -348.22334879109161
    Total Energy =                       -348.2233487910917802
  Basis Set: CC-PVTZ
  Basis Set:
  Basis Set: CC-PVTZ
  Basis Set:
  @DF-RHF Final Energy:  -348.22347166580954
    Total Energy =                       -348.2234716658095977
  Basis Set: CC-PVTZ
  Basis Set:
  Basis Set: CC-PVTZ
  Basis Set:
  @DF-RHF Final Energy:  -348.22345694368738
    Total Energy =                       -348.2234569436876086
  Basis Set: CC-PVTZ
  Basis Set:
  Basis Set: CC-PVTZ
  Basis Set:
  @DF-RHF Final Energy:  -348.22347590051783
    Total Energy =                       -348.2234759005175420
  Basis Set: CC-PVTZ
  Basis Set:
  Charge       = 0
  Multiplicity = 1
  Basis Set: CC-PVTZ
  Basis Set:

    Orbital Energies (a.u.)
    -----------------------

    Doubly Occupied:

       1A    -20.536808     2A    -11.319115     3A    -11.228600
       4A    -11.227580     5A    -11.226647     6A    -11.221131
       7A    -11.219519     8A    -11.209994     9A     -1.396772
      10A     -1.097999    11A     -1.046108    12A     -0.999858
      13A     -0.939338    14A     -0.859323    15A     -0.787831
      16A     -0.734299    17A     -0.664550    18A     -0.646671
      19A     -0.629056    20A     -0.622098    21A     -0.598649
      22A     -0.585063    23A     -0.563806    24A     -0.539498
      25A     -0.536899    26A     -0.522094    27A     -0.499075
      28A     -0.491432    29A     -0.472256    30A     -0.465486
      31A     -0.462906    32A     -0.398495

  @DF-RHF Final Energy:  -348.22347629763181

   => Energetics <=

    Nuclear Repulsion Energy =            373.5832877980444664
    One-Electron Energy =               -1212.1156134774082602
    Two-Electron Energy =                 490.3088493817318749
    DFT Exchange-Correlation Energy =       0.0000000000000000
    Empirical Dispersion Energy =           0.0000000000000000
    PCM Polarization Energy =               0.0000000000000000
    EFP Energy =                            0.0000000000000000
    Total Energy =                       -348.2234762976319189
    Molecular point group: c1
  Basis Set: CC-PVTZ
  Basis Set:

  -Total Gradient:
     Atom            X                  Y                   Z
    ------   -----------------  -----------------  -----------------
       1       -0.000167383101    -0.000127926844    -0.000277728952
       2        0.000288678182     0.000141094591     0.000536052803
       3       -0.000289447400    -0.000351187282    -0.000257882825
       4       -0.000050432345    -0.000025504609    -0.000092033672
       5       -0.000032677222     0.000044938888    -0.000021768069
       6        0.000202614280     0.000230156474     0.000140501317
       7        0.000008061674     0.000031731454    -0.000016027561
       8        0.000006091262     0.000007427526    -0.000039811766
       9       -0.000027491738    -0.000019588587    -0.000020737692
      10       -0.000022861572    -0.000001894115     0.000018468714
      11       -0.000058411904     0.000007583930     0.000039847803
      12       -0.000010040283     0.000018875750     0.000001190343
      13        0.000010292387    -0.000013021028    -0.000019783723
      14        0.000039575525    -0.000005937324     0.000007109028
      15        0.000003328343    -0.000011043890     0.000002995041
      16        0.000000187373     0.000013552727     0.000016053252
      17       -0.000007272645     0.000008444187    -0.000011268968
      18        0.000003015155    -0.000005312410    -0.000013202403
      19        0.000028693837    -0.000013748121     0.000005275678
      20        0.000043967597     0.000015153797     0.000043696939
      21        0.000019745605     0.000018582690    -0.000004570625
      22        0.000011766995     0.000037622199    -0.000036374663

  **** Optimization is complete! (in 6 steps) ****
    Final optimized geometry and variables:
    Molecular point group: c1

    Geometry (in Angstrom), charge = 0, multiplicity = 1:

    O           -2.379913229596     1.414831082846    -0.415622821652
    C           -2.094567748931     0.286483043781    -0.177267697550
    C           -0.865774432105    -0.356833875518    -0.787404733175
    C           -2.933761125190    -0.561541487629     0.749268020961
    C            0.367001090462    -0.159652616348     0.104335821328
    H           -0.695618363438     0.110436862729    -1.748582376054
    H           -1.039124816847    -1.416290585311    -0.945468905533
    C            1.623176406499    -0.784265398223    -0.499670043126
    H            0.509783809575     0.902892620331     0.258273268012
    H            0.187667486974    -0.596645106346     1.083309252398
    C            2.872537503869    -0.674812522718     0.376025692482
    H            1.820580640956    -0.325702137884    -1.465359221131
    H            1.429687405984    -1.835274509392    -0.695945314611
    C            3.388440320457     0.748098848928     0.576155840224
    H            3.659129597580    -1.269696158211    -0.077485853089
    H            2.672783016831    -1.126389358965     1.344281102081
    H            3.590314116864     1.226404202570    -0.376765699692
    H            4.311009308039     0.744482786689     1.144973705623
    H            2.678956516001     1.366579102384     1.112294096784
    H           -3.432782647432    -1.331742318199     0.169921106934
    H           -3.672395259622     0.050145680480     1.244036452301
    H           -2.314055339192    -1.063301130128     1.483252046443

  Mulliken Charges: (a.u.)
   Center  Symbol    Alpha    Beta     Spin     Total
       1     O     4.17731  4.17731  0.00000 -0.35461
       2     C     2.85866  2.85866  0.00000  0.28269
       3     C     3.09584  3.09584  0.00000 -0.19168
       4     C     3.15554  3.15554  0.00000 -0.31108
       5     C     3.10613  3.10613  0.00000 -0.21226
       6     H     0.43876  0.43876  0.00000  0.12249
       7     H     0.44875  0.44875  0.00000  0.10251
       8     C     3.09656  3.09656  0.00000 -0.19311
       9     H     0.43936  0.43936  0.00000  0.12128
      10     H     0.45166  0.45166  0.00000  0.09668
      11     C     3.09075  3.09075  0.00000 -0.18150
      12     H     0.45047  0.45047  0.00000  0.09906
      13     H     0.44874  0.44874  0.00000  0.10253
      14     C     3.15167  3.15167  0.00000 -0.30333
      15     H     0.44751  0.44751  0.00000  0.10497
      16     H     0.45469  0.45469  0.00000  0.09062
      17     H     0.45368  0.45368  0.00000  0.09263
      18     H     0.44609  0.44609  0.00000  0.10781
      19     H     0.45263  0.45263  0.00000  0.09473
      20     H     0.44844  0.44844  0.00000  0.10312
      21     H     0.43588  0.43588  0.00000  0.12823
      22     H     0.45089  0.45089  0.00000  0.09822

   Total alpha = 32.00000, Total beta = 32.00000, Total charge = -0.00000

*** Psi4 exiting successfully. Buy a developer a beer!
