                              Psi4 1.0.54 Driver

  ==> Input File <==

--------------------------------------------------------------------------
set {
	reference rhf
	basis cc-pvtz
}

set_num_threads( 4 )
memory 2 gb

molecule MOL {
0 1

O	 1.171303	 1.375342	 0.278390
C	 0.990639	 0.331399	 0.806219
C	 -0.298938	 -0.448363	 0.785606
O	 1.923303	 -0.300454	 1.499960
C	 -1.413045	 0.229353	 0.001137
H	 -0.073909	 -1.429654	 0.380748
H	 -0.589842	 -0.614491	 1.817710
C	 -2.702562	 -0.586401	 0.000228
H	 -1.083170	 0.395970	 -1.018158
H	 -1.600082	 1.211559	 0.420461
C	 -3.953810	 0.284959	 -0.000782
H	 -2.717793	 -1.238567	 -0.869075
H	 -2.719108	 -1.238472	 0.869576
H	 -3.983727	 0.924403	 -0.876454
H	 -4.852989	 -0.320147	 -0.001515
H	 -3.985140	 0.924399	 0.874841
C	 3.188690	 0.320606	 1.601941
H	 3.627774	 0.454279	 0.624412
H	 3.797876	 -0.340921	 2.196199
H	 3.103381	 1.282957	 2.084463

	symmetry c1
}
set optking {
	frozen_dihedral = ("
		9 5 8 12
	")
}

ee,wfn = optimize('scf', return_wfn=True)
oeprop( wfn, 'DIPOLE', 'QUADRUPOLE', 'MULLIKEN_CHARGES')
f=open( 'psi4out.xyz', 'w' )
f.write( "20  " )
f.write( str(ee) + "\n" )
f.write( MOL.save_string_xyz() )
f.close()
--------------------------------------------------------------------------

    Molecular point group: c1
  Charge       = 0
  Multiplicity = 1
  Basis Set: CC-PVTZ
  Basis Set:
  @DF-RHF Final Energy:  -384.07966110252607
    Total Energy =                       -384.0796611025261882
    Molecular point group: c1
  Basis Set: CC-PVTZ
  Basis Set:
  Basis Set: CC-PVTZ
  Basis Set:
  @DF-RHF Final Energy:  -384.07994545708971
    Total Energy =                       -384.0799454570898206
  Basis Set: CC-PVTZ
  Basis Set:
  Basis Set: CC-PVTZ
  Basis Set:
  @DF-RHF Final Energy:  -384.07972272434404
    Total Energy =                       -384.0797227243436964
  Basis Set: CC-PVTZ
  Basis Set:
  Basis Set: CC-PVTZ
  Basis Set:
  @DF-RHF Final Energy:  -384.08003713178329
    Total Energy =                       -384.0800371317833424
  Basis Set: CC-PVTZ
  Basis Set:
  Basis Set: CC-PVTZ
  Basis Set:
  @DF-RHF Final Energy:  -384.08003849613203
    Total Energy =                       -384.0800384961322607
  Basis Set: CC-PVTZ
  Basis Set:
  Charge       = 0
  Multiplicity = 1
  Basis Set: CC-PVTZ
  Basis Set:

    Orbital Energies (a.u.)
    -----------------------

    Doubly Occupied:

       1A    -20.596318     2A    -20.534208     3A    -11.364453
       4A    -11.278503     5A    -11.233942     6A    -11.218395
       7A    -11.217386     8A    -11.208890     9A     -1.472211
      10A     -1.365796    11A     -1.088699    12A     -1.024973
      13A     -0.969864    14A     -0.885792    15A     -0.804707
      16A     -0.769379    17A     -0.700174    18A     -0.686358
      19A     -0.675904    20A     -0.643825    21A     -0.598627
      22A     -0.597811    23A     -0.578494    24A     -0.543853
      25A     -0.532672    26A     -0.523642    27A     -0.505725
      28A     -0.476781    29A     -0.474446    30A     -0.469797
      31A     -0.459017    32A     -0.439555

  @DF-RHF Final Energy:  -384.08003863530348

   => Energetics <=

    Nuclear Repulsion Energy =            381.7324580161064205
    One-Electron Energy =               -1279.7445960608019959
    Two-Electron Energy =                 513.9320994093918671
    DFT Exchange-Correlation Energy =       0.0000000000000000
    Empirical Dispersion Energy =           0.0000000000000000
    PCM Polarization Energy =               0.0000000000000000
    EFP Energy =                            0.0000000000000000
    Total Energy =                       -384.0800386353037084
    Molecular point group: c1
  Basis Set: CC-PVTZ
  Basis Set:

  -Total Gradient:
     Atom            X                  Y                   Z
    ------   -----------------  -----------------  -----------------
       1        0.000000969594    -0.000002868742     0.000009085906
       2       -0.000001682031     0.000012593104    -0.000003169056
       3        0.000001418641    -0.000010164997    -0.000017029126
       4        0.000003119916    -0.000007866497    -0.000002962914
       5       -0.003572294821     0.005433738071    -0.000755090860
       6       -0.000004080667    -0.000000674716     0.000009880760
       7        0.000002982605     0.000003112308     0.000009154688
       8        0.003140444337    -0.004863986904     0.002976503426
       9        0.002485337912    -0.003773911047     0.000162208661
      10        0.000000164457    -0.000014677051     0.000001817984
      11       -0.000001233973     0.000000405642     0.000005443787
      12       -0.002065703751     0.003198391311    -0.002384139558
      13        0.000009749869     0.000018890100    -0.000006839759
      14       -0.000001529739     0.000002208334     0.000007299452
      15        0.000010490605     0.000005430236    -0.000000445216
      16       -0.000004336881    -0.000002702531    -0.000010845230
      17       -0.000002602621     0.000001728651    -0.000001225158
      18       -0.000000978782     0.000000513208    -0.000000739672
      19        0.000001281269    -0.000001022903     0.000001286204
      20       -0.000001515931     0.000000864423    -0.000000194318

  **** Optimization is complete! (in 6 steps) ****
    Final optimized geometry and variables:
    Molecular point group: c1

    Geometry (in Angstrom), charge = 0, multiplicity = 1:

    O            1.274627258184     1.218960390703    -0.353146718783
    C            1.098527439707     0.174685014452     0.175757572138
    C           -0.196422979680    -0.596500364473     0.180769909460
    O            2.041613341648    -0.464500551362     0.848486458559
    C           -1.326533075207     0.093604889324    -0.574161018887
    H            0.011839587403    -1.576642294518    -0.236423467522
    H           -0.463744104390    -0.768366608108     1.218134646636
    C           -2.605624495012    -0.754455187205    -0.602451584685
    H           -0.984268996228     0.275966206936    -1.585223309109
    H           -1.518165858257     1.059165855874    -0.123088117010
    C           -3.872742379917     0.095156092564    -0.670173013855
    H           -2.589980514899    -1.397147754605    -1.476941216302
    H           -2.654217056701    -1.397996458433     0.270021262342
    H           -3.857375034956     0.748190716270    -1.536440298677
    H           -4.758865399178    -0.525416365717    -0.739189243548
    H           -3.971895534768     0.720384006893     0.210663153391
    C            3.312469839847     0.148758325007     0.925813703751
    H            3.732193325821     0.282198001552    -0.060226774451
    H            3.929834657815    -0.517758373044     1.505904654645
    H            3.242892508826     1.110465126331     1.412150734387

  Mulliken Charges: (a.u.)
   Center  Symbol    Alpha    Beta     Spin     Total
       1     O     4.19681  4.19681  0.00000 -0.39361
       2     C     2.80735  2.80735  0.00000  0.38530
       3     C     3.10073  3.10073  0.00000 -0.20145
       4     O     4.14678  4.14678  0.00000 -0.29355
       5     C     3.08354  3.08354  0.00000 -0.16708
       6     H     0.43929  0.43929  0.00000  0.12142
       7     H     0.44042  0.44042  0.00000  0.11917
       8     C     3.08760  3.08760  0.00000 -0.17519
       9     H     0.44537  0.44537  0.00000  0.10926
      10     H     0.44688  0.44688  0.00000  0.10624
      11     C     3.14798  3.14798  0.00000 -0.29596
      12     H     0.45238  0.45238  0.00000  0.09525
      13     H     0.45579  0.45579  0.00000  0.08842
      14     H     0.45268  0.45268  0.00000  0.09464
      15     H     0.44935  0.44935  0.00000  0.10131
      16     H     0.45536  0.45536  0.00000  0.08928
      17     C     3.03766  3.03766  0.00000 -0.07533
      18     H     0.45435  0.45435  0.00000  0.09130
      19     H     0.44532  0.44532  0.00000  0.10935
      20     H     0.45437  0.45437  0.00000  0.09125

   Total alpha = 32.00000, Total beta = 32.00000, Total charge = -0.00000

*** Psi4 exiting successfully. Buy a developer a beer!
