  ==> Input File <==

--------------------------------------------------------------------------
set {
	reference rhf
	basis 6-31G*
}

set_num_threads( 1 )
memory 2 gb

molecule MOL {
0 1

O	 2.561745	 1.830248	 -1.318305
C	 2.380715	 0.892753	 -2.033210
C	 1.089090	 0.095163	 -2.010990
C	 3.437904	 0.434986	 -3.017057
C	 0.063329	 0.600886	 -1.000894
H	 0.674478	 0.104349	 -3.018165
H	 1.343317	 -0.945385	 -1.813428
C	 -1.223305	 -0.226331	 -1.007669
H	 -0.164745	 1.640150	 -1.215468
H	 0.504703	 0.589041	 -0.009332
C	 -2.259874	 0.272531	 0.000494
H	 -1.658773	 -0.213019	 -2.005785
H	 -0.987143	 -1.267672	 -0.793416
C	 -3.549786	 -0.549746	 -0.000374
H	 -2.497236	 1.313217	 -0.213168
H	 -1.825939	 0.258836	 0.998747
C	 -4.809590	 0.315458	 -0.000369
H	 -3.560515	 -1.202009	 -0.871156
H	 -3.561123	 -1.202955	 0.869711
H	 -4.844746	 0.956611	 -0.876632
H	 -5.706986	 -0.295590	 -0.001609
H	 -4.845960	 0.954827	 0.877144
H	 3.050033	 0.464350	 -4.031114
H	 4.305973	 1.075256	 -2.943942
H	 3.726591	 -0.591814	 -2.812176

	symmetry c1
}
set optking {
	frozen_dihedral = ("
		9 5 8 12,
		15 11 8 12,
		1 2 3 6,
		9 5 3 6
	")
}

ee = energy('scf')
oeprop('DIPOLE', 'QUADRUPOLE', 'MULLIKEN_CHARGES')
f=open( 'psi4out.xyz', 'w' )
f.write( "25  " )
f.write( str(ee) + "\n" )
f.write( MOL.save_string_xyz() )
f.close()
--------------------------------------------------------------------------

    Molecular point group: c1

    Geometry (in Angstrom), charge = 0, multiplicity = 1:

       Center              X                  Y                   Z               Mass
    ------------   -----------------  -----------------  -----------------  -----------------
           O          2.824443476998     1.416932164695    -0.163712325883    15.994914619560
           C          2.643413476998     0.479437164695    -0.878617325883    12.000000000000
           C          1.351788476998    -0.318152835305    -0.856397325883    12.000000000000
           C          3.700602476998     0.021670164695    -1.862464325883    12.000000000000
           C          0.326027476998     0.187570164695     0.153698674117    12.000000000000
           H          0.937176476998    -0.308966835305    -1.863572325883     1.007825032070
           H          1.606015476998    -1.358700835305    -0.658835325883     1.007825032070
           C         -0.960606523002    -0.639646835305     0.146923674117    12.000000000000
           H          0.097953476998     1.226834164695    -0.060875325883     1.007825032070
           H          0.767401476998     0.175725164695     1.145260674117     1.007825032070
           C         -1.997175523002    -0.140784835305     1.155086674117    12.000000000000
           H         -1.396074523002    -0.626334835305    -0.851192325883     1.007825032070
           H         -0.724444523002    -1.680987835305     0.361176674117     1.007825032070
           C         -3.287087523002    -0.963061835305     1.154218674117    12.000000000000
           H         -2.234537523002     0.899901164695     0.941424674117     1.007825032070
           H         -1.563240523002    -0.154479835305     2.153339674117     1.007825032070
           C         -4.546891523002    -0.097857835305     1.154223674117    12.000000000000
           H         -3.297816523002    -1.615324835305     0.283436674117     1.007825032070
           H         -3.298424523002    -1.616270835305     2.024303674117     1.007825032070
           H         -4.582047523002     0.543295164695     0.277960674117     1.007825032070
           H         -5.444287523002    -0.708905835305     1.152983674117     1.007825032070
           H         -4.583261523002     0.541511164695     2.031736674117     1.007825032070
           H          3.312731476998     0.051034164695    -2.876521325883     1.007825032070
           H          4.568671476998     0.661940164695    -1.789349325883     1.007825032070
           H          3.989289476998    -1.005129835305    -1.657583325883     1.007825032070

  Charge       = 0
  Multiplicity = 1
  Basis Set: 6-31G*
  Basis Set:

    Orbital Energies (a.u.)
    -----------------------

    Doubly Occupied:

       1A    -20.550406     2A    -11.326247     3A    -11.231813
       4A    -11.228315     5A    -11.217293     6A    -11.216266
       7A    -11.213891     8A    -11.212067     9A    -11.208619
      10A     -1.395707    11A     -1.093652    12A     -1.056245
      13A     -1.014269    14A     -0.968765    15A     -0.891109
      16A     -0.815419    17A     -0.790013    18A     -0.729814
      19A     -0.659480    20A     -0.652453    21A     -0.628194
      22A     -0.623590    23A     -0.599764    24A     -0.586500
      25A     -0.569127    26A     -0.558312    27A     -0.535240
      28A     -0.528889    29A     -0.514779    30A     -0.490328
      31A     -0.485567    32A     -0.476431    33A     -0.463916
      34A     -0.456121    35A     -0.449305    36A     -0.399264

  @DF-RHF Final Energy:  -387.13146984337857

   => Energetics <=

    Nuclear Repulsion Energy =            439.2642922323158245
    One-Electron Energy =               -1395.1171669529092014
    Two-Electron Energy =                 568.7214048772134447
    DFT Exchange-Correlation Energy =       0.0000000000000000
    Empirical Dispersion Energy =           0.0000000000000000
    PCM Polarization Energy =               0.0000000000000000
    EFP Energy =                            0.0000000000000000
    Total Energy =                       -387.1314698433799322

  Mulliken Charges: (a.u.)
   Center  Symbol    Alpha    Beta     Spin     Total
       1     O     4.26115  4.26115  0.00000 -0.52229
       2     C     2.73569  2.73569  0.00000  0.52862
       3     C     3.21084  3.21084  0.00000 -0.42168
       4     C     3.28663  3.28663  0.00000 -0.57326
       5     C     3.14856  3.14856  0.00000 -0.29711
       6     H     0.41009  0.41009  0.00000  0.17982
       7     H     0.41005  0.41005  0.00000  0.17990
       8     C     3.15622  3.15622  0.00000 -0.31244
       9     H     0.41208  0.41208  0.00000  0.17585
      10     H     0.41219  0.41219  0.00000  0.17563
      11     C     3.15375  3.15375  0.00000 -0.30750
      12     H     0.42459  0.42459  0.00000  0.15081
      13     H     0.42433  0.42433  0.00000  0.15133
      14     C     3.15385  3.15385  0.00000 -0.30770
      15     H     0.42003  0.42003  0.00000  0.15994
      16     H     0.42004  0.42004  0.00000  0.15993
      17     C     3.24040  3.24040  0.00000 -0.48079
      18     H     0.42154  0.42154  0.00000  0.15692
      19     H     0.42069  0.42069  0.00000  0.15863
      20     H     0.42190  0.42190  0.00000  0.15619
      21     H     0.42065  0.42065  0.00000  0.15869
      22     H     0.42082  0.42082  0.00000  0.15837
      23     H     0.40875  0.40875  0.00000  0.18249
      24     H     0.39647  0.39647  0.00000  0.20706
      25     H     0.40871  0.40871  0.00000  0.18259

   Total alpha = 36.00000, Total beta = 36.00000, Total charge =  0.00000
