  ==> Input File <==

--------------------------------------------------------------------------
set {
	reference rhf
	basis 6-31G*
}

set_num_threads( 1 )
memory 2 gb

molecule MOL {
0 1

H	 -3.164292	 -2.805508	 0.555943
O	 -2.875403	 -2.026383	 0.102719
C	 -1.608877	 -1.646706	 0.576373
C	 -1.177863	 -0.397191	 -0.171080
H	 -1.643993	 -1.447581	 1.646618
H	 -0.885080	 -2.444830	 0.416828
C	 0.198102	 0.111031	 0.262842
H	 -1.928460	 0.372265	 -0.012114
H	 -1.177801	 -0.618101	 -1.234882
C	 1.331804	 -0.827780	 -0.158768
H	 0.361943	 1.100838	 -0.156218
H	 0.217265	 0.229072	 1.345532
C	 2.723619	 -0.410569	 0.329459
H	 1.342964	 -0.912588	 -1.244120
H	 1.116806	 -1.824343	 0.220779
C	 3.243875	 0.895854	 -0.272975
H	 3.424222	 -1.207124	 0.091250
H	 2.714788	 -0.329854	 1.414619
H	 3.251977	 0.848779	 -1.358681
H	 2.637085	 1.747371	 0.016682
H	 4.259473	 1.094070	 0.055697

	symmetry c1
}
set optking {
	frozen_dihedral = ("
		2 3 4 8,
		4 7 10 14,
		16 13 10 14,
		1 2 3 5
	")
}

ee = energy('scf')
oeprop('DIPOLE', 'QUADRUPOLE', 'MULLIKEN_CHARGES')
f=open( 'psi4out.xyz', 'w' )
f.write( "21  " )
f.write( str(ee) + "\n" )
f.write( MOL.save_string_xyz() )
f.close()
--------------------------------------------------------------------------

    Molecular point group: c1

    Geometry (in Angstrom), charge = 0, multiplicity = 1:

       Center              X                  Y                   Z               Mass
    ------------   -----------------  -----------------  -----------------  -----------------
           H         -3.371387397940    -2.159481551210     0.455997493111     1.007825032070
           O         -3.082498397940    -1.380356551210     0.002773493111    15.994914619560
           C         -1.815972397940    -1.000679551210     0.476427493111    12.000000000000
           C         -1.384958397940     0.248835448790    -0.271025506889    12.000000000000
           H         -1.851088397940    -0.801554551210     1.546672493111     1.007825032070
           H         -1.092175397940    -1.798803551210     0.316882493111     1.007825032070
           C         -0.008993397940     0.757057448790     0.162896493111    12.000000000000
           H         -2.135555397940     1.018291448790    -0.112059506889     1.007825032070
           H         -1.384896397940     0.027925448790    -1.334827506889     1.007825032070
           C          1.124708602060    -0.181753551210    -0.258713506889    12.000000000000
           H          0.154847602060     1.746864448790    -0.256163506889     1.007825032070
           H          0.010169602060     0.875098448790     1.245586493111     1.007825032070
           C          2.516523602060     0.235457448790     0.229513493111    12.000000000000
           H          1.135868602060    -0.266561551210    -1.344065506889     1.007825032070
           H          0.909710602060    -1.178316551210     0.120833493111     1.007825032070
           C          3.036779602060     1.541880448790    -0.372920506889    12.000000000000
           H          3.217126602060    -0.561097551210    -0.008695506889     1.007825032070
           H          2.507692602060     0.316172448790     1.314673493111     1.007825032070
           H          3.044881602060     1.494805448790    -1.458626506889     1.007825032070
           H          2.429989602060     2.393397448790    -0.083263506889     1.007825032070
           H          4.052377602060     1.740096448790    -0.044248506889     1.007825032070

  Charge       = 0
  Multiplicity = 1
  Basis Set: 6-31G*
  Basis Set:

    Orbital Energies (a.u.)
    -----------------------

    Doubly Occupied:

       1A    -20.551582     2A    -11.266253     3A    -11.216076
       4A    -11.215571     5A    -11.214175     6A    -11.210568
       7A    -11.208529     8A     -1.358361     9A     -1.088251
      10A     -1.032702    11A     -0.950779    12A     -0.882711
      13A     -0.811166    14A     -0.773049    15A     -0.695430
      16A     -0.648317    17A     -0.633797    18A     -0.609279
      19A     -0.583250    20A     -0.569020    21A     -0.538087
      22A     -0.522502    23A     -0.514005    24A     -0.491066
      25A     -0.479061    26A     -0.460848    27A     -0.452355
      28A     -0.446396    29A     -0.428685

  @DF-RHF Final Energy:  -310.21018103592246

   => Energetics <=

    Nuclear Repulsion Energy =            316.6798050080859639
    One-Electron Energy =               -1048.0763390508104749
    Two-Electron Energy =                 421.1863530068009140
    DFT Exchange-Correlation Energy =       0.0000000000000000
    Empirical Dispersion Energy =           0.0000000000000000
    PCM Polarization Energy =               0.0000000000000000
    EFP Energy =                            0.0000000000000000
    Total Energy =                       -310.2101810359235969

  Mulliken Charges: (a.u.)
   Center  Symbol    Alpha    Beta     Spin     Total
       1     H     0.28130  0.28130  0.00000  0.43739
       2     O     4.37214  4.37214  0.00000 -0.74427
       3     C     2.99124  2.99124  0.00000  0.01752
       4     C     3.16047  3.16047  0.00000 -0.32095
       5     H     0.43307  0.43307  0.00000  0.13386
       6     H     0.43107  0.43107  0.00000  0.13785
       7     C     3.16386  3.16386  0.00000 -0.32771
       8     H     0.41265  0.41265  0.00000  0.17470
       9     H     0.41482  0.41482  0.00000  0.17036
      10     C     3.15555  3.15555  0.00000 -0.31110
      11     H     0.41610  0.41610  0.00000  0.16779
      12     H     0.42437  0.42437  0.00000  0.15126
      13     C     3.15140  3.15140  0.00000 -0.30280
      14     H     0.42230  0.42230  0.00000  0.15540
      15     H     0.42244  0.42244  0.00000  0.15512
      16     C     3.24143  3.24143  0.00000 -0.48286
      17     H     0.42110  0.42110  0.00000  0.15781
      18     H     0.42382  0.42382  0.00000  0.15236
      19     H     0.42183  0.42183  0.00000  0.15634
      20     H     0.41991  0.41991  0.00000  0.16018
      21     H     0.41913  0.41913  0.00000  0.16175

   Total alpha = 29.00000, Total beta = 29.00000, Total charge = -0.00000
