  ==> Input File <==

--------------------------------------------------------------------------
set {
	reference rhf
	basis 6-31G*
}

set_num_threads( 4 )
memory 2 gb

molecule MOL {
0 1

H	 -1.748661	 -2.220942	 -0.005015
C	 -1.343207	 -1.225221	 -0.013879
N	 -0.055091	 -1.100174	 -0.261126
C	 -2.150779	 -0.125890	 0.222726
C	 0.449969	 0.122615	 -0.277109
H	 -3.200618	 -0.238980	 0.422496
N	 -1.660212	 1.097703	 0.209594
C	 -0.371804	 1.219904	 -0.038265
C	 1.928147	 0.267347	 -0.541394
H	 0.029131	 2.217482	 -0.051283
C	 2.341950	 -0.326424	 -1.892029
H	 2.175991	 1.323280	 -0.520363
H	 2.487222	 -0.209384	 0.257565
H	 3.403993	 -0.181442	 -2.062454
H	 1.799434	 0.150793	 -2.699753
H	 2.137852	 -1.391890	 -1.929931

	symmetry c1
}
set optking {
	frozen_dihedral = ("
		12 9 5 3
	")
}

ee = optimize('scf')
oeprop('DIPOLE', 'QUADRUPOLE', 'MULLIKEN_CHARGES')
f=open( 'psi4out.xyz', 'w' )
f.write( "16  " )
f.write( str(ee) + "\n" )
f.write( MOL.save_string_xyz() )
f.close()
--------------------------------------------------------------------------

    Molecular point group: c1
  Charge       = 0
  Multiplicity = 1
  Basis Set: 6-31G*
  Basis Set:
  @DF-RHF Final Energy:  -340.75814031108501
    Total Energy =                       -340.7581403110848441
    Molecular point group: c1
  Basis Set: 6-31G*
  Basis Set:
  Basis Set: 6-31G*
  Basis Set:
  @DF-RHF Final Energy:  -340.75818596363678
    Total Energy =                       -340.7581859636366062
  Basis Set: 6-31G*
  Basis Set:
  Basis Set: 6-31G*
  Basis Set:
  @DF-RHF Final Energy:  -340.75827007843020
    Total Energy =                       -340.7582700784304279
  Basis Set: 6-31G*
  Basis Set:
  Basis Set: 6-31G*
  Basis Set:
  @DF-RHF Final Energy:  -340.75828211438619
    Total Energy =                       -340.7582821143863043
  Basis Set: 6-31G*
  Basis Set:
  Basis Set: 6-31G*
  Basis Set:
  @DF-RHF Final Energy:  -340.75828323784538
    Total Energy =                       -340.7582832378452622
  Basis Set: 6-31G*
  Basis Set:
  Charge       = 0
  Multiplicity = 1
  Basis Set: 6-31G*
  Basis Set:

    Orbital Energies (a.u.)
    -----------------------

    Doubly Occupied:

       1A    -15.586917     2A    -15.582432     3A    -11.281399
       4A    -11.276810     5A    -11.272371     6A    -11.271979
       7A    -11.233279     8A    -11.215799     9A     -1.313620
      10A     -1.222218    11A     -1.084103    12A     -1.013539
      13A     -0.906407    14A     -0.891792    15A     -0.826893
      16A     -0.716946    17A     -0.709001    18A     -0.659070
      19A     -0.616583    20A     -0.602371    21A     -0.576606
      22A     -0.560345    23A     -0.521518    24A     -0.504812
      25A     -0.499782    26A     -0.486744    27A     -0.428810
      28A     -0.394899    29A     -0.345385

  @DF-RHF Final Energy:  -340.75828480844694

   => Energetics <=

    Nuclear Repulsion Energy =            349.8122390071511632
    One-Electron Energy =               -1153.9361857129285909
    Two-Electron Energy =                 463.3656618973308241
    DFT Exchange-Correlation Energy =       0.0000000000000000
    Empirical Dispersion Energy =           0.0000000000000000
    PCM Polarization Energy =               0.0000000000000000
    EFP Energy =                            0.0000000000000000
    Total Energy =                       -340.7582848084465468
    Molecular point group: c1
  Basis Set: 6-31G*
  Basis Set:

  -Total Gradient:
     Atom            X                  Y                   Z
    ------   -----------------  -----------------  -----------------
       1       -0.000008127329     0.000001711516    -0.000018316719
       2        0.000005810522    -0.000013070589     0.000032841998
       3       -0.000130715913     0.000040844168    -0.000643496770
       4        0.000000839729     0.000001977763     0.000028233335
       5        0.000148724967    -0.000019667649     0.000740795042
       6       -0.000003072311    -0.000001644713    -0.000019864331
       7       -0.000004351267    -0.000007359923     0.000012537993
       8        0.000005577150     0.000004021015    -0.000052165415
       9        0.000125063643    -0.000044705894     0.000623292174
      10        0.000003056076    -0.000001638895     0.000007087567
      11        0.000000070390     0.000004291354    -0.000007218876
      12       -0.000149890601     0.000047067835    -0.000705359826
      13        0.000005241809     0.000003035667    -0.000006163690
      14        0.000001771431    -0.000000762042     0.000001184495
      15        0.000000704866     0.000000035017     0.000012342077
      16       -0.000000703168    -0.000014134628    -0.000005729054

  **** Optimization is complete! (in 6 steps) ****
    Final optimized geometry and variables:
    Molecular point group: c1

    Geometry (in Angstrom), charge = 0, multiplicity = 1:

    H           -1.681727811546    -2.211577563273     0.347434154030
    C           -1.279190082600    -1.214593104551     0.337129396161
    N            0.008734822835    -1.086367271531     0.091637420270
    C           -2.089852652440    -0.117454394342     0.573224941342
    C            0.512091726966     0.137094973433     0.078827579346
    H           -3.139632055693    -0.233066504848     0.772100281035
    N           -1.601937086927     1.106985143567     0.560850463988
    C           -0.313322507016     1.232179489566     0.315409012227
    C            1.987556938548     0.290820855763    -0.201568946421
    H            0.085045024608     2.230777064937     0.304505178465
    C            2.404709512868    -0.314024929968    -1.545189727304
    H            2.247725747374     1.344293065325    -0.178386842701
    H            2.541559942229    -0.191315967317     0.598547611968
    H            3.473707317789    -0.202211008010    -1.694971588773
    H            1.896797501237     0.178498349229    -2.368508956832
    H            2.162974094077    -1.368837519604    -1.581799461935

  Mulliken Charges: (a.u.)
   Center  Symbol    Alpha    Beta     Spin     Total
       1     H     0.39382  0.39382  0.00000  0.21236
       2     C     2.98982  2.98982  0.00000  0.02036
       3     N     3.75395  3.75395  0.00000 -0.50791
       4     C     2.99791  2.99791  0.00000  0.00418
       5     C     2.87334  2.87334  0.00000  0.25332
       6     H     0.39421  0.39421  0.00000  0.21157
       7     N     3.72865  3.72865  0.00000 -0.45731
       8     C     3.00139  3.00139  0.00000 -0.00277
       9     C     3.16830  3.16830  0.00000 -0.33661
      10     H     0.39503  0.39503  0.00000  0.20994
      11     C     3.24231  3.24231  0.00000 -0.48462
      12     H     0.41468  0.41468  0.00000  0.17065
      13     H     0.40542  0.40542  0.00000  0.18916
      14     H     0.41776  0.41776  0.00000  0.16448
      15     H     0.41869  0.41869  0.00000  0.16262
      16     H     0.40471  0.40471  0.00000  0.19057

   Total alpha = 29.00000, Total beta = 29.00000, Total charge =  0.00000
