  ==> Input File <==

--------------------------------------------------------------------------
set {
	reference rhf
	basis 6-31G*
}

set_num_threads( 1 )
memory 2 gb

molecule MOL {
0 1

H	 3.317314	 -0.169272	 -1.421981
O	 2.393029	 -0.360821	 -1.296438
C	 2.077727	 -0.067559	 -0.035091
C	 0.624473	 -0.343591	 0.253101
O	 2.877770	 0.357437	 0.733237
C	 -0.265902	 0.883932	 0.072916
H	 0.324016	 -1.163849	 -0.390541
H	 0.565024	 -0.726111	 1.268924
C	 -1.728698	 0.646073	 0.462102
H	 -0.209144	 1.219470	 -0.958188
H	 0.135059	 1.692851	 0.673903
C	 -2.482460	 -0.343073	 -0.431425
H	 -2.245265	 1.602650	 0.432430
H	 -1.779332	 0.308348	 1.496285
C	 -3.960546	 -0.461025	 -0.060175
H	 -2.395034	 -0.026811	 -1.468912
H	 -2.024850	 -1.327147	 -0.371646
H	 -4.472726	 -1.168004	 -0.705284
H	 -4.465146	 0.496508	 -0.151489
H	 -4.081218	 -0.800940	 0.964585

	symmetry c1
}
set optking {
	frozen_dihedral = ("
		16 12 9 6,
		7 4 6 10,
		12 9 6 10,
		1 2 3 5
	")
}

ee = energy('scf')
oeprop('DIPOLE', 'QUADRUPOLE', 'MULLIKEN_CHARGES')
f=open( 'psi4out.xyz', 'w' )
f.write( "20  " )
f.write( str(ee) + "\n" )
f.write( MOL.save_string_xyz() )
f.close()
--------------------------------------------------------------------------

    Molecular point group: c1

    Geometry (in Angstrom), charge = 0, multiplicity = 1:

       Center              X                  Y                   Z               Mass
    ------------   -----------------  -----------------  -----------------  -----------------
           H          3.334420721317    -0.200802367490    -1.365917375261     1.007825032070
           O          2.410135721317    -0.392351367490    -1.240374375261    15.994914619560
           C          2.094833721317    -0.099089367490     0.020972624739    12.000000000000
           C          0.641579721317    -0.375121367490     0.309164624739    12.000000000000
           O          2.894876721317     0.325906632510     0.789300624739    15.994914619560
           C         -0.248795278683     0.852401632510     0.128979624739    12.000000000000
           H          0.341122721317    -1.195379367490    -0.334477375261     1.007825032070
           H          0.582130721317    -0.757641367490     1.324987624739     1.007825032070
           C         -1.711591278683     0.614542632510     0.518165624739    12.000000000000
           H         -0.192037278683     1.187939632510    -0.902124375261     1.007825032070
           H          0.152165721317     1.661320632510     0.729966624739     1.007825032070
           C         -2.465353278683    -0.374603367490    -0.375361375261    12.000000000000
           H         -2.228158278683     1.571119632510     0.488493624739     1.007825032070
           H         -1.762225278683     0.276817632510     1.552348624739     1.007825032070
           C         -3.943439278683    -0.492555367490    -0.004111375261    12.000000000000
           H         -2.377927278683    -0.058341367490    -1.412848375261     1.007825032070
           H         -2.007743278683    -1.358677367490    -0.315582375261     1.007825032070
           H         -4.455619278683    -1.199534367490    -0.649220375261     1.007825032070
           H         -4.448039278683     0.464977632510    -0.095425375261     1.007825032070
           H         -4.064111278683    -0.832470367490     1.020648624739     1.007825032070

  Charge       = 0
  Multiplicity = 1
  Basis Set: 6-31G*
  Basis Set:

    Orbital Energies (a.u.)
    -----------------------

    Doubly Occupied:

       1A    -20.612684     2A    -20.549269     3A    -11.379719
       4A    -11.237840     5A    -11.233233     6A    -11.224888
       7A    -11.222456     8A    -11.214094     9A     -1.473623
      10A     -1.364013    11A     -1.100166    12A     -1.042609
      13A     -0.961887    14A     -0.867946    15A     -0.819514
      16A     -0.789491    17A     -0.701279    18A     -0.685704
      19A     -0.646846    20A     -0.633894    21A     -0.616184
      22A     -0.594400    23A     -0.576006    24A     -0.554388
      25A     -0.548254    26A     -0.514744    27A     -0.503477
      28A     -0.479471    29A     -0.476152    30A     -0.466984
      31A     -0.462286    32A     -0.436224

  @DF-RHF Final Energy:  -383.94637043158650

   => Energetics <=

    Nuclear Repulsion Energy =            376.1793335387990282
    One-Electron Energy =               -1268.2719363555509062
    Two-Electron Energy =                 508.1462323851661722
    DFT Exchange-Correlation Energy =       0.0000000000000000
    Empirical Dispersion Energy =           0.0000000000000000
    PCM Polarization Energy =               0.0000000000000000
    EFP Energy =                            0.0000000000000000
    Total Energy =                       -383.9463704315857058

  Mulliken Charges: (a.u.)
   Center  Symbol    Alpha    Beta     Spin     Total
       1     H     0.26842  0.26842  0.00000  0.46316
       2     O     4.34697  4.34697  0.00000 -0.69395
       3     C     2.63282  2.63282  0.00000  0.73435
       4     C     3.20132  3.20132  0.00000 -0.40264
       5     O     4.27833  4.27833  0.00000 -0.55665
       6     C     3.16545  3.16545  0.00000 -0.33089
       7     H     0.40008  0.40008  0.00000  0.19985
       8     H     0.40020  0.40020  0.00000  0.19959
       9     C     3.15459  3.15459  0.00000 -0.30918
      10     H     0.41206  0.41206  0.00000  0.17588
      11     H     0.40597  0.40597  0.00000  0.18806
      12     C     3.15475  3.15475  0.00000 -0.30949
      13     H     0.41756  0.41756  0.00000  0.16489
      14     H     0.42035  0.42035  0.00000  0.15930
      15     C     3.23966  3.23966  0.00000 -0.47933
      16     H     0.42105  0.42105  0.00000  0.15790
      17     H     0.42119  0.42119  0.00000  0.15761
      18     H     0.41771  0.41771  0.00000  0.16459
      19     H     0.42073  0.42073  0.00000  0.15855
      20     H     0.42080  0.42080  0.00000  0.15840

   Total alpha = 32.00000, Total beta = 32.00000, Total charge =  0.00000
