                              Psi4 1.0.54 Driver

  ==> Input File <==

--------------------------------------------------------------------------
set {
	reference rhf
	basis cc-pvtz
}

set_num_threads( 4 )
memory 2 gb

molecule MOL {
0 1

O	 -2.081319	 -0.951530	 -0.502732
N	 -1.613558	 0.006676	 0.014756
C	 -0.329345	 -0.171618	 0.743966
O	 -2.068523	 1.100482	 -0.024385
C	 0.738434	 0.720620	 0.123605
H	 -0.079056	 -1.215739	 0.656870
H	 -0.528287	 0.094263	 1.768642
C	 2.075908	 0.570479	 0.843873
H	 0.849653	 0.460938	 -0.922700
H	 0.406181	 1.751246	 0.170039
C	 3.161372	 1.459075	 0.246676
H	 2.394189	 -0.466994	 0.801619
H	 1.948888	 0.811973	 1.895041
H	 3.334168	 1.217567	 -0.796163
H	 2.884479	 2.505896	 0.303359
H	 4.098199	 1.334485	 0.775819

	symmetry c1
}
set optking {
	frozen_dihedral = ("
		5 3 2 1
	")
}

ee,wfn = optimize('scf', return_wfn=True)
oeprop( wfn, 'DIPOLE', 'QUADRUPOLE', 'MULLIKEN_CHARGES')
f=open( 'psi4out.xyz', 'w' )
f.write( "16  " )
f.write( str(ee) + "\n" )
f.write( MOL.save_string_xyz() )
f.close()
--------------------------------------------------------------------------

    Molecular point group: c1
  Charge       = 0
  Multiplicity = 1
  Basis Set: CC-PVTZ
  Basis Set:
  @DF-RHF Final Energy:  -360.90894690607604
    Total Energy =                       -360.9089469060760393
    Molecular point group: c1
  Basis Set: CC-PVTZ
  Basis Set:
  Basis Set: CC-PVTZ
  Basis Set:
  @DF-RHF Final Energy:  -360.90309186679917
    Total Energy =                       -360.9030918667991727
  Basis Set: CC-PVTZ
  Basis Set:
  Basis Set: CC-PVTZ
  Basis Set:
  @DF-RHF Final Energy:  -360.90893122251890
    Total Energy =                       -360.9089312225189019
  Basis Set: CC-PVTZ
  Basis Set:
  Basis Set: CC-PVTZ
  Basis Set:
  @DF-RHF Final Energy:  -360.90896037959516
    Total Energy =                       -360.9089603795948733
  Basis Set: CC-PVTZ
  Basis Set:
  Basis Set: CC-PVTZ
  Basis Set:
  @DF-RHF Final Energy:  -360.90897280269456
    Total Energy =                       -360.9089728026945068
  Basis Set: CC-PVTZ
  Basis Set:
  Basis Set: CC-PVTZ
  Basis Set:
  @DF-RHF Final Energy:  -360.90921398039609
    Total Energy =                       -360.9092139803962596
  Basis Set: CC-PVTZ
  Basis Set:
  Basis Set: CC-PVTZ
  Basis Set:
  @DF-RHF Final Energy:  -360.90923178479102
    Total Energy =                       -360.9092317847911318
  Basis Set: CC-PVTZ
  Basis Set:
  Charge       = 0
  Multiplicity = 1
  Basis Set: CC-PVTZ
  Basis Set:

    Orbital Energies (a.u.)
    -----------------------

    Doubly Occupied:

       1A    -20.591855     2A    -20.588282     3A    -15.836717
       4A    -11.296758     5A    -11.248405     6A    -11.241141
       7A    -11.225341     8A     -1.635702     9A     -1.419881
      10A     -1.135635    11A     -1.059679    12A     -0.948835
      13A     -0.843496    14A     -0.827023    15A     -0.758855
      16A     -0.740720    17A     -0.728948    18A     -0.676440
      19A     -0.615443    20A     -0.606766    21A     -0.567087
      22A     -0.540270    23A     -0.517923    24A     -0.503511
      25A     -0.495853    26A     -0.486353    27A     -0.469643
      28A     -0.453059

  @DF-RHF Final Energy:  -360.90923232516155

   => Energetics <=

    Nuclear Repulsion Energy =            312.7570776326904820
    One-Electron Energy =               -1111.2133757336437156
    Two-Electron Energy =                 437.5470657757915660
    DFT Exchange-Correlation Energy =       0.0000000000000000
    Empirical Dispersion Energy =           0.0000000000000000
    PCM Polarization Energy =               0.0000000000000000
    EFP Energy =                            0.0000000000000000
    Total Energy =                       -360.9092323251617245
    Molecular point group: c1
  Basis Set: CC-PVTZ
  Basis Set:

  -Total Gradient:
     Atom            X                  Y                   Z
    ------   -----------------  -----------------  -----------------
       1       -0.000254246721    -0.000110159200     0.000421364800
       2        0.000290247657     0.000203204564    -0.000510896302
       3        0.000012356273    -0.000388991065    -0.000156677894
       4        0.000020568909     0.000006817437     0.000019618537
       5       -0.000059291921     0.000279863423     0.000239988287
       6       -0.000010360226     0.000021346115    -0.000004642157
       7       -0.000004644506    -0.000003650290     0.000004873853
       8       -0.000002739537     0.000011888827    -0.000005263394
       9       -0.000003913405    -0.000000255925    -0.000015211562
      10        0.000003736551    -0.000022905234     0.000001281780
      11        0.000007187247    -0.000000964409     0.000003537394
      12        0.000002308123     0.000003715559    -0.000000979925
      13       -0.000001105387    -0.000001003415     0.000003152017
      14       -0.000001775930    -0.000000372635    -0.000000419134
      15        0.000000242473     0.000000047681     0.000001021125
      16        0.000001430402     0.000001418564    -0.000000747428

  **** Optimization is complete! (in 8 steps) ****
    Final optimized geometry and variables:
    Molecular point group: c1

    Geometry (in Angstrom), charge = 0, multiplicity = 1:

    O           -2.025930320011    -1.342128403486    -0.705309007156
    N           -1.562164818092    -0.383945132041    -0.185898899938
    C           -0.263829405192    -0.546014281825     0.526666767199
    O           -2.050271066562     0.696736541111    -0.179053526023
    C            0.805410257403     0.353020699587    -0.075140965133
    H           -0.016609547146    -1.590658945605     0.453902420347
    H           -0.468925748867    -0.281261837632     1.553466153206
    C            2.141565899369     0.178918753763     0.642828702806
    H            0.919643089486     0.112947813332    -1.127326443156
    H            0.478526631994     1.382119738097    -0.013360462528
    C            3.235443245242     1.066312898158     0.059292475529
    H            2.451910051720    -0.860331909063     0.587393559789
    H            2.015945225791     0.407093932039     1.697386822369
    H            3.406695092165     0.838630087111    -0.986975805314
    H            2.967717790583     2.114547805842     0.130958277552
    H            4.170999463909     0.925600239327     0.586698118513

  Mulliken Charges: (a.u.)
   Center  Symbol    Alpha    Beta     Spin     Total
       1     O     4.16935  4.16935  0.00000 -0.33869
       2     N     3.27656  3.27656  0.00000  0.44688
       3     C     3.04183  3.04183  0.00000 -0.08365
       4     O     4.17462  4.17462  0.00000 -0.34924
       5     C     3.10106  3.10106  0.00000 -0.20212
       6     H     0.43201  0.43201  0.00000  0.13597
       7     H     0.43635  0.43635  0.00000  0.12730
       8     C     3.09371  3.09371  0.00000 -0.18743
       9     H     0.44293  0.44293  0.00000  0.11415
      10     H     0.43310  0.43310  0.00000  0.13380
      11     C     3.14810  3.14810  0.00000 -0.29621
      12     H     0.45050  0.45050  0.00000  0.09900
      13     H     0.45094  0.45094  0.00000  0.09812
      14     H     0.45207  0.45207  0.00000  0.09586
      15     H     0.45152  0.45152  0.00000  0.09696
      16     H     0.44535  0.44535  0.00000  0.10931

   Total alpha = 28.00000, Total beta = 28.00000, Total charge = -0.00000

*** Psi4 exiting successfully. Buy a developer a beer!
