  ==> Input File <==

--------------------------------------------------------------------------
set {
	reference rhf
	basis 6-31G*
}

set_num_threads( 4 )
memory 2 gb

molecule MOL {
0 1

H	 -2.243329	 -0.112287	 1.026291
O	 -2.035884	 -0.060112	 0.102722
C	 -0.955155	 0.788182	 -0.092531
C	 0.353668	 0.040312	 -0.004810
H	 -0.985057	 1.290372	 -1.054184
H	 -0.974469	 1.533190	 0.688632
F	 0.394464	 -0.937475	 -0.903053
F	 1.368604	 0.853376	 -0.249821
F	 0.546173	 -0.502608	 1.179981

	symmetry c1
}
set optking {
	frozen_dihedral = ("
		1 2 3 5
	")
}

ee = optimize('scf')
oeprop('DIPOLE', 'QUADRUPOLE', 'MULLIKEN_CHARGES')
f=open( 'psi4out.xyz', 'w' )
f.write( "9  " )
f.write( str(ee) + "\n" )
f.write( MOL.save_string_xyz() )
f.close()
--------------------------------------------------------------------------

    Molecular point group: c1
  Charge       = 0
  Multiplicity = 1
  Basis Set: 6-31G*
  Basis Set:
  @DF-RHF Final Energy:  -450.65996794240039
    Total Energy =                       -450.6599679424004989
    Molecular point group: c1
  Basis Set: 6-31G*
  Basis Set:
  Basis Set: 6-31G*
  Basis Set:
  @DF-RHF Final Energy:  -450.66155371520131
    Total Energy =                       -450.6615537152011939
  Basis Set: 6-31G*
  Basis Set:
  Basis Set: 6-31G*
  Basis Set:
  @DF-RHF Final Energy:  -450.66187469541239
    Total Energy =                       -450.6618746954123935
  Basis Set: 6-31G*
  Basis Set:
  Basis Set: 6-31G*
  Basis Set:
  @DF-RHF Final Energy:  -450.66188552926906
    Total Energy =                       -450.6618855292690569
  Basis Set: 6-31G*
  Basis Set:
  Charge       = 0
  Multiplicity = 1
  Basis Set: 6-31G*
  Basis Set:

    Orbital Energies (a.u.)
    -----------------------

    Doubly Occupied:

       1A    -26.339650     2A    -26.338597     3A    -26.335441
       4A    -20.590416     5A    -11.496558     6A    -11.309826
       7A     -1.736219     8A     -1.634714     9A     -1.632931
      10A     -1.402176    11A     -1.047260    12A     -0.920644
      13A     -0.826841    14A     -0.825327    15A     -0.797373
      16A     -0.732829    17A     -0.708068    18A     -0.697160
      19A     -0.662076    20A     -0.654246    21A     -0.638411
      22A     -0.629939    23A     -0.604544    24A     -0.532725
      25A     -0.480312

  @DF-RHF Final Energy:  -450.66188723552841

   => Energetics <=

    Nuclear Repulsion Energy =            276.8217189457220684
    One-Electron Energy =               -1175.8186461019911349
    Two-Electron Energy =                 448.3350399207405417
    DFT Exchange-Correlation Energy =       0.0000000000000000
    Empirical Dispersion Energy =           0.0000000000000000
    PCM Polarization Energy =               0.0000000000000000
    EFP Energy =                            0.0000000000000000
    Total Energy =                       -450.6618872355285248
    Molecular point group: c1
  Basis Set: 6-31G*
  Basis Set:

  -Total Gradient:
     Atom            X                  Y                   Z
    ------   -----------------  -----------------  -----------------
       1       -0.001433801221     0.001815384234    -0.000265946342
       2        0.001576482161    -0.001812542333     0.000487936283
       3        0.000913710312    -0.001546292402    -0.000997360686
       4       -0.000084167328     0.000041423149     0.000205002802
       5       -0.001056965221     0.001511670772     0.000787361631
       6        0.000005585423    -0.000020255626     0.000003030288
       7        0.000055000317     0.000011197838     0.000032339104
       8        0.000082024423    -0.000007742459    -0.000087895123
       9       -0.000057868862     0.000007156824    -0.000164467952

  **** Optimization is complete! (in 5 steps) ****
    Final optimized geometry and variables:
    Molecular point group: c1

    Geometry (in Angstrom), charge = 0, multiplicity = 1:

    H           -2.245402056181    -0.114849311914     1.017155005345
    O           -2.030220789354    -0.069391501401     0.096646058745
    C           -0.952984815414     0.784456565249    -0.104125361548
    C            0.352301582846     0.029632128257    -0.036693812513
    H           -1.046866062709     1.234366206941    -1.081980836116
    H           -0.908395908161     1.581512785919     0.630043192150
    F            0.434411352572    -0.913315951153    -0.953001776843
    F            1.369858383645     0.859597010720    -0.216522371864
    F            0.507237226520    -0.545348169179     1.147119340811

  Mulliken Charges: (a.u.)
   Center  Symbol    Alpha    Beta     Spin     Total
       1     H     0.27149  0.27149  0.00000  0.45702
       2     O     4.36117  4.36117  0.00000 -0.72234
       3     C     3.05919  3.05919  0.00000 -0.11837
       4     C     2.45807  2.45807  0.00000  1.08386
       5     H     0.39692  0.39692  0.00000  0.20616
       6     H     0.40972  0.40972  0.00000  0.18056
       7     F     4.67557  4.67557  0.00000 -0.35114
       8     F     4.68363  4.68363  0.00000 -0.36725
       9     F     4.68425  4.68425  0.00000 -0.36850

   Total alpha = 25.00000, Total beta = 25.00000, Total charge =  0.00000
