                              Psi4 1.0.54 Driver

  ==> Input File <==

--------------------------------------------------------------------------
set {
	reference rhf
	basis cc-pvtz
}

set_num_threads( 4 )
memory 2 gb

molecule MOL {
0 1

H	 -3.642953	 0.223825	 0.000000
C	 -2.571844	 0.155001	 0.000000
C	 -1.957580	 -1.086132	 0.000000
C	 -1.807160	 1.303787	 0.000000
H	 -2.551493	 -1.979629	 0.000000
C	 -0.582719	 -1.174294	 0.000000
H	 -2.279934	 2.266806	 0.000000
C	 -0.427220	 1.213406	 0.000000
H	 -0.094904	 -2.127556	 0.000000
C	 0.196908	 -0.024061	 0.000000
H	 0.151409	 2.115254	 0.000000
C	 1.690041	 -0.173233	 0.000000
C	 2.320216	 -1.253246	 0.849183
O	 2.369155	 0.547969	 -0.658811
H	 2.073686	 -1.111975	 1.894767
H	 3.390116	 -1.208459	 0.722542
H	 1.961788	 -2.232007	 0.553319

	symmetry c1
}
set optking {
	frozen_dihedral = ("
		13 12 10 8
	")
}

ee,wfn = optimize('scf', return_wfn=True)
oeprop( wfn, 'DIPOLE', 'QUADRUPOLE', 'MULLIKEN_CHARGES')
f=open( 'psi4out.xyz', 'w' )
f.write( "17  " )
f.write( str(ee) + "\n" )
f.write( MOL.save_string_xyz() )
f.close()
--------------------------------------------------------------------------

    Molecular point group: c1
  Charge       = 0
  Multiplicity = 1
  Basis Set: CC-PVTZ
  Basis Set:
  @DF-RHF Final Energy:  -382.60107408111719
    Total Energy =                       -382.6010740811173036
    Molecular point group: c1
  Basis Set: CC-PVTZ
  Basis Set:
  Basis Set: CC-PVTZ
  Basis Set:
  @DF-RHF Final Energy:  -382.58260421869232
    Total Energy =                       -382.5826042186920404
  Basis Set: CC-PVTZ
  Basis Set:
  Basis Set: CC-PVTZ
  Basis Set:
  @DF-RHF Final Energy:  -382.60091426323913
    Total Energy =                       -382.6009142632391331
  Basis Set: CC-PVTZ
  Basis Set:
  Basis Set: CC-PVTZ
  Basis Set:
  @DF-RHF Final Energy:  -382.01309415243384
    Total Energy =                       -382.0130941524334389
  Basis Set: CC-PVTZ
  Basis Set:
  @DF-RHF Final Energy:  -382.25395593954727
    Total Energy =                       -382.2539559395473816
  @DF-RHF Final Energy:  -382.50316853061850
    Total Energy =                       -382.5031685306182681
  @DF-RHF Final Energy:  -382.59555682978487
    Total Energy =                       -382.5955568297849823
  @DF-RHF Final Energy:  -382.60231307453660
    Total Energy =                       -382.6023130745365961
  Basis Set: CC-PVTZ
  Basis Set:
  @DF-RHF Final Energy:  -382.60216569511573
    Total Energy =                       -382.6021656951160139
  Basis Set: CC-PVTZ
  Basis Set:
  Basis Set: CC-PVTZ
  Basis Set:
  @DF-RHF Final Energy:  -382.60287184928086
    Total Energy =                       -382.6028718492809730
  Basis Set: CC-PVTZ
  Basis Set:
  Basis Set: CC-PVTZ
  Basis Set:
  @DF-RHF Final Energy:  -382.60287537801725
    Total Energy =                       -382.6028753780171883
  Basis Set: CC-PVTZ
  Basis Set:
  Charge       = 0
  Multiplicity = 1
  Basis Set: CC-PVTZ
  Basis Set:

    Orbital Energies (a.u.)
    -----------------------

    Doubly Occupied:

       1A    -20.542666     2A    -11.328461     3A    -11.245737
       4A    -11.243942     5A    -11.242371     6A    -11.239949
       7A    -11.239283     8A    -11.237426     9A    -11.229825
      10A     -1.403526    11A     -1.171415    12A     -1.053686
      13A     -1.030663    14A     -0.999713    15A     -0.864125
      16A     -0.840139    17A     -0.764348    18A     -0.710627
      19A     -0.661572    20A     -0.651461    21A     -0.627775
      22A     -0.618896    23A     -0.603393    24A     -0.594030
      25A     -0.559406    26A     -0.530433    27A     -0.519004
      28A     -0.505589    29A     -0.496730    30A     -0.414414
      31A     -0.350025    32A     -0.347208

  @DF-RHF Final Energy:  -382.60287613317792

   => Energetics <=

    Nuclear Repulsion Energy =            404.2776841381901249
    One-Electron Energy =               -1320.0254440851426807
    Two-Electron Energy =                 533.1448838137744133
    DFT Exchange-Correlation Energy =       0.0000000000000000
    Empirical Dispersion Energy =           0.0000000000000000
    PCM Polarization Energy =               0.0000000000000000
    EFP Energy =                            0.0000000000000000
    Total Energy =                       -382.6028761331781425
    Molecular point group: c1
  Basis Set: CC-PVTZ
  Basis Set:

  -Total Gradient:
     Atom            X                  Y                   Z
    ------   -----------------  -----------------  -----------------
       1        0.000017323410    -0.000004634903    -0.000004545142
       2       -0.000020342691     0.000145066834     0.000077650795
       3        0.000148899606    -0.000028729701    -0.000009632560
       4       -0.000087139614    -0.000111028832    -0.000058072398
       5       -0.000000154882     0.000022812814     0.000011384297
       6       -0.000109831862    -0.000039607878    -0.000043616290
       7        0.000015806088    -0.000001317343     0.000004138715
       8        0.000262920890    -0.001557843445     0.002884826102
       9        0.000005172872     0.000010888209     0.000006024420
      10       -0.000450711571     0.002539226354    -0.002743547895
      11       -0.000011265915    -0.000021544572    -0.000009413208
      12        0.000753368869    -0.001410047208    -0.003022019546
      13       -0.000454289887     0.000547440486     0.002854392345
      14       -0.000039923277    -0.000101470598     0.000001887958
      15       -0.000007145759     0.000018840204     0.000001713956
      16       -0.000013955607    -0.000008807168     0.000012541969
      17       -0.000008730666     0.000000756744     0.000036286481

  **** Optimization is complete! (in 12 steps) ****
    Final optimized geometry and variables:
    Molecular point group: c1

    Geometry (in Angstrom), charge = 0, multiplicity = 1:

    H           -3.512460370474    -0.933939307634    -0.283552234864
    C           -2.479044842152    -0.653282981476    -0.212319971822
    C           -1.499730928943    -1.494135345428    -0.703854506082
    C           -2.126758991942     0.548970204866     0.374227169151
    H           -1.769703756369    -2.426190197913    -1.161616251053
    C           -0.168196101690    -1.138942270788    -0.599150722069
    H           -2.885421152590     1.200565391604     0.762932242051
    C           -0.798837430295     0.913766438461     0.457148999426
    H            0.582501897946    -1.806202548411    -0.975149076967
    C            0.190287618550     0.074291059408    -0.033848966366
    H           -0.517132782371     1.850301919851     0.895454599241
    C            1.622826750564     0.497554389871     0.118092227898
    C            2.644178788517    -0.555085254729     0.481403606103
    O            1.926198068227     1.643079744738     0.028434552789
    H            2.337887133911    -1.064316973753     1.387478255377
    H            3.601464916054    -0.080107996330     0.629154420274
    H            2.732335985276    -1.302960947096    -0.297375344470

  Mulliken Charges: (a.u.)
   Center  Symbol    Alpha    Beta     Spin     Total
       1     H     0.42068  0.42068  0.00000  0.15863
       2     C     3.07783  3.07783  0.00000 -0.15567
       3     C     3.07010  3.07010  0.00000 -0.14019
       4     C     3.06959  3.06959  0.00000 -0.13918
       5     H     0.42176  0.42176  0.00000  0.15647
       6     C     3.08971  3.08971  0.00000 -0.17942
       7     H     0.42072  0.42072  0.00000  0.15855
       8     C     3.08517  3.08517  0.00000 -0.17034
       9     H     0.42368  0.42368  0.00000  0.15263
      10     C     2.98462  2.98462  0.00000  0.03077
      11     H     0.41147  0.41147  0.00000  0.17706
      12     C     2.86035  2.86035  0.00000  0.27930
      13     C     3.15832  3.15832  0.00000 -0.31664
      14     O     4.17579  4.17579  0.00000 -0.35157
      15     H     0.44510  0.44510  0.00000  0.10981
      16     H     0.43413  0.43413  0.00000  0.13174
      17     H     0.45097  0.45097  0.00000  0.09805

   Total alpha = 32.00000, Total beta = 32.00000, Total charge = -0.00000

*** Psi4 exiting successfully. Buy a developer a beer!
