  ==> Input File <==

--------------------------------------------------------------------------
set {
	reference rhf
	basis 6-31G*
}

set_num_threads( 4 )
memory 2 gb

molecule MOL {
0 1

H	 -3.161837	 0.500524	 -0.000234
C	 -2.367097	 -0.232926	 -0.000000
O	 -1.158440	 0.455814	 -0.000122
H	 -2.468853	 -0.861886	 -0.882833
H	 -2.468942	 -0.861421	 0.883154
C	 -0.029776	 -0.365156	 0.000148
C	 1.212217	 0.508981	 0.000007
H	 -0.036772	 -1.013236	 -0.877259
H	 -0.036869	 -1.012778	 0.877897
C	 2.467646	 -0.259444	 -0.410238
H	 1.045986	 1.343122	 -0.674706
H	 1.337426	 0.929448	 0.993098
H	 2.372394	 -0.668420	 -1.412281
H	 3.338101	 0.387915	 -0.401239
H	 2.665572	 -1.085595	 0.267038

	symmetry c1
}
set optking {
	frozen_dihedral = ("
		11 7 6 8
	")
}

ee = optimize('scf')
oeprop('DIPOLE', 'QUADRUPOLE', 'MULLIKEN_CHARGES')
f=open( 'psi4out.xyz', 'w' )
f.write( "15  " )
f.write( str(ee) + "\n" )
f.write( MOL.save_string_xyz() )
f.close()
--------------------------------------------------------------------------

    Molecular point group: c1
  Charge       = 0
  Multiplicity = 1
  Basis Set: 6-31G*
  Basis Set:
  @DF-RHF Final Energy:  -232.13830289085593
    Total Energy =                       -232.1383028908557549
    Molecular point group: c1
  Basis Set: 6-31G*
  Basis Set:
  Basis Set: 6-31G*
  Basis Set:
  @DF-RHF Final Energy:  -232.13843156542578
    Total Energy =                       -232.1384315654256625
  Basis Set: 6-31G*
  Basis Set:
  Basis Set: 6-31G*
  Basis Set:
  @DF-RHF Final Energy:  -232.13846935548216
    Total Energy =                       -232.1384693554821297
  Basis Set: 6-31G*
  Basis Set:
  Charge       = 0
  Multiplicity = 1
  Basis Set: 6-31G*
  Basis Set:

    Orbital Energies (a.u.)
    -----------------------

    Doubly Occupied:

       1A    -20.554133     2A    -11.266287     3A    -11.264231
       4A    -11.214114     5A    -11.212974     6A     -1.379003
       7A     -1.056749     8A     -0.955516     9A     -0.877764
      10A     -0.809507    11A     -0.673564    12A     -0.655258
      13A     -0.630909    14A     -0.605689    15A     -0.566182
      16A     -0.541608    17A     -0.503127    18A     -0.489708
      19A     -0.476581    20A     -0.461664    21A     -0.413345

  @DF-RHF Final Energy:  -232.13846999806839

   => Energetics <=

    Nuclear Repulsion Energy =            189.6906566847281397
    One-Electron Energy =                -690.4424266899211489
    Two-Electron Energy =                 268.6133000071246215
    DFT Exchange-Correlation Energy =       0.0000000000000000
    Empirical Dispersion Energy =           0.0000000000000000
    PCM Polarization Energy =               0.0000000000000000
    EFP Energy =                            0.0000000000000000
    Total Energy =                       -232.1384699980683877
    Molecular point group: c1
  Basis Set: 6-31G*
  Basis Set:

  -Total Gradient:
     Atom            X                  Y                   Z
    ------   -----------------  -----------------  -----------------
       1       -0.000028993638    -0.000010337225    -0.000003380669
       2        0.000008284395     0.000026268952     0.000011352633
       3       -0.000008008766    -0.000000981938    -0.000007540510
       4       -0.000000127475    -0.000000022856     0.000000943240
       5       -0.000007141197    -0.000006383209    -0.000002176877
       6       -0.002167649814     0.003250126596    -0.001546631715
       7        0.001914792893    -0.002747594231    -0.002615782250
       8        0.001584188827    -0.002296546041     0.001706621322
       9       -0.000039361624     0.000009716052     0.000005342178
      10        0.000014631585    -0.000007677780    -0.000021678002
      11       -0.001236226025     0.001754588274     0.002459345967
      12       -0.000009538062     0.000001847953     0.000006920291
      13        0.000007424447     0.000007300535    -0.000002547443
      14       -0.000003788018     0.000005550812     0.000012513410
      15       -0.000028487528     0.000014144107    -0.000003301576

  **** Optimization is complete! (in 4 steps) ****
    Final optimized geometry and variables:
    Molecular point group: c1

    Geometry (in Angstrom), charge = 0, multiplicity = 1:

    H           -3.159313162959     0.486446673875     0.120844300277
    C           -2.362654277801    -0.244887527369     0.111249847007
    O           -1.155963402473     0.446576952446     0.074363953007
    H           -2.482890532913    -0.884507355038    -0.761488905011
    H           -2.441660645952    -0.863036098492     1.003891536294
    C           -0.026852166272    -0.371464940402     0.052315613404
    C            1.220382480923     0.499254088206     0.065731474210
    H           -0.032972343885    -1.018538625698    -0.826261913551
    H           -0.028053631715    -1.034191140159     0.919122518209
    C            2.485128963765    -0.272066131845    -0.303989007840
    H            1.058982983371     1.334508480338    -0.608254485399
    H            1.327779485239     0.934212791723     1.055602795054
    H            2.429089687291    -0.660466231539    -1.316756280357
    H            3.360700421441     0.365467275751    -0.242363748992
    H            2.644869710088    -1.113680911858     0.364800004499

  Mulliken Charges: (a.u.)
   Center  Symbol    Alpha    Beta     Spin     Total
       1     H     0.41208  0.41208  0.00000  0.17584
       2     C     3.07955  3.07955  0.00000 -0.15910
       3     O     4.30523  4.30523  0.00000 -0.61046
       4     H     0.43022  0.43022  0.00000  0.13956
       5     H     0.43019  0.43019  0.00000  0.13962
       6     C     2.98234  2.98234  0.00000  0.03533
       7     C     3.16111  3.16111  0.00000 -0.32222
       8     H     0.43340  0.43340  0.00000  0.13320
       9     H     0.43337  0.43337  0.00000  0.13325
      10     C     3.24754  3.24754  0.00000 -0.49509
      11     H     0.41122  0.41122  0.00000  0.17757
      12     H     0.41677  0.41677  0.00000  0.16645
      13     H     0.41980  0.41980  0.00000  0.16040
      14     H     0.41566  0.41566  0.00000  0.16867
      15     H     0.42152  0.42152  0.00000  0.15696

   Total alpha = 21.00000, Total beta = 21.00000, Total charge = -0.00000
