  ==> Input File <==

--------------------------------------------------------------------------
set {
	reference rhf
	basis 6-31G*
}

set_num_threads( 4 )
memory 2 gb

molecule MOL {
0 1

H	 -3.269016	 -0.876744	 0.468090
C	 -2.809304	 0.000122	 0.025886
N	 -1.391456	 0.000019	 0.300661
H	 -3.037557	 -0.000063	 -1.044252
H	 -3.269223	 0.876956	 0.468000
C	 -0.723813	 -1.161748	 -0.252817
C	 -1.105040	 0.132141	 1.715694
H	 -1.099778	 -2.089804	 0.188625
H	 -0.919594	 -1.201611	 -1.319421
C	 0.776425	 -1.073273	 -0.020384
H	 -1.578882	 1.035928	 2.084745
H	 -1.506239	 -0.710264	 2.287447
C	 0.395199	 0.220616	 1.948127
H	 1.250268	 -1.977060	 -0.389435
H	 1.177624	 -0.230868	 -0.592137
N	 1.062841	 -0.941152	 1.394649
H	 0.590979	 0.260478	 3.014731
H	 0.771163	 1.148671	 1.506685
C	 2.480689	 -0.941256	 1.669424
H	 2.927413	 -1.855009	 1.293571
H	 2.647475	 -0.904077	 2.740231
H	 3.004557	 -0.095146	 1.214498

	symmetry c1
}
set optking {
	frozen_dihedral = ("
		6 3 2 4
	")
}

ee = optimize('scf')
oeprop('DIPOLE', 'QUADRUPOLE', 'MULLIKEN_CHARGES')
f=open( 'psi4out.xyz', 'w' )
f.write( "22  " )
f.write( str(ee) + "\n" )
f.write( MOL.save_string_xyz() )
f.close()
--------------------------------------------------------------------------

    Molecular point group: c1
  Charge       = 0
  Multiplicity = 1
  Basis Set: 6-31G*
  Basis Set:
  @DF-RHF Final Energy:  -344.22979210199776
    Total Energy =                       -344.2297921019977593
    Molecular point group: c1
  Basis Set: 6-31G*
  Basis Set:
  Basis Set: 6-31G*
  Basis Set:
  @DF-RHF Final Energy:  -344.23053994539038
    Total Energy =                       -344.2305399453902055
  Basis Set: 6-31G*
  Basis Set:
  Basis Set: 6-31G*
  Basis Set:
  @DF-RHF Final Energy:  -344.23065045338279
    Total Energy =                       -344.2306504533828502
  Basis Set: 6-31G*
  Basis Set:
  Charge       = 0
  Multiplicity = 1
  Basis Set: 6-31G*
  Basis Set:

    Orbital Energies (a.u.)
    -----------------------

    Doubly Occupied:

       1A    -15.542067     2A    -15.541967     3A    -11.238823
       4A    -11.238804     5A    -11.238194     6A    -11.238181
       7A    -11.235964     8A    -11.235926     9A     -1.255378
      10A     -1.204360    11A     -1.024698    12A     -0.991807
      13A     -0.911394    14A     -0.866905    15A     -0.835331
      16A     -0.755082    17A     -0.665529    18A     -0.636775
      19A     -0.630167    20A     -0.626626    21A     -0.621512
      22A     -0.581180    23A     -0.549514    24A     -0.545873
      25A     -0.542137    26A     -0.517835    27A     -0.496066
      28A     -0.490783    29A     -0.464764    30A     -0.455745
      31A     -0.350595    32A     -0.345021

  @DF-RHF Final Energy:  -344.23065107627292

   => Energetics <=

    Nuclear Repulsion Energy =            421.4470349502287263
    One-Electron Energy =               -1301.6053678701432545
    Two-Electron Energy =                 535.9276818436414942
    DFT Exchange-Correlation Energy =       0.0000000000000000
    Empirical Dispersion Energy =           0.0000000000000000
    PCM Polarization Energy =               0.0000000000000000
    EFP Energy =                            0.0000000000000000
    Total Energy =                       -344.2306510762730341
    Molecular point group: c1
  Basis Set: 6-31G*
  Basis Set:

  -Total Gradient:
     Atom            X                  Y                   Z
    ------   -----------------  -----------------  -----------------
       1        0.000017695576    -0.000004523032     0.000009193093
       2       -0.000007163308    -0.000703353519     0.000173608228
       3        0.000111081146     0.000360213175    -0.000390482138
       4        0.000034910927     0.000496763167    -0.000008122280
       5        0.000035600326     0.000005620227     0.000011402609
       6       -0.000091558057    -0.000135171380     0.000259214667
       7       -0.000100666782     0.000023862155     0.000044190817
       8        0.000012806637     0.000015554059     0.000007832714
       9        0.000009883594    -0.000030110688    -0.000019755506
      10       -0.000002922650    -0.000021702554     0.000011093779
      11       -0.000011434356     0.000011316544     0.000020664669
      12       -0.000000314855    -0.000007443330    -0.000016654320
      13       -0.000006649424     0.000003749056    -0.000106780420
      14        0.000008198838    -0.000001360520     0.000007363432
      15       -0.000010308409    -0.000001989935    -0.000000073162
      16        0.000021438535    -0.000023422104     0.000012299357
      17       -0.000043437068    -0.000003299449    -0.000019737599
      18        0.000015185958     0.000022744051     0.000004617677
      19        0.000004846292    -0.000011763120    -0.000004161108
      20        0.000003512561     0.000001258135     0.000002491993
      21        0.000000202358     0.000000593313     0.000001659164
      22       -0.000000907836     0.000002465748     0.000000134335

  **** Optimization is complete! (in 4 steps) ****
    Final optimized geometry and variables:
    Molecular point group: c1

    Geometry (in Angstrom), charge = 0, multiplicity = 1:

    H           -3.162418848567    -0.399042044229    -0.386168720924
    C           -2.647370125414     0.465466933140    -0.815561760978
    N           -1.228885478843     0.470667477893    -0.544266555156
    H           -2.816584872690     0.463652019863    -1.886736966096
    H           -3.101128923719     1.362914685513    -0.410027699490
    C           -0.560876912635    -0.690439717493    -1.099424022404
    C           -0.940105587571     0.599789151764     0.870927119095
    H           -0.934993776428    -1.618455049305    -0.656491181464
    H           -0.759588500467    -0.731182402456    -2.165544458468
    C            0.939800129211    -0.600641340556    -0.870758824413
    H           -1.414966413026     1.501655169450     1.243316973392
    H           -1.338060096827    -0.244987984164     1.441398075590
    C            0.560453210541     0.690902350944     1.099890356615
    H            1.413826274015    -1.503704330758    -1.241407249994
    H            1.338747838841     0.242498410419    -1.442972543895
    N            1.229329507931    -0.469072872440     0.543798709287
    H            0.758429701464     0.730018939713     2.166107695770
    H            0.933569571120     1.620243712122     0.658691190220
    C            2.647725369615    -0.466574537405     0.815190115787
    H            3.095679958855    -1.379002735417     0.437504743466
    H            2.816890599391    -0.430056981636     1.885652719900
    H            3.168880149151     0.381119007134     0.360046534494

  Mulliken Charges: (a.u.)
   Center  Symbol    Alpha    Beta     Spin     Total
       1     H     0.43331  0.43331  0.00000  0.13338
       2     C     3.14044  3.14044  0.00000 -0.28088
       3     N     3.78682  3.78682  0.00000 -0.57364
       4     H     0.41657  0.41657  0.00000  0.16686
       5     H     0.41695  0.41695  0.00000  0.16611
       6     C     3.05670  3.05670  0.00000 -0.11340
       7     C     3.05667  3.05667  0.00000 -0.11334
       8     H     0.42839  0.42839  0.00000  0.14322
       9     H     0.41790  0.41790  0.00000  0.16420
      10     C     3.05638  3.05638  0.00000 -0.11275
      11     H     0.41790  0.41790  0.00000  0.16421
      12     H     0.42846  0.42846  0.00000  0.14308
      13     C     3.05644  3.05644  0.00000 -0.11289
      14     H     0.41794  0.41794  0.00000  0.16413
      15     H     0.42846  0.42846  0.00000  0.14308
      16     N     3.78706  3.78706  0.00000 -0.57411
      17     H     0.41795  0.41795  0.00000  0.16409
      18     H     0.42844  0.42844  0.00000  0.14312
      19     C     3.14029  3.14029  0.00000 -0.28057
      20     H     0.41676  0.41676  0.00000  0.16647
      21     H     0.41676  0.41676  0.00000  0.16648
      22     H     0.43342  0.43342  0.00000  0.13317

   Total alpha = 32.00000, Total beta = 32.00000, Total charge =  0.00000
