                              Psi4 1.0.54 Driver

  ==> Input File <==

--------------------------------------------------------------------------
set {
	reference rhf
	basis cc-pvtz
}

set_num_threads( 4 )
memory 2 gb

molecule MOL {
0 1

H	 -2.393814	 -1.745015	 -1.400503
N	 -1.483875	 -1.715297	 -0.992828
C	 -1.409278	 -0.700115	 0.041572
H	 -0.833400	 -1.509331	 -1.721152
C	 -0.023672	 -0.658154	 0.644051
H	 -1.660174	 0.298889	 -0.312812
H	 -2.112845	 -0.952675	 0.827230
O	 0.881195	 -0.248324	 -0.336237
H	 -0.006298	 0.036258	 1.482896
H	 0.244386	 -1.645476	 1.013196
C	 2.208068	 -0.234417	 0.074171
H	 2.725499	 -1.027054	 -0.446768
H	 2.688377	 0.712084	 -0.164856
H	 2.295137	 -0.403407	 1.144883

	symmetry c1
}
set optking {
	frozen_dihedral = ("
		5 8 11 13
	")
}

ee,wfn = optimize('scf', return_wfn=True)
oeprop( wfn, 'DIPOLE', 'QUADRUPOLE', 'MULLIKEN_CHARGES')
f=open( 'psi4out.xyz', 'w' )
f.write( "14  " )
f.write( str(ee) + "\n" )
f.write( MOL.save_string_xyz() )
f.close()
--------------------------------------------------------------------------

    Molecular point group: c1
  Charge       = 0
  Multiplicity = 1
  Basis Set: CC-PVTZ
  Basis Set:
  @DF-RHF Final Energy:  -248.22220418466344
    Total Energy =                       -248.2222041846636102
    Molecular point group: c1
  Basis Set: CC-PVTZ
  Basis Set:
  Basis Set: CC-PVTZ
  Basis Set:
  @DF-RHF Final Energy:  -248.22270910362775
    Total Energy =                       -248.2227091036277216
  Basis Set: CC-PVTZ
  Basis Set:
  Basis Set: CC-PVTZ
  Basis Set:
  @DF-RHF Final Energy:  -248.22282730009428
    Total Energy =                       -248.2228273000944228
  Basis Set: CC-PVTZ
  Basis Set:
  Charge       = 0
  Multiplicity = 1
  Basis Set: CC-PVTZ
  Basis Set:

    Orbital Energies (a.u.)
    -----------------------

    Doubly Occupied:

       1A    -20.547384     2A    -15.523118     3A    -11.264391
       4A    -11.263236     5A    -11.239381     6A     -1.379932
       7A     -1.175484     8A     -1.000380     9A     -0.907905
      10A     -0.815343    11A     -0.684098    12A     -0.673686
      13A     -0.644715    14A     -0.611525    15A     -0.607554
      16A     -0.540353    17A     -0.536330    18A     -0.496826
      19A     -0.473421    20A     -0.415145    21A     -0.383494

  @DF-RHF Final Energy:  -248.22282797326562

   => Energetics <=

    Nuclear Repulsion Energy =            194.4222506614307235
    One-Electron Energy =                -722.9227537509825652
    Two-Electron Energy =                 280.2776751162861046
    DFT Exchange-Correlation Energy =       0.0000000000000000
    Empirical Dispersion Energy =           0.0000000000000000
    PCM Polarization Energy =               0.0000000000000000
    EFP Energy =                            0.0000000000000000
    Total Energy =                       -248.2228279732656802
    Molecular point group: c1
  Basis Set: CC-PVTZ
  Basis Set:

  -Total Gradient:
     Atom            X                  Y                   Z
    ------   -----------------  -----------------  -----------------
       1       -0.000004347462    -0.000001630202    -0.000025282797
       2        0.000017403616    -0.000010198048    -0.000046356236
       3       -0.000028317500    -0.000073124733     0.000136518224
       4        0.000002104042    -0.000010410319    -0.000047057105
       5       -0.000212228466     0.001285456459     0.000377276738
       6        0.000059361779    -0.000037611825     0.000023630305
       7       -0.000039818828     0.000015231637     0.000020288658
       8        0.000241969636    -0.001527281013    -0.000193760445
       9       -0.000003736340    -0.000023641329     0.000027654697
      10       -0.000026883803     0.000035678257    -0.000056129538
      11        0.000376782414    -0.000225264939    -0.001475278245
      12        0.000000517402     0.000003157321    -0.000001054949
      13       -0.000376056802     0.000565606727     0.001276264293
      14       -0.000006749689     0.000004032009    -0.000016713600

  **** Optimization is complete! (in 4 steps) ****
    Final optimized geometry and variables:
    Molecular point group: c1

    Geometry (in Angstrom), charge = 0, multiplicity = 1:

    H           -2.456521925406    -1.031429890345    -1.240801180672
    N           -1.547449392233    -1.004670373496    -0.830989360744
    C           -1.459627255978     0.038114267347     0.174601898546
    H           -0.891875899278    -0.829066586280    -1.562691051310
    C           -0.076037589022     0.074319618997     0.781801737869
    H           -1.691392660327     1.030675974425    -0.209544188184
    H           -2.170557247013    -0.179331452147     0.964307235480
    O            0.837234674166     0.437069451590    -0.211143722875
    H           -0.050614559875     0.795026278563     1.597075047103
    H            0.169159423207    -0.905830364259     1.182961788946
    C            2.179631194439     0.454230654177     0.166231008374
    H            2.718162953311    -0.358716116635    -0.308646424117
    H            2.622875584446     1.395870566601    -0.133536290048
    H            2.296449363064     0.358256688309     1.240918025607

  Mulliken Charges: (a.u.)
   Center  Symbol    Alpha    Beta     Spin     Total
       1     H     0.43035  0.43035  0.00000  0.13930
       2     N     3.69429  3.69429  0.00000 -0.38858
       3     C     3.02428  3.02428  0.00000 -0.04855
       4     H     0.42218  0.42218  0.00000  0.15564
       5     C     2.96735  2.96735  0.00000  0.06529
       6     H     0.46488  0.46488  0.00000  0.07024
       7     H     0.45874  0.45874  0.00000  0.08251
       8     O     4.18450  4.18450  0.00000 -0.36899
       9     H     0.46955  0.46955  0.00000  0.06089
      10     H     0.46920  0.46920  0.00000  0.06160
      11     C     3.02726  3.02726  0.00000 -0.05453
      12     H     0.45913  0.45913  0.00000  0.08174
      13     H     0.45635  0.45635  0.00000  0.08730
      14     H     0.47193  0.47193  0.00000  0.05614

   Total alpha = 21.00000, Total beta = 21.00000, Total charge = -0.00000

*** Psi4 exiting successfully. Buy a developer a beer!
