  ==> Input File <==

--------------------------------------------------------------------------
set {
	reference rhf
	basis cc-pvtz
}

set_num_threads( 4 )
memory 2 gb

molecule MOL {
0 1

H	 -3.941973	 0.934228	 -0.390224
C	 -3.240162	 0.342701	 0.161016
C	 -2.105997	 -0.000418	 -0.398703
H	 -3.485368	 0.047206	 1.162193
O	 -1.189946	 -0.765863	 0.237511
H	 -1.846458	 0.297311	 -1.398265
C	 0.026572	 -0.995256	 -0.379403
C	 1.057223	 0.049888	 -0.004615
H	 -0.054361	 -1.010670	 -1.459674
H	 0.397526	 -1.952058	 -0.044198
F	 1.060875	 1.007238	 -0.910455
F	 0.794508	 0.603070	 1.160064
F	 2.267183	 -0.450817	 0.056627

	symmetry c1
}
set optking {
	frozen_dihedral = ("
		11 8 7 9
	")
}

ee = optimize('scf')
oeprop('DIPOLE', 'QUADRUPOLE', 'MULLIKEN_CHARGES')
f=open( 'psi4out.xyz', 'w' )
f.write( "13  " )
f.write( str(ee) + "\n" )
f.write( MOL.save_string_xyz() )
f.close()
--------------------------------------------------------------------------

    Molecular point group: c1
  Charge       = 0
  Multiplicity = 1
  Basis Set: CC-PVTZ
  Basis Set:
  @DF-RHF Final Energy:  -527.73743268224973
    Total Energy =                       -527.7374326822491639
    Molecular point group: c1
  Basis Set: CC-PVTZ
  Basis Set:
  Basis Set: CC-PVTZ
  Basis Set:
  @DF-RHF Final Energy:  -527.73831896349793
    Total Energy =                       -527.7383189634975906
  Basis Set: CC-PVTZ
  Basis Set:
  Basis Set: CC-PVTZ
  Basis Set:
  @DF-RHF Final Energy:  -527.73858047083036
    Total Energy =                       -527.7385804708303567
  Basis Set: CC-PVTZ
  Basis Set:
  Basis Set: CC-PVTZ
  Basis Set:
  @DF-RHF Final Energy:  -527.73861875199498
    Total Energy =                       -527.7386187519952045
  Basis Set: CC-PVTZ
  Basis Set:
  @DF-RHF Final Energy:  -527.73862929653410
    Total Energy =                       -527.7386292965343273
  Basis Set: CC-PVTZ
  Basis Set:
  @DF-RHF Final Energy:  -527.73864077024223
    Total Energy =                       -527.7386407702420001
  Basis Set: CC-PVTZ
  Basis Set:
  Basis Set: CC-PVTZ
  Basis Set:
  @DF-RHF Final Energy:  -527.73864845564299
    Total Energy =                       -527.7386484556426467
  Basis Set: CC-PVTZ
  Basis Set:
  Basis Set: CC-PVTZ
  Basis Set:
  @DF-RHF Final Energy:  -527.73865019496657
    Total Energy =                       -527.7386501949666808
  Basis Set: CC-PVTZ
  Basis Set:
  Charge       = 0
  Multiplicity = 1
  Basis Set: CC-PVTZ
  Basis Set:

    Orbital Energies (a.u.)
    -----------------------

    Doubly Occupied:

       1A    -26.339948     2A    -26.339262     3A    -26.338671
       4A    -20.602534     5A    -11.498377     6A    -11.319833
       7A    -11.297952     8A    -11.215313     9A     -1.750062
      10A     -1.647137    11A     -1.643443    12A     -1.443237
      13A     -1.085065    14A     -1.020198    15A     -0.932010
      16A     -0.843122    17A     -0.837615    18A     -0.827225
      19A     -0.798939    20A     -0.726359    21A     -0.720283
      22A     -0.700710    23A     -0.681008    24A     -0.668595
      25A     -0.661616    26A     -0.649962    27A     -0.640301
      28A     -0.587463    29A     -0.566652    30A     -0.527039
      31A     -0.515871    32A     -0.358311

  @DF-RHF Final Energy:  -527.73865038323811

   => Energetics <=

    Nuclear Repulsion Energy =            414.2502197082108637
    One-Electron Energy =               -1552.4095111504393572
    Two-Electron Energy =                 610.4206410589902134
    DFT Exchange-Correlation Energy =       0.0000000000000000
    Empirical Dispersion Energy =           0.0000000000000000
    PCM Polarization Energy =               0.0000000000000000
    EFP Energy =                            0.0000000000000000
    Total Energy =                       -527.7386503832383369
    Molecular point group: c1
  Basis Set: CC-PVTZ
  Basis Set:

  -Total Gradient:
     Atom            X                  Y                   Z
    ------   -----------------  -----------------  -----------------
       1       -0.000007433618    -0.000007156949    -0.000003542589
       2        0.000004517435    -0.000001024678    -0.000000274212
       3        0.000011551075     0.000044270448     0.000009142948
       4       -0.000000978363    -0.000001548288    -0.000002603218
       5        0.000008373238    -0.000030050727    -0.000011411343
       6       -0.000004899166    -0.000011273280    -0.000005004116
       7        0.005597502969    -0.004490297463    -0.000954459750
       8       -0.004853959068     0.003134504182     0.002912840336
       9       -0.003836013146     0.003208905409     0.000204123166
      10       -0.000000284718     0.000009040489     0.000002478773
      11        0.003087599120    -0.001921825825    -0.002133393351
      12       -0.000025629149     0.000047794399     0.000023523372
      13        0.000019653393     0.000018662286    -0.000041420016

  **** Optimization is complete! (in 9 steps) ****
    Final optimized geometry and variables:
    Molecular point group: c1

    Geometry (in Angstrom), charge = 0, multiplicity = 1:

    H           -3.825193871554     1.010239896897    -0.365871079278
    C           -3.147942349779     0.376506741899     0.169136427972
    C           -2.060037008466    -0.051903883491    -0.422622776239
    H           -3.382237677932     0.103915801921     1.179385711931
    O           -1.187983230088    -0.889842439620     0.183446805342
    H           -1.810949563430     0.221859216814    -1.432636090344
    C            0.067641825126    -1.044002348210    -0.380937592962
    C            1.029792053113     0.075393939473     0.011139680336
    H            0.001650622540    -1.052164642477    -1.462113708723
    H            0.473523982651    -1.975966988945    -0.024040552503
    F            1.010460203872     1.063061526880    -0.863452730901
    F            0.774783036121     0.573690106712     1.191256130940
    F            2.264480968946    -0.391048099730     0.023117918577

  Mulliken Charges: (a.u.)
   Center  Symbol    Alpha    Beta     Spin     Total
       1     H     0.42502  0.42502  0.00000  0.14997
       2     C     3.19323  3.19323  0.00000 -0.38645
       3     C     2.96397  2.96397  0.00000  0.07205
       4     H     0.42417  0.42417  0.00000  0.15166
       5     O     4.14204  4.14204  0.00000 -0.28409
       6     H     0.43397  0.43397  0.00000  0.13207
       7     C     3.02422  3.02422  0.00000 -0.04845
       8     C     2.67577  2.67577  0.00000  0.64847
       9     H     0.45525  0.45525  0.00000  0.08950
      10     H     0.43370  0.43370  0.00000  0.13259
      11     F     4.61355  4.61355  0.00000 -0.22711
      12     F     4.60269  4.60269  0.00000 -0.20537
      13     F     4.61242  4.61242  0.00000 -0.22484

   Total alpha = 32.00000, Total beta = 32.00000, Total charge =  0.00000
