  ==> Input File <==

--------------------------------------------------------------------------
set {
	reference rhf
	basis cc-pvtz
}

set_num_threads( 4 )
memory 2 gb

molecule MOL {
0 1

H	 -2.343033	 0.134359	 0.796560
N	 -1.851927	 0.161443	 -0.071573
C	 -0.561396	 -0.500007	 0.035200
H	 -1.740427	 1.122987	 -0.317209
C	 0.575129	 0.507849	 -0.048832
H	 -0.478089	 -1.200753	 -0.788956
H	 -0.456191	 -1.081816	 0.952176
C	 1.951750	 -0.141983	 0.035101
H	 0.478254	 1.061643	 -0.975981
H	 0.467676	 1.231891	 0.755499
H	 2.101550	 -0.848142	 -0.774949
H	 2.738260	 0.600794	 -0.026526
H	 2.078939	 -0.679792	 0.968824

	symmetry c1
}
set optking {
	frozen_dihedral = ("
		1 2 3 6
	")
}

ee = optimize('scf')
oeprop('DIPOLE', 'QUADRUPOLE', 'MULLIKEN_CHARGES')
f=open( 'psi4out.xyz', 'w' )
f.write( "13  " )
f.write( str(ee) + "\n" )
f.write( MOL.save_string_xyz() )
f.close()
--------------------------------------------------------------------------

    Molecular point group: c1
  Charge       = 0
  Multiplicity = 1
  Basis Set: CC-PVTZ
  Basis Set:
  @DF-RHF Final Energy:  -173.34802625106758
    Total Energy =                       -173.3480262510676084
    Molecular point group: c1
  Basis Set: CC-PVTZ
  Basis Set:
  Basis Set: CC-PVTZ
  Basis Set:
  @DF-RHF Final Energy:  -173.34911081469423
    Total Energy =                       -173.3491108146942565
  Basis Set: CC-PVTZ
  Basis Set:
  Basis Set: CC-PVTZ
  Basis Set:
  @DF-RHF Final Energy:  -173.34928220733414
    Total Energy =                       -173.3492822073341983
  Basis Set: CC-PVTZ
  Basis Set:
  Basis Set: CC-PVTZ
  Basis Set:
  @DF-RHF Final Energy:  -173.34930015639793
    Total Energy =                       -173.3493001563979306
  Basis Set: CC-PVTZ
  Basis Set:
  Basis Set: CC-PVTZ
  Basis Set:
  @DF-RHF Final Energy:  -173.34930326769205
    Total Energy =                       -173.3493032676920791
  Basis Set: CC-PVTZ
  Basis Set:
  Charge       = 0
  Multiplicity = 1
  Basis Set: CC-PVTZ
  Basis Set:

    Orbital Energies (a.u.)
    -----------------------

    Doubly Occupied:

       1A    -15.523019     2A    -11.238168     3A    -11.215499
       4A    -11.209839     5A     -1.175298     6A     -1.038446
       7A     -0.900356     8A     -0.807589     9A     -0.670051
      10A     -0.619537    11A     -0.607173    12A     -0.557948
      13A     -0.540042    14A     -0.502499    15A     -0.485074
      16A     -0.470680    17A     -0.375836

  @DF-RHF Final Energy:  -173.34930351008620

   => Energetics <=

    Nuclear Repulsion Energy =            131.8660510884820383
    One-Electron Energy =                -494.5566013376512728
    Two-Electron Energy =                 189.3412467390829761
    DFT Exchange-Correlation Energy =       0.0000000000000000
    Empirical Dispersion Energy =           0.0000000000000000
    PCM Polarization Energy =               0.0000000000000000
    EFP Energy =                            0.0000000000000000
    Total Energy =                       -173.3493035100862585
    Molecular point group: c1
  Basis Set: CC-PVTZ
  Basis Set:

  -Total Gradient:
     Atom            X                  Y                   Z
    ------   -----------------  -----------------  -----------------
       1       -0.000917898954    -0.002072872732    -0.000522868264
       2        0.000951490654     0.002252257704     0.000974000990
       3        0.000776384052     0.001319345057    -0.001725342092
       4        0.000022006977    -0.000024439870     0.000004010507
       5       -0.000056983129    -0.000004082339    -0.000005006840
       6       -0.000786583931    -0.001479206358     0.001257034933
       7       -0.000019021642    -0.000006051410     0.000013567747
       8        0.000015295322     0.000003908196    -0.000002515128
       9        0.000014998507     0.000005405297     0.000007874979
      10        0.000010164992     0.000006957422    -0.000001261173
      11       -0.000004234887     0.000000759672    -0.000005130474
      12       -0.000001398307    -0.000005070256     0.000000812666
      13       -0.000004219651     0.000003089616     0.000004822149

  **** Optimization is complete! (in 6 steps) ****
    Final optimized geometry and variables:
    Molecular point group: c1

    Geometry (in Angstrom), charge = 0, multiplicity = 1:

    H           -2.367329611508     0.118672664926     0.810581021747
    N           -1.887064792927     0.120823859590    -0.060505435546
    C           -0.567386933625    -0.489593770932     0.032036411768
    H           -1.851283783058     1.055603022581    -0.402447915758
    C            0.586491909523     0.503641332394    -0.029730518745
    H           -0.455246825223    -1.224701920222    -0.760090653535
    H           -0.505541547354    -1.048379976990     0.960748350916
    C            1.953706401953    -0.168968903937     0.021458610111
    H            0.503536549483     1.082469727047    -0.946626134045
    H            0.491603430671     1.209179785566     0.791153218483
    H            2.081656078867    -0.859128641856    -0.805477914132
    H            2.751988197638     0.561796991757    -0.031787335951
    H            2.080229621145    -0.729658794421     0.941671209323

  Mulliken Charges: (a.u.)
   Center  Symbol    Alpha    Beta     Spin     Total
       1     H     0.42626  0.42626  0.00000  0.14748
       2     N     3.69971  3.69971  0.00000 -0.39943
       3     C     3.01502  3.01502  0.00000 -0.03003
       4     H     0.42693  0.42693  0.00000  0.14614
       5     C     3.08448  3.08448  0.00000 -0.16896
       6     H     0.46140  0.46140  0.00000  0.07720
       7     H     0.46211  0.46211  0.00000  0.07578
       8     C     3.15276  3.15276  0.00000 -0.30552
       9     H     0.45688  0.45688  0.00000  0.08624
      10     H     0.45700  0.45700  0.00000  0.08599
      11     H     0.45409  0.45409  0.00000  0.09183
      12     H     0.44798  0.44798  0.00000  0.10405
      13     H     0.45539  0.45539  0.00000  0.08923

   Total alpha = 17.00000, Total beta = 17.00000, Total charge = -0.00000
