                              Psi4 1.0.54 Driver

  ==> Input File <==

--------------------------------------------------------------------------
set {
	reference rhf
	basis cc-pvtz
}

set_num_threads( 4 )
memory 2 gb

molecule MOL {
0 1

H	 -3.483173	 -0.096172	 2.422242
C	 -2.529784	 -0.011278	 1.936427
C	 -2.148929	 1.191685	 1.369444
C	 -1.686171	 -1.104452	 1.879221
H	 -2.804250	 2.039770	 1.414232
C	 -0.923669	 1.300001	 0.745345
H	 -1.982458	 -2.036913	 2.319225
C	 -0.458984	 -0.997575	 1.254652
H	 -0.612969	 2.223718	 0.301194
C	 -0.074238	 0.206026	 0.685594
H	 0.196705	 -1.842253	 1.208600
C	 1.238974	 0.374429	 0.000004
O	 1.968286	 -0.725612	 -0.000027
O	 1.598280	 1.389067	 -0.496573
C	 3.373556	 -0.568203	 0.000011
H	 3.695416	 -0.031588	 -0.879663
H	 3.782700	 -1.565294	 -0.000152
H	 3.695405	 -0.031851	 0.879862

	symmetry c1
}
set optking {
	frozen_dihedral = ("
		10 12 13 15
	")
}

ee,wfn = optimize('scf', return_wfn=True)
oeprop( wfn, 'DIPOLE', 'QUADRUPOLE', 'MULLIKEN_CHARGES')
f=open( 'psi4out.xyz', 'w' )
f.write( "18  " )
f.write( str(ee) + "\n" )
f.write( MOL.save_string_xyz() )
f.close()
--------------------------------------------------------------------------

    Molecular point group: c1
  Charge       = 0
  Multiplicity = 1
  Basis Set: CC-PVTZ
  Basis Set:
  @DF-RHF Final Energy:  -457.50540157283740
    Total Energy =                       -457.5054015728369450
    Molecular point group: c1
  Basis Set: CC-PVTZ
  Basis Set:
  Basis Set: CC-PVTZ
  Basis Set:
  @DF-RHF Final Energy:  -457.50232340968410
    Total Energy =                       -457.5023234096842089
  Basis Set: CC-PVTZ
  Basis Set:
  Basis Set: CC-PVTZ
  Basis Set:
  @DF-RHF Final Energy:  -457.50563160561177
    Total Energy =                       -457.5056316056118249
  Basis Set: CC-PVTZ
  Basis Set:
  Basis Set: CC-PVTZ
  Basis Set:
  @DF-RHF Final Energy:  -457.50576132111115
    Total Energy =                       -457.5057613211109810
  Basis Set: CC-PVTZ
  Basis Set:
  @DF-RHF Final Energy:  -457.50576450553206
    Total Energy =                       -457.5057645055323974
  Basis Set: CC-PVTZ
  Basis Set:
  @DF-RHF Final Energy:  -457.50576506503711
    Total Energy =                       -457.5057650650367123
  Basis Set: CC-PVTZ
  Basis Set:
  Basis Set: CC-PVTZ
  Basis Set:
  @DF-RHF Final Energy:  -457.50574093633873
    Total Energy =                       -457.5057409363386114
  Basis Set: CC-PVTZ
  Basis Set:
  Basis Set: CC-PVTZ
  Basis Set:
  @DF-RHF Final Energy:  -457.50576521092216
    Total Energy =                       -457.5057652109221635
  Basis Set: CC-PVTZ
  Basis Set:
  Charge       = 0
  Multiplicity = 1
  Basis Set: CC-PVTZ
  Basis Set:

    Orbital Energies (a.u.)
    -----------------------

    Doubly Occupied:

       1A    -20.595919     2A    -20.536456     3A    -11.372337
       4A    -11.282676     5A    -11.245546     6A    -11.244395
       7A    -11.243472     8A    -11.240834     9A    -11.236703
      10A    -11.235990    11A     -1.473752    12A     -1.368605
      13A     -1.171355    14A     -1.051253    15A     -1.029752
      16A     -0.979315    17A     -0.865069    18A     -0.839275
      19A     -0.780904    20A     -0.744384    21A     -0.687834
      22A     -0.679559    23A     -0.675096    24A     -0.635112
      25A     -0.630750    26A     -0.602417    27A     -0.592446
      28A     -0.562327    29A     -0.532070    30A     -0.520652
      31A     -0.508885    32A     -0.502758    33A     -0.463428
      34A     -0.448496    35A     -0.350966    36A     -0.346932

  @DF-RHF Final Energy:  -457.50576525379051

   => Energetics <=

    Nuclear Repulsion Energy =            494.2514918444092018
    One-Electron Energy =               -1602.9590827305942184
    Two-Electron Energy =                 651.2018256323942751
    DFT Exchange-Correlation Energy =       0.0000000000000000
    Empirical Dispersion Energy =           0.0000000000000000
    PCM Polarization Energy =               0.0000000000000000
    EFP Energy =                            0.0000000000000000
    Total Energy =                       -457.5057652537907416
    Molecular point group: c1
  Basis Set: CC-PVTZ
  Basis Set:

  -Total Gradient:
     Atom            X                  Y                   Z
    ------   -----------------  -----------------  -----------------
       1       -0.000001870289    -0.000000597740     0.000000378126
       2       -0.000006931748     0.000019249107    -0.000003683667
       3       -0.000007514797    -0.000006948007     0.000020021944
       4        0.000012584138    -0.000008387398    -0.000012622233
       5       -0.000002868804     0.000000848606    -0.000000333328
       6        0.000005438720    -0.000015070230    -0.000010034443
       7       -0.000000813305     0.000001486376     0.000002698572
       8       -0.000014916191    -0.000011023039     0.000009866926
       9        0.000000806114     0.000002369111     0.000001464993
      10        0.002717290044     0.001732736692     0.005074199696
      11       -0.000000801631     0.000000701614    -0.000000685592
      12       -0.003753491955    -0.002583346816    -0.004097580244
      13        0.000639796879     0.000816668811    -0.007422523199
      14       -0.000001470682     0.000163997796    -0.000089847142
      15        0.000445989113    -0.000107158788     0.006547676253
      16       -0.000004512832     0.000000876719     0.000006067144
      17       -0.000010390485     0.000010075827    -0.000000171443
      18       -0.000016322292    -0.000016478640    -0.000024892364

  **** Optimization is complete! (in 9 steps) ****
    Final optimized geometry and variables:
    Molecular point group: c1

    Geometry (in Angstrom), charge = 0, multiplicity = 1:

    H           -3.494354742146    -0.444830123869     1.965642961299
    C           -2.585775800961    -0.297029340606     1.413465594478
    C           -2.332157158704     0.925633887103     0.816790501898
    C           -1.673111747436    -1.328110130397     1.300408428176
    H           -3.041770157162     1.725343154937     0.904645671152
    C           -1.164964443554     1.115066718903     0.107683079473
    H           -1.870958199194    -2.275790071662     1.762654415128
    C           -0.502645517730    -1.139525509308     0.590909161365
    H           -0.952505964040     2.055125904038    -0.359612777366
    C           -0.243940385103     0.084075906217    -0.005354154579
    H            0.206474656311    -1.936043241197     0.500700679404
    C            1.013687255721     0.344446913579    -0.762857581917
    O            1.816024559667    -0.708072844845    -0.829803766421
    O            1.302430825288     1.402302319581    -1.210025896394
    C            3.205357166827    -0.454255967054    -0.910024647416
    H            3.459150087857     0.024482871832    -1.843227300386
    H            3.688072758138    -1.415553797766    -0.842667378015
    H            3.517245114227     0.175859703543    -0.089121905327

  Mulliken Charges: (a.u.)
   Center  Symbol    Alpha    Beta     Spin     Total
       1     H     0.42016  0.42016  0.00000  0.15968
       2     C     3.06919  3.06919  0.00000 -0.13838
       3     C     3.07577  3.07577  0.00000 -0.15154
       4     C     3.07564  3.07564  0.00000 -0.15129
       5     H     0.42039  0.42039  0.00000  0.15921
       6     C     3.07608  3.07608  0.00000 -0.15216
       7     H     0.42169  0.42169  0.00000  0.15662
       8     C     3.08503  3.08503  0.00000 -0.17007
       9     H     0.40672  0.40672  0.00000  0.18656
      10     C     3.01194  3.01194  0.00000 -0.02388
      11     H     0.41061  0.41061  0.00000  0.17878
      12     C     2.78146  2.78146  0.00000  0.43709
      13     O     4.15415  4.15415  0.00000 -0.30831
      14     O     4.20447  4.20447  0.00000 -0.40895
      15     C     3.03708  3.03708  0.00000 -0.07416
      16     H     0.44604  0.44604  0.00000  0.10792
      17     H     0.44529  0.44529  0.00000  0.10942
      18     H     0.45827  0.45827  0.00000  0.08346

   Total alpha = 36.00000, Total beta = 36.00000, Total charge =  0.00000

*** Psi4 exiting successfully. Buy a developer a beer!
