  ==> Input File <==

--------------------------------------------------------------------------
set {
	reference rhf
	basis cc-pvtz
}

set_num_threads( 4 )
memory 2 gb

molecule MOL {
0 1

H	 -4.159661	 0.310927	 0.747545
O	 -3.445876	 -0.243197	 0.491317
C	 -2.302264	 0.528872	 0.237390
C	 -1.175688	 -0.398187	 -0.171891
H	 -2.496844	 1.248099	 -0.555468
H	 -2.016594	 1.089449	 1.125070
C	 0.196029	 0.106276	 0.266738
H	 -1.201873	 -0.515469	 -1.250677
H	 -1.365975	 -1.378728	 0.252664
C	 1.330220	 -0.826136	 -0.155230
H	 0.359542	 1.097229	 -0.145561
H	 0.212134	 0.218135	 1.348778
C	 2.719700	 -0.407669	 0.328325
H	 1.339388	 -0.911200	 -1.239363
H	 1.119001	 -1.821953	 0.224128
C	 3.241564	 0.893452	 -0.276737
H	 3.418299	 -1.204729	 0.093035
H	 2.711776	 -0.323368	 1.411960
H	 3.254204	 0.841071	 -1.360784
H	 2.634460	 1.745075	 0.005842
H	 4.254264	 1.092401	 0.054971

	symmetry c1
}
set optking {
	frozen_dihedral = ("
		2 3 4 8
	")
}

ee = optimize('scf')
oeprop('DIPOLE', 'QUADRUPOLE', 'MULLIKEN_CHARGES')
f=open( 'psi4out.xyz', 'w' )
f.write( "21  " )
f.write( str(ee) + "\n" )
f.write( MOL.save_string_xyz() )
f.close()
--------------------------------------------------------------------------

    Molecular point group: c1
  Charge       = 0
  Multiplicity = 1
  Basis Set: CC-PVTZ
  Basis Set:
  @DF-RHF Final Energy:  -310.32965603988919
    Total Energy =                       -310.3296560398891302
    Molecular point group: c1
  Basis Set: CC-PVTZ
  Basis Set:
  Basis Set: CC-PVTZ
  Basis Set:
  @DF-RHF Final Energy:  -310.32996580543124
    Total Energy =                       -310.3299658054314705
  Basis Set: CC-PVTZ
  Basis Set:
  Basis Set: CC-PVTZ
  Basis Set:
  @DF-RHF Final Energy:  -310.33002249249836
    Total Energy =                       -310.3300224924984718
  Basis Set: CC-PVTZ
  Basis Set:
  Charge       = 0
  Multiplicity = 1
  Basis Set: CC-PVTZ
  Basis Set:

    Orbital Energies (a.u.)
    -----------------------

    Doubly Occupied:

       1A    -20.545275     2A    -11.265166     3A    -11.212808
       4A    -11.212521     5A    -11.210761     6A    -11.209083
       7A    -11.206001     8A     -1.362630     9A     -1.086752
      10A     -1.033439    11A     -0.954659    12A     -0.876203
      13A     -0.807862    14A     -0.778946    15A     -0.700664
      16A     -0.653524    17A     -0.627778    18A     -0.604448
      19A     -0.586741    20A     -0.574577    21A     -0.536287
      22A     -0.522872    23A     -0.510435    24A     -0.485682
      25A     -0.483320    26A     -0.461009    27A     -0.455417
      28A     -0.444706    29A     -0.433155

  @DF-RHF Final Energy:  -310.33002213321458

   => Energetics <=

    Nuclear Repulsion Energy =            312.8729615813206237
    One-Electron Energy =               -1040.7205279520019303
    Two-Electron Energy =                 417.5175442374667796
    DFT Exchange-Correlation Energy =       0.0000000000000000
    Empirical Dispersion Energy =           0.0000000000000000
    PCM Polarization Energy =               0.0000000000000000
    EFP Energy =                            0.0000000000000000
    Total Energy =                       -310.3300221332145270
    Molecular point group: c1
  Basis Set: CC-PVTZ
  Basis Set:

  -Total Gradient:
     Atom            X                  Y                   Z
    ------   -----------------  -----------------  -----------------
       1       -0.000010183454     0.000023807925     0.000014249478
       2        0.000916944725    -0.000307082327     0.003280110112
       3       -0.000534105832     0.001224215481    -0.004429715100
       4       -0.003245543337    -0.004574671637     0.001533699523
       5       -0.000012525962    -0.000036135647    -0.000005859550
       6        0.000077279404    -0.000010401196     0.000006647721
       7       -0.000082097684    -0.000004862544     0.000076224564
       8        0.002818140735     0.003549703289    -0.000508717699
       9       -0.000023340600     0.000078748709     0.000047397928
      10        0.000014147085     0.000059466945    -0.000083379120
      11       -0.000064708377    -0.000084804303     0.000004581065
      12        0.000054472825     0.000057452953     0.000058629729
      13       -0.000047751027     0.000055306129     0.000078368500
      14       -0.000007020675     0.000025823924    -0.000020128528
      15        0.000038469394    -0.000011936664    -0.000032740512
      16        0.000046517287    -0.000015651233    -0.000021772301
      17        0.000007501196    -0.000011161010     0.000031491540
      18       -0.000025306567     0.000031726094    -0.000000256672
      19       -0.000018355210     0.000017835493    -0.000022652310
      20        0.000088751529    -0.000041644199     0.000017241417
      21        0.000008714540    -0.000025736182    -0.000023419784

  **** Optimization is complete! (in 4 steps) ****
    Final optimized geometry and variables:
    Molecular point group: c1

    Geometry (in Angstrom), charge = 0, multiplicity = 1:

    H           -4.198059059859     0.399589037972     0.541914701705
    O           -3.476547271540    -0.178714603897     0.376259266405
    C           -2.311375234199     0.564136818027     0.125293104212
    C           -1.186726353304    -0.393420643146    -0.249015631480
    H           -2.476792570385     1.285510434531    -0.670512528574
    H           -2.034470676570     1.121428739672     1.017464401078
    C            0.189062330013     0.125387825250     0.167341610237
    H           -1.181144206428    -0.543424085432    -1.323918660152
    H           -1.383570080723    -1.349216756039     0.220545219478
    C            1.326308905884    -0.789550751581    -0.282083490868
    H            0.332675656814     1.121708710041    -0.241301482591
    H            0.220636607664     0.231245615740     1.249189609541
    C            2.716639469540    -0.372625303807     0.200522699839
    H            1.329055989129    -0.852858750455    -1.367845555030
    H            1.123822110933    -1.794380349470     0.078198765768
    C            3.230841767383     0.938481606195    -0.389180387836
    H            3.417104231178    -1.163651347654    -0.049105284347
    H            2.713638927613    -0.303228165124     1.285133821158
    H            3.232494032097     0.903336443354    -1.474031270158
    H            2.625679506471     1.784623477864    -0.086815704025
    H            4.246648034605     1.133479330759    -0.064754013453

  Mulliken Charges: (a.u.)
   Center  Symbol    Alpha    Beta     Spin     Total
       1     H     0.39607  0.39607  0.00000  0.20785
       2     O     4.19622  4.19622  0.00000 -0.39244
       3     C     2.96362  2.96362  0.00000  0.07277
       4     C     3.08569  3.08569  0.00000 -0.17138
       5     H     0.47248  0.47248  0.00000  0.05504
       6     H     0.47666  0.47666  0.00000  0.04668
       7     C     3.10175  3.10175  0.00000 -0.20350
       8     H     0.45514  0.45514  0.00000  0.08971
       9     H     0.44528  0.44528  0.00000  0.10943
      10     C     3.09580  3.09580  0.00000 -0.19160
      11     H     0.45408  0.45408  0.00000  0.09184
      12     H     0.45395  0.45395  0.00000  0.09210
      13     C     3.08984  3.08984  0.00000 -0.17967
      14     H     0.45378  0.45378  0.00000  0.09243
      15     H     0.44842  0.44842  0.00000  0.10316
      16     C     3.15230  3.15230  0.00000 -0.30459
      17     H     0.44851  0.44851  0.00000  0.10299
      18     H     0.45468  0.45468  0.00000  0.09065
      19     H     0.45502  0.45502  0.00000  0.08996
      20     H     0.45423  0.45423  0.00000  0.09153
      21     H     0.44649  0.44649  0.00000  0.10703

   Total alpha = 29.00000, Total beta = 29.00000, Total charge = -0.00000
