  ==> Input File <==

--------------------------------------------------------------------------
set {
	reference rhf
	basis 6-31G*
}

set_num_threads( 4 )
memory 2 gb

molecule MOL {
0 1

O	 -1.877399	 -2.121352	 -0.801250
C	 -0.842317	 -1.673250	 -0.425014
C	 0.464178	 -2.427984	 -0.364075
O	 -0.698257	 -0.426125	 0.001050
C	 0.344903	 -3.868700	 -0.844782
H	 0.818834	 -2.381485	 0.661255
H	 1.187917	 -1.873142	 -0.953666
H	 -0.365643	 -4.422679	 -0.243454
H	 1.307353	 -4.365114	 -0.780923
H	 0.007068	 -3.909770	 -1.873132
C	 -1.853104	 0.406779	 0.000512
C	 -3.066105	 -0.499277	 -0.000959
H	 -1.828410	 1.043074	 -0.873618
H	 -1.829857	 1.042383	 0.875188
H	 -3.071820	 -1.133106	 -0.880383
H	 -3.972708	 0.097145	 -0.001528
H	 -3.073405	 -1.133813	 0.877999

	symmetry c1
}
set optking {
	frozen_dihedral = ("
		2 4 11 13
	")
}

ee = optimize('scf')
oeprop('DIPOLE', 'QUADRUPOLE', 'MULLIKEN_CHARGES')
f=open( 'psi4out.xyz', 'w' )
f.write( "17  " )
f.write( str(ee) + "\n" )
f.write( MOL.save_string_xyz() )
f.close()
--------------------------------------------------------------------------

    Molecular point group: c1
  Charge       = 0
  Multiplicity = 1
  Basis Set: 6-31G*
  Basis Set:
  @DF-RHF Final Energy:  -344.84109092015927
    Total Energy =                       -344.8410909201591039
    Molecular point group: c1
  Basis Set: 6-31G*
  Basis Set:
  Basis Set: 6-31G*
  Basis Set:
  @DF-RHF Final Energy:  -344.88591473541425
    Total Energy =                       -344.8859147354140191
  Basis Set: 6-31G*
  Basis Set:
  Basis Set: 6-31G*
  Basis Set:
  @DF-RHF Final Energy:  -344.89629582581239
    Total Energy =                       -344.8962958258122171
  Basis Set: 6-31G*
  Basis Set:
  Basis Set: 6-31G*
  Basis Set:
  @DF-RHF Final Energy:  -344.89815953617472
    Total Energy =                       -344.8981595361750578
  Basis Set: 6-31G*
  Basis Set:
  @DF-RHF Final Energy:  -344.90096674916094
    Total Energy =                       -344.9009667491608297
  @DF-RHF Final Energy:  -344.90191983716198
    Total Energy =                       -344.9019198371619268
  Basis Set: 6-31G*
  Basis Set:
  @DF-RHF Final Energy:  -344.90201110193925
    Total Energy =                       -344.9020111019393653
  Basis Set: 6-31G*
  Basis Set:
  Basis Set: 6-31G*
  Basis Set:
  @DF-RHF Final Energy:  -344.90203804531251
    Total Energy =                       -344.9020380453125085
  Basis Set: 6-31G*
  Basis Set:
  Basis Set: 6-31G*
  Basis Set:
  @DF-RHF Final Energy:  -344.90204324802005
    Total Energy =                       -344.9020432480198224
  Basis Set: 6-31G*
  Basis Set:
  Charge       = 0
  Multiplicity = 1
  Basis Set: 6-31G*
  Basis Set:

    Orbital Energies (a.u.)
    -----------------------

    Doubly Occupied:

       1A    -20.598347     2A    -20.541414     3A    -11.372408
       4A    -11.290587     5A    -11.235221     6A    -11.216534
       7A    -11.214075     8A     -1.461213     9A     -1.361563
      10A     -1.067671    11A     -1.028155    12A     -0.919385
      13A     -0.858400    14A     -0.743250    15A     -0.694458
      16A     -0.679708    17A     -0.666884    18A     -0.627976
      19A     -0.604560    20A     -0.566252    21A     -0.546143
      22A     -0.529530    23A     -0.521178    24A     -0.516991
      25A     -0.493609    26A     -0.491328    27A     -0.445088
      28A     -0.428055

  @DF-RHF Final Energy:  -344.90204379436705

   => Energetics <=

    Nuclear Repulsion Energy =            318.8371743665838949
    One-Electron Energy =               -1102.0384703574341074
    Two-Electron Energy =                 438.2992521964830530
    DFT Exchange-Correlation Energy =       0.0000000000000000
    Empirical Dispersion Energy =           0.0000000000000000
    PCM Polarization Energy =               0.0000000000000000
    EFP Energy =                            0.0000000000000000
    Total Energy =                       -344.9020437943671595
    Molecular point group: c1
  Basis Set: 6-31G*
  Basis Set:

  -Total Gradient:
     Atom            X                  Y                   Z
    ------   -----------------  -----------------  -----------------
       1        0.000027241912    -0.000000747222    -0.000010500757
       2       -0.000855541230    -0.001543317866     0.004718640609
       3       -0.000005444001    -0.000004407445     0.000002557139
       4        0.001915979608     0.003107585836    -0.006622082611
       5        0.000004701224     0.000002975903    -0.000001952513
       6       -0.000000128103     0.000004622238    -0.000005859241
       7       -0.000000226173    -0.000001384648    -0.000006314656
       8        0.000001213844     0.000001477879    -0.000000559676
       9        0.000002859615    -0.000004192719     0.000000275640
      10       -0.000001329229     0.000001433981     0.000003825917
      11       -0.003978713859    -0.005090598396    -0.000714525718
      12       -0.000042819038    -0.000019605203    -0.000012394345
      13        0.002930009551     0.003530096468     0.002632364823
      14       -0.000001743291     0.000026115553    -0.000004461385
      15        0.000002018664     0.000016873199     0.000027227465
      16        0.000015771637    -0.000015099348    -0.000009250477
      17       -0.000013851134    -0.000011828209     0.000003009786

  **** Optimization is complete! (in 10 steps) ****
    Final optimized geometry and variables:
    Molecular point group: c1

    Geometry (in Angstrom), charge = 0, multiplicity = 1:

    O           -0.673184237155    -0.748008780578    -0.672422993663
    C            0.264013712214    -0.230455430473    -0.156520019142
    C            1.588296664410    -0.914110469455     0.099437853926
    O            0.309721200007     1.027673274517     0.254334256060
    C            1.632816443196    -2.345638979967    -0.419627225861
    H            1.770286078349    -0.877091098774     1.169575468675
    H            2.363633889642    -0.304395873565    -0.353985006331
    H            0.867970428801    -2.953903434851     0.047468388631
    H            2.599792417399    -2.790005662831    -0.208579127026
    H            1.469131878734    -2.377554181366    -1.490035512475
    C           -0.819738356905     1.901098057939     0.330832844265
    C           -2.188834369507     1.282421827407     0.560938561659
    H           -0.797103234883     2.535595707529    -0.546455823203
    H           -0.575237625677     2.536278689330     1.171699764766
    H           -2.558935955428     0.750256082429    -0.299876498878
    H           -2.873246070320     2.092008517630     0.798738213973
    H           -2.172117597166     0.601978478091     1.404749493270

  Mulliken Charges: (a.u.)
   Center  Symbol    Alpha    Beta     Spin     Total
       1     O     4.28584  4.28584  0.00000 -0.57167
       2     C     2.60437  2.60437  0.00000  0.79126
       3     C     3.20411  3.20411  0.00000 -0.40822
       4     O     4.32147  4.32147  0.00000 -0.64295
       5     C     3.23856  3.23856  0.00000 -0.47711
       6     H     0.40231  0.40231  0.00000  0.19537
       7     H     0.40076  0.40076  0.00000  0.19849
       8     H     0.41024  0.41024  0.00000  0.17952
       9     H     0.41881  0.41881  0.00000  0.16239
      10     H     0.41066  0.41066  0.00000  0.17868
      11     C     2.99289  2.99289  0.00000  0.01423
      12     C     3.25758  3.25758  0.00000 -0.51516
      13     H     0.41379  0.41379  0.00000  0.17242
      14     H     0.41165  0.41165  0.00000  0.17670
      15     H     0.39260  0.39260  0.00000  0.21480
      16     H     0.42017  0.42017  0.00000  0.15966
      17     H     0.41421  0.41421  0.00000  0.17159

   Total alpha = 28.00000, Total beta = 28.00000, Total charge = -0.00000
