  ==> Input File <==

--------------------------------------------------------------------------
set {
	reference rhf
	basis 6-31G*
}

set_num_threads( 4 )
memory 2 gb

molecule MOL {
0 1

O	 3.005264	 0.717056	 -0.988654
C	 2.701189	 0.057885	 -0.047330
C	 1.557611	 0.344411	 0.895496
O	 3.347903	 -1.046386	 0.304773
C	 0.773921	 1.601208	 0.523463
H	 0.927511	 -0.538752	 0.909197
H	 1.976068	 0.426036	 1.895460
C	 -0.323913	 1.964246	 1.529176
H	 0.340721	 1.474481	 -0.464159
H	 1.468594	 2.430127	 0.441331
C	 -1.479420	 0.962780	 1.612722
H	 -0.725935	 2.936176	 1.252674
H	 0.116711	 2.090396	 2.517076
C	 -2.599885	 1.423780	 2.547087
H	 -1.886263	 0.802069	 0.615491
H	 -1.113932	 -0.003479	 1.952918
C	 -3.757582	 0.428402	 2.642441
H	 -2.980602	 2.384817	 2.205477
H	 -2.191578	 1.594984	 3.541910
C	 -4.874028	 0.898021	 3.574485
H	 -4.166115	 0.255409	 1.649055
H	 -3.379719	 -0.531623	 2.987916
H	 -5.679609	 0.171750	 3.621138
H	 -5.297022	 1.839710	 3.236115
H	 -4.504333	 1.047174	 4.585105
C	 4.728119	 -1.109107	 -0.004993
H	 4.882018	 -1.033965	 -1.071845
H	 5.068212	 -2.067527	 0.355250
H	 5.265056	 -0.311663	 0.488280

	symmetry c1
}
set optking {
	frozen_dihedral = ("
		1 2 4 26
	")
}

ee = optimize('scf')
oeprop('DIPOLE', 'QUADRUPOLE', 'MULLIKEN_CHARGES')
f=open( 'psi4out.xyz', 'w' )
f.write( "29  " )
f.write( str(ee) + "\n" )
f.write( MOL.save_string_xyz() )
f.close()
--------------------------------------------------------------------------

    Molecular point group: c1
  Charge       = 0
  Multiplicity = 1
  Basis Set: 6-31G*
  Basis Set:
  @DF-RHF Final Energy:  -501.03887439083439
    Total Energy =                       -501.0388743908335982
    Molecular point group: c1
  Basis Set: 6-31G*
  Basis Set:
  Basis Set: 6-31G*
  Basis Set:
  @DF-RHF Final Energy:  -501.03550444155803
    Total Energy =                       -501.0355044415581460
  Basis Set: 6-31G*
  Basis Set:
  Basis Set: 6-31G*
  Basis Set:
  @DF-RHF Final Energy:  -501.03929633350469
    Total Energy =                       -501.0392963335052627
  Basis Set: 6-31G*
  Basis Set:
  Basis Set: 6-31G*
  Basis Set:
  @DF-RHF Final Energy:  -501.03936302049510
    Total Energy =                       -501.0393630204945339
  Basis Set: 6-31G*
  Basis Set:
  Basis Set: 6-31G*
  Basis Set:
  @DF-RHF Final Energy:  -501.03937204911949
    Total Energy =                       -501.0393720491191516
  Basis Set: 6-31G*
  Basis Set:
  Charge       = 0
  Multiplicity = 1
  Basis Set: 6-31G*
  Basis Set:

    Orbital Energies (a.u.)
    -----------------------

    Doubly Occupied:

       1A    -20.598981     2A    -20.547589     3A    -11.372698
       4A    -11.282828     5A    -11.235002     6A    -11.219214
       7A    -11.217825     8A    -11.215975     9A    -11.215807
      10A    -11.214473    11A    -11.209047    12A     -1.466038
      13A     -1.363371    14A     -1.098123    15A     -1.066609
      16A     -1.018650    17A     -0.976790    18A     -0.929661
      19A     -0.862256    20A     -0.799633    21A     -0.790693
      22A     -0.763151    23A     -0.700136    24A     -0.679627
      25A     -0.672670    26A     -0.650580    27A     -0.628458
      28A     -0.606912    29A     -0.594703    30A     -0.583245
      31A     -0.565196    32A     -0.552748    33A     -0.532657
      34A     -0.529648    35A     -0.518265    36A     -0.510049
      37A     -0.494846    38A     -0.477930    39A     -0.470807
      40A     -0.462529    41A     -0.459793    42A     -0.453928
      43A     -0.440999    44A     -0.434215

  @DF-RHF Final Energy:  -501.03937182426171

   => Energetics <=

    Nuclear Repulsion Energy =            610.0664067346408501
    One-Electron Energy =               -1891.2428484084437059
    Two-Electron Energy =                 780.1370698495411489
    DFT Exchange-Correlation Energy =       0.0000000000000000
    Empirical Dispersion Energy =           0.0000000000000000
    PCM Polarization Energy =               0.0000000000000000
    EFP Energy =                            0.0000000000000000
    Total Energy =                       -501.0393718242617069
    Molecular point group: c1
  Basis Set: 6-31G*
  Basis Set:

  -Total Gradient:
     Atom            X                  Y                   Z
    ------   -----------------  -----------------  -----------------
       1       -0.005921832612    -0.004219462284    -0.005124695336
       2        0.009703799985     0.007458757795     0.010686286851
       3        0.000000245797    -0.000039701749    -0.000092074243
       4       -0.005609175055    -0.005691670118    -0.011782330458
       5        0.000085925435     0.000031417394     0.000108430263
       6       -0.000100127080    -0.000026841527     0.000008018716
       7       -0.000003053800    -0.000020118912    -0.000021851079
       8       -0.000035123157     0.000051974190    -0.000041178183
       9        0.000006275343     0.000018222610     0.000002361154
      10        0.000018596517    -0.000018178696     0.000013489189
      11        0.000011199705    -0.000016180774    -0.000020729755
      12       -0.000030669999    -0.000018923919    -0.000020556197
      13       -0.000009119399     0.000051101975    -0.000014258721
      14        0.000010488162    -0.000019395316     0.000025671953
      15       -0.000015452187     0.000025456114     0.000012401835
      16        0.000054653460    -0.000054863690    -0.000033946162
      17        0.000006476862    -0.000007324196     0.000010697154
      18        0.000002831692    -0.000010869124    -0.000012003447
      19       -0.000003026482     0.000012830942     0.000006661565
      20        0.000003662903    -0.000002639125     0.000005408714
      21        0.000001065818     0.000004873660    -0.000000334944
      22       -0.000002757346    -0.000002968541    -0.000002582472
      23        0.000000604127    -0.000000534075     0.000000821678
      24        0.000000373419    -0.000000740758    -0.000001358459
      25       -0.000000992132     0.000001173487     0.000000645880
      26        0.001793000768     0.002565520216     0.006419610862
      27       -0.000013507481     0.000016702635    -0.000032357940
      28        0.000008309955    -0.000039438003    -0.000002065408
      29        0.000037326783    -0.000048180206    -0.000098183004

  **** Optimization is complete! (in 6 steps) ****
    Final optimized geometry and variables:
    Molecular point group: c1

    Geometry (in Angstrom), charge = 0, multiplicity = 1:

    O            2.756100326725     0.245870295970    -2.043981912217
    C            2.417585404881    -0.435046413838    -1.132250161900
    C            1.253900723878    -0.155701276652    -0.213364397426
    O            2.988345892175    -1.605762562060    -0.847676695470
    C            0.454174139909     1.082760272536    -0.610786729811
    H            0.641126720909    -1.050649853031    -0.195567097674
    H            1.657301972665    -0.053994404058     0.791821913505
    C           -0.662165006039     1.440426232716     0.376255438123
    H            0.034969778962     0.934916434573    -1.601735632674
    H            1.135764448230     1.921989296297    -0.696300817277
    C           -1.794024036239     0.413183648618     0.469899663111
    H           -1.084425194193     2.396513088489     0.075737628362
    H           -0.234479535707     1.597553810719     1.365453377459
    C           -2.929904580754     0.861785602870     1.391595509800
    H           -2.191721178572     0.227323694910    -0.526614172320
    H           -1.407351341778    -0.538697411011     0.826788987542
    C           -4.062838804048    -0.160483647212     1.499032440292
    H           -3.332875917764     1.807098712463     1.032110671347
    H           -2.530600357980     1.059948466841     2.385088317181
    C           -5.194206090677     0.296082120985     2.419501628064
    H           -4.463079883977    -0.359561049617     0.507175406518
    H           -3.662551457864    -1.105111291277     1.861261553921
    H           -5.981495177872    -0.449346981150     2.475319249927
    H           -5.639386425699     1.221209823132     2.064329484755
    H           -4.832202652838     0.470921255046     3.428796246483
    C            4.355384827945    -1.754536913977    -1.186310041721
    H            4.492759694462    -1.733702533163    -2.257426984071
    H            4.657908735001    -2.711604242705    -0.790599491743
    H            4.942798336650    -0.965965410689    -0.735019699012

  Mulliken Charges: (a.u.)
   Center  Symbol    Alpha    Beta     Spin     Total
       1     O     4.27941  4.27941  0.00000 -0.55882
       2     C     2.60449  2.60449  0.00000  0.79102
       3     C     3.21177  3.21177  0.00000 -0.42353
       4     O     4.30991  4.30991  0.00000 -0.61981
       5     C     3.15405  3.15405  0.00000 -0.30810
       6     H     0.39705  0.39705  0.00000  0.20590
       7     H     0.40360  0.40360  0.00000  0.19280
       8     C     3.15653  3.15653  0.00000 -0.31306
       9     H     0.41327  0.41327  0.00000  0.17346
      10     H     0.40837  0.40837  0.00000  0.18327
      11     C     3.15515  3.15515  0.00000 -0.31030
      12     H     0.41819  0.41819  0.00000  0.16361
      13     H     0.42417  0.42417  0.00000  0.15165
      14     C     3.15027  3.15027  0.00000 -0.30053
      15     H     0.42241  0.42241  0.00000  0.15518
      16     H     0.42347  0.42347  0.00000  0.15306
      17     C     3.15146  3.15146  0.00000 -0.30293
      18     H     0.42333  0.42333  0.00000  0.15334
      19     H     0.42412  0.42412  0.00000  0.15176
      20     C     3.23935  3.23935  0.00000 -0.47870
      21     H     0.42269  0.42269  0.00000  0.15461
      22     H     0.42339  0.42339  0.00000  0.15323
      23     H     0.41919  0.41919  0.00000  0.16161
      24     H     0.42155  0.42155  0.00000  0.15689
      25     H     0.42190  0.42190  0.00000  0.15620
      26     C     3.09324  3.09324  0.00000 -0.18649
      27     H     0.40501  0.40501  0.00000  0.18998
      28     H     0.40750  0.40750  0.00000  0.18499
      29     H     0.41516  0.41516  0.00000  0.16969

   Total alpha = 44.00000, Total beta = 44.00000, Total charge =  0.00000
