  ==> Input File <==

--------------------------------------------------------------------------
set {
	reference rhf
	basis 6-31G*
}

set_num_threads( 4 )
memory 2 gb

molecule MOL {
0 1

H	 1.500066	 -1.325513	 -0.693654
O	 1.586534	 -0.678666	 -0.000226
C	 0.489431	 0.077273	 0.000046
C	 -0.764129	 -0.759190	 0.000191
O	 0.537743	 1.263962	 0.000257
C	 -2.038368	 0.075731	 -0.000248
H	 -0.717284	 -1.412404	 -0.866059
H	 -0.717458	 -1.411724	 0.866967
H	 -2.086483	 0.712501	 -0.875098
H	 -2.908485	 -0.571682	 -0.000042
H	 -2.086576	 0.713280	 0.874068

	symmetry c1
}
set optking {
	frozen_dihedral = ("
		1 2 3 5
	")
}

ee = optimize('scf')
oeprop('DIPOLE', 'QUADRUPOLE', 'MULLIKEN_CHARGES')
f=open( 'psi4out.xyz', 'w' )
f.write( "11  " )
f.write( str(ee) + "\n" )
f.write( MOL.save_string_xyz() )
f.close()
--------------------------------------------------------------------------

    Molecular point group: c1
  Charge       = 0
  Multiplicity = 1
  Basis Set: 6-31G*
  Basis Set:
  @DF-RHF Final Energy:  -266.82658854640425
    Total Energy =                       -266.8265885464040821
    Molecular point group: c1
  Basis Set: 6-31G*
  Basis Set:
  Basis Set: 6-31G*
  Basis Set:
  @DF-RHF Final Energy:  -266.82803183774337
    Total Energy =                       -266.8280318377431968
  Basis Set: 6-31G*
  Basis Set:
  Basis Set: 6-31G*
  Basis Set:
  @DF-RHF Final Energy:  -266.82815675805904
    Total Energy =                       -266.8281567580589808
  Basis Set: 6-31G*
  Basis Set:
  Basis Set: 6-31G*
  Basis Set:
  @DF-RHF Final Energy:  -266.82805382432610
    Total Energy =                       -266.8280538243260480
  Basis Set: 6-31G*
  Basis Set:
  Basis Set: 6-31G*
  Basis Set:
  @DF-RHF Final Energy:  -266.82817128611993
    Total Energy =                       -266.8281712861201527
  Basis Set: 6-31G*
  Basis Set:
  Basis Set: 6-31G*
  Basis Set:
  @DF-RHF Final Energy:  -266.82817231415845
    Total Energy =                       -266.8281723141586212
  Basis Set: 6-31G*
  Basis Set:
  Charge       = 0
  Multiplicity = 1
  Basis Set: 6-31G*
  Basis Set:

    Orbital Energies (a.u.)
    -----------------------

    Doubly Occupied:

       1A    -20.603154     2A    -20.557667     3A    -11.382052
       4A    -11.252361     5A    -11.224871     6A     -1.464092
       7A     -1.371003     8A     -1.067208     9A     -0.908622
      10A     -0.819576    11A     -0.716654    12A     -0.669499
      13A     -0.658002    14A     -0.616328    15A     -0.578745
      16A     -0.532536    17A     -0.522201    18A     -0.508758
      19A     -0.484637    20A     -0.444843

  @DF-RHF Final Energy:  -266.82817249044223

   => Energetics <=

    Nuclear Repulsion Energy =            179.2645621665219551
    One-Electron Energy =                -719.4198529215902909
    Two-Electron Energy =                 273.3271182646259945
    DFT Exchange-Correlation Energy =       0.0000000000000000
    Empirical Dispersion Energy =           0.0000000000000000
    PCM Polarization Energy =               0.0000000000000000
    EFP Energy =                            0.0000000000000000
    Total Energy =                       -266.8281724904423413
    Molecular point group: c1
  Basis Set: 6-31G*
  Basis Set:

  -Total Gradient:
     Atom            X                  Y                   Z
    ------   -----------------  -----------------  -----------------
       1        0.002739162960     0.004425675330    -0.004225192255
       2       -0.003454417236    -0.005535614046     0.002732828501
       3        0.000723709779     0.001002844476     0.007312936707
       4        0.000020451560    -0.000007598364     0.000028283113
       5       -0.000028798814     0.000110706486    -0.005832370823
       6       -0.000005410412     0.000002155387    -0.000003886922
       7        0.000002943776     0.000004982821    -0.000011137507
       8       -0.000004031848    -0.000004542313    -0.000007477373
       9        0.000002081842    -0.000001047959    -0.000000429214
      10        0.000005751895     0.000000264826     0.000001677317
      11       -0.000001443505     0.000002173358     0.000004768456

  **** Optimization is complete! (in 7 steps) ****
    Final optimized geometry and variables:
    Molecular point group: c1

    Geometry (in Angstrom), charge = 0, multiplicity = 1:

    H            1.623975341089    -1.297471260758    -0.704331939860
    O            1.636357067221    -0.646571542088    -0.014325378744
    C            0.498118776469     0.082057024663     0.008452699398
    C           -0.771778271654    -0.741188240639     0.012266729444
    O            0.535403086201     1.260753153108     0.035559889219
    C           -2.039007025187     0.104319645350     0.005895332654
    H           -0.748717836989    -1.406383092486    -0.849422634009
    H           -0.732303770527    -1.387011112901     0.885121882863
    H           -2.083146829965     0.732870101417    -0.875113765221
    H           -2.915566507644    -0.534213132844     0.016149207954
    H           -2.075125977692     0.750746953249     0.873692751934

  Mulliken Charges: (a.u.)
   Center  Symbol    Alpha    Beta     Spin     Total
       1     H     0.26906  0.26906  0.00000  0.46188
       2     O     4.36024  4.36024  0.00000 -0.72047
       3     C     2.62178  2.62178  0.00000  0.75643
       4     C     3.21899  3.21899  0.00000 -0.43797
       5     O     4.25062  4.25062  0.00000 -0.50124
       6     C     3.23811  3.23811  0.00000 -0.47622
       7     H     0.41291  0.41291  0.00000  0.17417
       8     H     0.39660  0.39660  0.00000  0.20680
       9     H     0.40904  0.40904  0.00000  0.18193
      10     H     0.41687  0.41687  0.00000  0.16626
      11     H     0.40578  0.40578  0.00000  0.18844

   Total alpha = 20.00000, Total beta = 20.00000, Total charge =  0.00000
