  ==> Input File <==

--------------------------------------------------------------------------
set {
	reference rhf
	basis 6-31G*
}

set_num_threads( 4 )
memory 2 gb

molecule MOL {
0 1

H	 -1.515952	 0.190181	 4.028123
C	 -2.084756	 -0.407361	 3.304916
C	 -2.345269	 0.269875	 1.983517
O	 -2.447612	 -1.502483	 3.589161
C	 -1.063649	 0.816842	 1.339674
H	 -2.849571	 -0.434175	 1.331826
H	 -3.029454	 1.095275	 2.176549
C	 -0.086360	 -0.276634	 0.900909
H	 -1.340877	 1.419169	 0.479656
H	 -0.569714	 1.492881	 2.035919
C	 1.180775	 0.282413	 0.250794
H	 -0.588522	 -0.943731	 0.203297
H	 0.190292	 -0.889455	 1.756744
C	 2.148627	 -0.814315	 -0.201312
H	 0.897851	 0.901707	 -0.596650
H	 1.687453	 0.940305	 0.955662
C	 3.580890	 -0.659131	 0.322722
H	 2.166869	 -0.852443	 -1.289387
H	 1.762857	 -1.776509	 0.128956
C	 4.324889	 0.564933	 -0.213704
H	 4.142010	 -1.551473	 0.056605
H	 3.564836	 -0.624694	 1.410140
H	 4.342616	 0.565491	 -1.300421
H	 3.866655	 1.493402	 0.110242
H	 5.353900	 0.572371	 0.132816

	symmetry c1
}
set optking {
	frozen_dihedral = ("
		8 11 14 18
	")
}

ee = optimize('scf')
oeprop('DIPOLE', 'QUADRUPOLE', 'MULLIKEN_CHARGES')
f=open( 'psi4out.xyz', 'w' )
f.write( "25  " )
f.write( str(ee) + "\n" )
f.write( MOL.save_string_xyz() )
f.close()
--------------------------------------------------------------------------

    Molecular point group: c1
  Charge       = 0
  Multiplicity = 1
  Basis Set: 6-31G*
  Basis Set:
  @DF-RHF Final Energy:  -387.11704729184066
    Total Energy =                       -387.1170472918412315
    Molecular point group: c1
  Basis Set: 6-31G*
  Basis Set:
  Basis Set: 6-31G*
  Basis Set:
  @DF-RHF Final Energy:  -387.11715593408513
    Total Energy =                       -387.1171559340850763
  Basis Set: 6-31G*
  Basis Set:
  Basis Set: 6-31G*
  Basis Set:
  @DF-RHF Final Energy:  -387.11732404080686
    Total Energy =                       -387.1173240408062384
  Basis Set: 6-31G*
  Basis Set:
  Basis Set: 6-31G*
  Basis Set:
  @DF-RHF Final Energy:  -387.11742562851811
    Total Energy =                       -387.1174256285180491
  Basis Set: 6-31G*
  Basis Set:
  Basis Set: 6-31G*
  Basis Set:
  @DF-RHF Final Energy:  -387.11744810765475
    Total Energy =                       -387.1174481076546954
  Basis Set: 6-31G*
  Basis Set:
  Basis Set: 6-31G*
  Basis Set:
  @DF-RHF Final Energy:  -387.11745577418679
    Total Energy =                       -387.1174557741867375
  Basis Set: 6-31G*
  Basis Set:
  Charge       = 0
  Multiplicity = 1
  Basis Set: 6-31G*
  Basis Set:

    Orbital Energies (a.u.)
    -----------------------

    Doubly Occupied:

       1A    -20.562105     2A    -11.326269     3A    -11.235303
       4A    -11.234709     5A    -11.224377     6A    -11.220020
       7A    -11.217882     8A    -11.216645     9A    -11.210529
      10A     -1.402043    11A     -1.103258    12A     -1.069070
      13A     -1.012637    14A     -0.941111    15A     -0.875172
      16A     -0.822719    17A     -0.787983    18A     -0.780745
      19A     -0.665248    20A     -0.659310    21A     -0.633811
      22A     -0.623994    23A     -0.605025    24A     -0.591596
      25A     -0.574006    26A     -0.553590    27A     -0.532741
      28A     -0.523073    29A     -0.512193    30A     -0.494042
      31A     -0.490023    32A     -0.482354    33A     -0.460036
      34A     -0.457708    35A     -0.441513    36A     -0.409640

  @DF-RHF Final Energy:  -387.11745652207128

   => Energetics <=

    Nuclear Repulsion Energy =            440.4694075288972499
    One-Electron Energy =               -1397.2687653638804477
    Two-Electron Energy =                 569.6819013129107816
    DFT Exchange-Correlation Energy =       0.0000000000000000
    Empirical Dispersion Energy =           0.0000000000000000
    PCM Polarization Energy =               0.0000000000000000
    EFP Energy =                            0.0000000000000000
    Total Energy =                       -387.1174565220724162
    Molecular point group: c1
  Basis Set: 6-31G*
  Basis Set:

  -Total Gradient:
     Atom            X                  Y                   Z
    ------   -----------------  -----------------  -----------------
       1        0.000042067002    -0.000025583185    -0.000017648870
       2       -0.000121567167    -0.000001194168     0.000013292097
       3        0.000051356938    -0.000002357014     0.000017817034
       4        0.000053063853    -0.000031780810     0.000008820867
       5       -0.000041897190    -0.000018093533    -0.000102466454
       6       -0.000022166009     0.000035128462     0.000000681597
       7        0.000005570474    -0.000009383800     0.000044589713
       8        0.000715970649     0.000031099491     0.001610131092
       9        0.000043620479    -0.000009821634    -0.000028663024
      10       -0.000000798872     0.000032675640    -0.000018408048
      11       -0.000579637977     0.000365887109    -0.002146309950
      12       -0.000018334416     0.000003454440    -0.000008853387
      13       -0.000028445016    -0.000002340402     0.000014418535
      14       -0.001915100846    -0.001969151713     0.000526037701
      15        0.000033126738     0.000046334068     0.000036518785
      16        0.000010665283     0.000046836401    -0.000008433179
      17        0.000060682537    -0.000006435684     0.000021671691
      18        0.001723774697     0.001519636178     0.000002297210
      19        0.000051364847    -0.000000185093    -0.000046324599
      20       -0.000008029074    -0.000070682569    -0.000001988192
      21        0.000020929163     0.000023287199     0.000035817824
      22        0.000015225490     0.000032558152     0.000017291094
      23       -0.000044214231     0.000001069856     0.000013056530
      24       -0.000058853946     0.000031088269     0.000039724308
      25        0.000011626601    -0.000022045657    -0.000023070368

  **** Optimization is complete! (in 7 steps) ****
    Final optimized geometry and variables:
    Molecular point group: c1

    Geometry (in Angstrom), charge = 0, multiplicity = 1:

    H           -1.897730748525     0.356655135259     2.774360263606
    C           -2.467536227930    -0.222358335942     2.036869712888
    C           -2.713892608114     0.481463019629     0.726595373561
    O           -2.845991979343    -1.317276481639     2.301066490748
    C           -1.422262637367     1.021994610023     0.096969332056
    H           -3.224830625831    -0.204473386974     0.060856737643
    H           -3.387820878533     1.312346270340     0.931330850645
    C           -0.454412517021    -0.076151131744    -0.349170553430
    H           -1.687012133167     1.638510677012    -0.757188840683
    H           -0.925112535131     1.683638109336     0.804585117805
    C            0.825309132880     0.475878771529    -0.982359332026
    H           -0.959591857810    -0.729835668458    -1.057591933187
    H           -0.186768857100    -0.702640614883     0.499787683705
    C            1.800524447906    -0.629606833069    -1.446699121461
    H            0.563956316892     1.123502818134    -1.814973925212
    H            1.316873800603     1.115263784700    -0.252283938594
    C            3.234883247519    -0.459400361307    -0.931282788056
    H            1.833729708348    -0.658729881070    -2.533080164288
    H            1.430237820961    -1.598998801741    -1.124821871722
    C            3.955183074578     0.760489956801    -1.507197699911
    H            3.804694735408    -1.351915761311    -1.177633952009
    H            3.222093661294    -0.396073464535     0.155111443071
    H            4.012942794426     0.700381867447    -2.590615058395
    H            3.446472110914     1.686181320965    -1.255823471636
    H            4.969221210765     0.830601406759    -1.125850325622

  Mulliken Charges: (a.u.)
   Center  Symbol    Alpha    Beta     Spin     Total
       1     H     0.43264  0.43264  0.00000  0.13472
       2     C     2.83087  2.83087  0.00000  0.33827
       3     C     3.20806  3.20806  0.00000 -0.41611
       4     O     4.23777  4.23777  0.00000 -0.47554
       5     C     3.16721  3.16721  0.00000 -0.33442
       6     H     0.39969  0.39969  0.00000  0.20063
       7     H     0.40664  0.40664  0.00000  0.18672
       8     C     3.15728  3.15728  0.00000 -0.31457
       9     H     0.41271  0.41271  0.00000  0.17459
      10     H     0.41970  0.41970  0.00000  0.16060
      11     C     3.15533  3.15533  0.00000 -0.31066
      12     H     0.41757  0.41757  0.00000  0.16487
      13     H     0.41818  0.41818  0.00000  0.16364
      14     C     3.15701  3.15701  0.00000 -0.31403
      15     H     0.41980  0.41980  0.00000  0.16041
      16     H     0.42140  0.42140  0.00000  0.15719
      17     C     3.15408  3.15408  0.00000 -0.30816
      18     H     0.42081  0.42081  0.00000  0.15838
      19     H     0.41697  0.41697  0.00000  0.16606
      20     C     3.24085  3.24085  0.00000 -0.48171
      21     H     0.42062  0.42062  0.00000  0.15876
      22     H     0.42357  0.42357  0.00000  0.15286
      23     H     0.42190  0.42190  0.00000  0.15620
      24     H     0.42057  0.42057  0.00000  0.15885
      25     H     0.41877  0.41877  0.00000  0.16247

   Total alpha = 36.00000, Total beta = 36.00000, Total charge =  0.00000
