  ==> Input File <==

--------------------------------------------------------------------------
set {
	reference rhf
	basis cc-pvtz
}

set_num_threads( 4 )
memory 2 gb

molecule MOL {
0 1

H	 -3.091860	 0.355875	 -1.572812
C	 -2.084821	 0.173411	 -1.252353
C	 -1.706687	 -1.081940	 -0.797445
C	 -1.146930	 1.178971	 -1.285279
H	 -2.424996	 -1.879114	 -0.764605
C	 -0.417520	 -1.320093	 -0.385919
H	 -1.420688	 2.156773	 -1.634060
C	 0.159519	 0.955622	 -0.873310
H	 -0.115149	 -2.286284	 -0.032767
C	 0.526124	 -0.298870	 -0.421724
H	 0.865595	 1.759041	 -0.911178
O	 1.760432	 -0.625184	 0.000000
C	 2.773565	 0.334879	 0.000000
H	 2.728295	 0.960928	 -0.884150
H	 3.706387	 -0.206610	 0.000000
H	 2.728295	 0.960928	 0.884150

	symmetry c1
}
set optking {
	frozen_dihedral = ("
		10 12 13 14
	")
}

ee = optimize('scf')
oeprop('DIPOLE', 'QUADRUPOLE', 'MULLIKEN_CHARGES')
f=open( 'psi4out.xyz', 'w' )
f.write( "16  " )
f.write( str(ee) + "\n" )
f.write( MOL.save_string_xyz() )
f.close()
--------------------------------------------------------------------------

    Molecular point group: c1
  Charge       = 0
  Multiplicity = 1
  Basis Set: CC-PVTZ
  Basis Set:
  @DF-RHF Final Energy:  -344.70182447113262
    Total Energy =                       -344.7018244711326247
    Molecular point group: c1
  Basis Set: CC-PVTZ
  Basis Set:
  Basis Set: CC-PVTZ
  Basis Set:
  @DF-RHF Final Energy:  -344.70224279210674
    Total Energy =                       -344.7022427921068584
  Basis Set: CC-PVTZ
  Basis Set:
  Basis Set: CC-PVTZ
  Basis Set:
  @DF-RHF Final Energy:  -344.70271620432118
    Total Energy =                       -344.7027162043209501
  Basis Set: CC-PVTZ
  Basis Set:
  Basis Set: CC-PVTZ
  Basis Set:
  @DF-RHF Final Energy:  -344.70276418203429
    Total Energy =                       -344.7027641820340023
  Basis Set: CC-PVTZ
  Basis Set:
  Basis Set: CC-PVTZ
  Basis Set:
  @DF-RHF Final Energy:  -344.70276743763861
    Total Energy =                       -344.7027674376384994
  Basis Set: CC-PVTZ
  Basis Set:
  Charge       = 0
  Multiplicity = 1
  Basis Set: CC-PVTZ
  Basis Set:

    Orbital Energies (a.u.)
    -----------------------

    Doubly Occupied:

       1A    -20.579047     2A    -11.293452     3A    -11.278292
       4A    -11.231329     5A    -11.230032     6A    -11.222011
       7A    -11.218097     8A    -11.217195     9A     -1.418398
      10A     -1.151014    11A     -1.025409    12A     -1.016759
      13A     -0.943885    14A     -0.834844    15A     -0.808449
      16A     -0.725798    17A     -0.667812    18A     -0.666499
      19A     -0.658867    20A     -0.619230    21A     -0.590769
      22A     -0.580875    23A     -0.527775    24A     -0.522735
      25A     -0.512456    26A     -0.480809    27A     -0.464313
      28A     -0.339737    29A     -0.310520

  @DF-RHF Final Energy:  -344.70276785570201

   => Energetics <=

    Nuclear Repulsion Energy =            348.8067507898027202
    One-Electron Energy =               -1158.7462229417205890
    Two-Electron Energy =                 465.2367042962157484
    DFT Exchange-Correlation Energy =       0.0000000000000000
    Empirical Dispersion Energy =           0.0000000000000000
    PCM Polarization Energy =               0.0000000000000000
    EFP Energy =                            0.0000000000000000
    Total Energy =                       -344.7027678557021773
    Molecular point group: c1
  Basis Set: CC-PVTZ
  Basis Set:

  -Total Gradient:
     Atom            X                  Y                   Z
    ------   -----------------  -----------------  -----------------
       1       -0.000005677375    -0.000013212745     0.000006192815
       2        0.000047040047     0.000097076995    -0.000038355865
       3        0.000069508862    -0.000077858125     0.000075168319
       4       -0.000101831269    -0.000027342519    -0.000002396434
       5       -0.000005519435     0.000002201275    -0.000010034237
       6       -0.000142353225    -0.000008189099     0.000001354138
       7        0.000012489836    -0.000000224892     0.000004128962
       8        0.000055311922    -0.000072271290     0.000077521134
       9        0.000007358746    -0.000004291572    -0.000004286649
      10        0.000575342174    -0.000994934948    -0.002070996686
      11        0.000022695994     0.000003051588    -0.000009592799
      12       -0.001160955660     0.002159864865     0.003126110726
      13        0.002060142047    -0.003003931145    -0.001974034667
      14       -0.001455754515     0.001972882844     0.000804068041
      15        0.000003890380    -0.000004557533     0.000003505416
      16        0.000018311468    -0.000028263704     0.000011647787

  **** Optimization is complete! (in 6 steps) ****
    Final optimized geometry and variables:
    Molecular point group: c1

    Geometry (in Angstrom), charge = 0, multiplicity = 1:

    H           -3.138919928572     0.398557264876    -1.080383015669
    C           -2.144689528297     0.232832477061    -0.714007008717
    C           -1.757181562163    -1.024355425986    -0.273996269752
    C           -1.234197103982     1.263647040880    -0.669993489355
    H           -2.454791412402    -1.839957189984    -0.299975496017
    C           -0.483018334028    -1.242275032734     0.193926806223
    H           -1.517945645679     2.244873723230    -1.000661029192
    C            0.054195525573     1.061225856096    -0.197172354722
    H           -0.172750899785    -2.210420164655     0.534652057012
    C            0.433374036842    -0.197680354645     0.231587230786
    H            0.737023037790     1.885216757779    -0.161496149105
    O            1.649800142265    -0.495046688794     0.722965363160
    C            2.722932937180     0.376188210940     0.516298651030
    H            2.712954207444     0.791586564992    -0.483728378941
    H            3.624379918582    -0.197843919462     0.662989640293
    H            2.705122636493     1.193495546525     1.229796008073

  Mulliken Charges: (a.u.)
   Center  Symbol    Alpha    Beta     Spin     Total
       1     H     0.42439  0.42439  0.00000  0.15122
       2     C     3.10027  3.10027  0.00000 -0.20053
       3     C     3.05847  3.05847  0.00000 -0.11694
       4     C     3.06221  3.06221  0.00000 -0.12442
       5     H     0.42295  0.42295  0.00000  0.15409
       6     C     3.11062  3.11062  0.00000 -0.22124
       7     H     0.42337  0.42337  0.00000  0.15326
       8     C     3.14050  3.14050  0.00000 -0.28100
       9     H     0.42054  0.42054  0.00000  0.15891
      10     C     2.85268  2.85268  0.00000  0.29464
      11     H     0.42293  0.42293  0.00000  0.15414
      12     O     4.15352  4.15352  0.00000 -0.30705
      13     C     3.04361  3.04361  0.00000 -0.08721
      14     H     0.46363  0.46363  0.00000  0.07273
      15     H     0.44017  0.44017  0.00000  0.11966
      16     H     0.46013  0.46013  0.00000  0.07973

   Total alpha = 29.00000, Total beta = 29.00000, Total charge = -0.00000
