  ==> Input File <==

--------------------------------------------------------------------------
set {
	reference rhf
	basis 6-31G*
}

set_num_threads( 4 )
memory 2 gb

molecule MOL {
0 1

H	 3.729471	 -0.928294	 -0.070608
O	 2.826016	 -1.159218	 0.122261
C	 2.077727	 -0.067559	 -0.035091
C	 0.624473	 -0.343591	 0.253101
O	 2.542965	 0.974826	 -0.363729
C	 -0.265902	 0.883932	 0.072916
H	 0.324016	 -1.163849	 -0.390541
H	 0.565024	 -0.726111	 1.268924
C	 -1.728698	 0.646073	 0.462102
H	 -0.209144	 1.219470	 -0.958188
H	 0.135059	 1.692851	 0.673903
C	 -1.933463	 -0.055758	 1.807637
H	 -2.191054	 0.043809	 -0.316529
H	 -2.262759	 1.595242	 0.465784
C	 -3.404041	 -0.358987	 2.093870
H	 -1.365040	 -0.983571	 1.817684
H	 -1.536559	 0.555304	 2.614144
H	 -3.524010	 -0.854222	 3.052339
H	 -3.826241	 -1.006860	 1.331088
H	 -3.994856	 0.552424	 2.116322

	symmetry c1
}
set optking {
	frozen_dihedral = ("
		12 9 6 10
	")
}

ee = optimize('scf')
oeprop('DIPOLE', 'QUADRUPOLE', 'MULLIKEN_CHARGES')
f=open( 'psi4out.xyz', 'w' )
f.write( "20  " )
f.write( str(ee) + "\n" )
f.write( MOL.save_string_xyz() )
f.close()
--------------------------------------------------------------------------

    Molecular point group: c1
  Charge       = 0
  Multiplicity = 1
  Basis Set: 6-31G*
  Basis Set:
  @DF-RHF Final Energy:  -383.94580890775211
    Total Energy =                       -383.9458089077523937
    Molecular point group: c1
  Basis Set: 6-31G*
  Basis Set:
  Basis Set: 6-31G*
  Basis Set:
  @DF-RHF Final Energy:  -383.94683388814997
    Total Energy =                       -383.9468338881499676
  Basis Set: 6-31G*
  Basis Set:
  Basis Set: 6-31G*
  Basis Set:
  @DF-RHF Final Energy:  -383.94759058597543
    Total Energy =                       -383.9475905859753766
  Basis Set: 6-31G*
  Basis Set:
  Basis Set: 6-31G*
  Basis Set:
  @DF-RHF Final Energy:  -383.94764450655038
    Total Energy =                       -383.9476445065502617
  Basis Set: 6-31G*
  Basis Set:
  @DF-RHF Final Energy:  -383.94748578042328
    Total Energy =                       -383.9474857804232784
  Basis Set: 6-31G*
  Basis Set:
  @DF-RHF Final Energy:  -383.94766748140557
    Total Energy =                       -383.9476674814058015
  Basis Set: 6-31G*
  Basis Set:
  Basis Set: 6-31G*
  Basis Set:
  @DF-RHF Final Energy:  -383.94766862362263
    Total Energy =                       -383.9476686236225760
  Basis Set: 6-31G*
  Basis Set:
  Basis Set: 6-31G*
  Basis Set:
  @DF-RHF Final Energy:  -383.94767203612003
    Total Energy =                       -383.9476720361197408
  Basis Set: 6-31G*
  Basis Set:
  Charge       = 0
  Multiplicity = 1
  Basis Set: 6-31G*
  Basis Set:

    Orbital Energies (a.u.)
    -----------------------

    Doubly Occupied:

       1A    -20.612408     2A    -20.551560     3A    -11.381045
       4A    -11.240031     5A    -11.223089     6A    -11.221003
       7A    -11.220312     8A    -11.212630     9A     -1.474502
      10A     -1.365540    11A     -1.096217    12A     -1.040464
      13A     -0.961267    14A     -0.869256    15A     -0.818965
      16A     -0.772601    17A     -0.699508    18A     -0.689562
      19A     -0.666138    20A     -0.636718    21A     -0.599941
      22A     -0.594613    23A     -0.577593    24A     -0.554279
      25A     -0.538892    26A     -0.515564    27A     -0.496633
      28A     -0.479088    29A     -0.469973    30A     -0.465557
      31A     -0.457447    32A     -0.443846

  @DF-RHF Final Energy:  -383.94767238825517

   => Energetics <=

    Nuclear Repulsion Energy =            376.7167844392208167
    One-Electron Energy =               -1269.4364257754759819
    Two-Electron Energy =                 508.7719689480000511
    DFT Exchange-Correlation Energy =       0.0000000000000000
    Empirical Dispersion Energy =           0.0000000000000000
    PCM Polarization Energy =               0.0000000000000000
    EFP Energy =                            0.0000000000000000
    Total Energy =                       -383.9476723882550573
    Molecular point group: c1
  Basis Set: 6-31G*
  Basis Set:

  -Total Gradient:
     Atom            X                  Y                   Z
    ------   -----------------  -----------------  -----------------
       1       -0.000000642415     0.000002839677     0.000004374909
       2       -0.000008950408    -0.000000894793    -0.000004614624
       3       -0.000003330837    -0.000013179990    -0.000012236792
       4        0.000015441971    -0.000034575616    -0.000044839681
       5        0.000008857182     0.000014778491     0.000019745588
       6       -0.000536017242     0.003274640579     0.000775429977
       7        0.000006387961     0.000003979595     0.000017784038
       8        0.000008637696     0.000005879446     0.000015156212
       9       -0.000269256260     0.002718335670     0.001533619387
      10        0.000516556281    -0.003519442593    -0.001064273456
      11       -0.000003474357     0.000002571753    -0.000005523342
      12        0.000263904207    -0.002470689502    -0.001228883921
      13        0.000009341377    -0.000001754237    -0.000004368893
      14       -0.000002020096    -0.000003466569     0.000005257917
      15        0.000002923820     0.000011973068    -0.000003184829
      16       -0.000010501139     0.000005621393     0.000001722666
      17        0.000004275928     0.000001811034    -0.000006629826
      18        0.000003187038    -0.000000937559    -0.000000951642
      19       -0.000000277823     0.000001826242    -0.000000217454
      20       -0.000005042883     0.000000683912     0.000002633766

  **** Optimization is complete! (in 9 steps) ****
    Final optimized geometry and variables:
    Molecular point group: c1

    Geometry (in Angstrom), charge = 0, multiplicity = 1:

    H            3.628148874384    -0.912282255213    -0.753991313714
    O            2.754231134679    -1.146741309281    -0.457280277104
    C            1.961479898987    -0.089321119298    -0.630287306793
    C            0.550619886633    -0.374162181143    -0.182897582157
    O            2.362598783610     0.932585593253    -1.084082020450
    C           -0.384540817146     0.821545944156    -0.361928993841
    H            0.202359707353    -1.235966744114    -0.746792144796
    H            0.607089508604    -0.699000086392     0.850645638829
    C           -1.856868811068     0.509495361103    -0.062981062106
    H           -0.300126539291     1.148938425784    -1.392210132484
    H           -0.038709111092     1.640780505816     0.259988219527
    C           -2.129485750147    -0.191972467117     1.270845227873
    H           -2.256928337024    -0.109345448383    -0.865019222533
    H           -2.414670023550     1.442056593117    -0.097222944620
    C           -3.623722827485    -0.335158217698     1.559484933888
    H           -1.674748816657    -1.178473465103     1.271655660318
    H           -1.658793695863     0.364417928847     2.079740298774
    H           -3.794907659283    -0.848497732870     2.500492937600
    H           -4.120486826459    -0.903118539330     0.777820853260
    H           -4.106623491511     0.635887661651     1.618958399734

  Mulliken Charges: (a.u.)
   Center  Symbol    Alpha    Beta     Spin     Total
       1     H     0.26787  0.26787  0.00000  0.46427
       2     O     4.35155  4.35155  0.00000 -0.70311
       3     C     2.62210  2.62210  0.00000  0.75580
       4     C     3.21486  3.21486  0.00000 -0.42972
       5     O     4.27928  4.27928  0.00000 -0.55855
       6     C     3.15333  3.15333  0.00000 -0.30666
       7     H     0.39927  0.39927  0.00000  0.20145
       8     H     0.39634  0.39634  0.00000  0.20733
       9     C     3.15463  3.15463  0.00000 -0.30925
      10     H     0.40785  0.40785  0.00000  0.18429
      11     H     0.41216  0.41216  0.00000  0.17569
      12     C     3.15685  3.15685  0.00000 -0.31370
      13     H     0.42317  0.42317  0.00000  0.15366
      14     H     0.41773  0.41773  0.00000  0.16454
      15     C     3.23912  3.23912  0.00000 -0.47823
      16     H     0.42149  0.42149  0.00000  0.15703
      17     H     0.42234  0.42234  0.00000  0.15532
      18     H     0.41836  0.41836  0.00000  0.16329
      19     H     0.42119  0.42119  0.00000  0.15762
      20     H     0.42053  0.42053  0.00000  0.15894

   Total alpha = 32.00000, Total beta = 32.00000, Total charge =  0.00000
