                              Psi4 1.0.54 Driver

  ==> Input File <==

--------------------------------------------------------------------------
set {
	reference rhf
	basis cc-pvtz
}

set_num_threads( 4 )
memory 2 gb

molecule MOL {
0 1

H	 3.374208	 -0.367034	 -1.014080
N	 3.091268	 -0.241216	 -0.065538
C	 1.860978	 0.530248	 0.016256
H	 3.837481	 0.227172	 0.404703
C	 0.644130	 -0.381765	 -0.031064
H	 1.835721	 1.204666	 -0.833114
H	 1.808789	 1.151975	 0.911067
C	 -0.678115	 0.376691	 0.025731
H	 0.693998	 -0.977147	 -0.936845
H	 0.693309	 -1.082142	 0.800523
C	 -1.900706	 -0.535531	 -0.022488
H	 -0.725296	 1.079516	 -0.802982
H	 -0.715474	 0.974884	 0.933278
C	 -3.220513	 0.226854	 0.028039
H	 -1.865036	 -1.134397	 -0.928236
H	 -1.857948	 -1.236381	 0.806820
H	 -3.309098	 0.911849	 -0.808725
H	 -4.066838	 -0.449485	 -0.008086
H	 -3.301685	 0.809374	 0.939860

	symmetry c1
}
set optking {
	frozen_dihedral = ("
		1 2 3 6
	")
}

ee,wfn = optimize('scf', return_wfn=True)
oeprop( wfn, 'DIPOLE', 'QUADRUPOLE', 'MULLIKEN_CHARGES')
f=open( 'psi4out.xyz', 'w' )
f.write( "19  " )
f.write( str(ee) + "\n" )
f.write( MOL.save_string_xyz() )
f.close()
--------------------------------------------------------------------------

    Molecular point group: c1
  Charge       = 0
  Multiplicity = 1
  Basis Set: CC-PVTZ
  Basis Set:
  @DF-RHF Final Energy:  -251.44518980390006
    Total Energy =                       -251.4451898039000071
    Molecular point group: c1
  Basis Set: CC-PVTZ
  Basis Set:
  Basis Set: CC-PVTZ
  Basis Set:
  @DF-RHF Final Energy:  -251.44644339877709
    Total Energy =                       -251.4464433987770917
  Basis Set: CC-PVTZ
  Basis Set:
  Basis Set: CC-PVTZ
  Basis Set:
  @DF-RHF Final Energy:  -251.44667034178849
    Total Energy =                       -251.4466703417884901
  Basis Set: CC-PVTZ
  Basis Set:
  Basis Set: CC-PVTZ
  Basis Set:
  @DF-RHF Final Energy:  -251.44667588437903
    Total Energy =                       -251.4466758843789194
  Basis Set: CC-PVTZ
  Basis Set:
  Charge       = 0
  Multiplicity = 1
  Basis Set: CC-PVTZ
  Basis Set:

    Orbital Energies (a.u.)
    -----------------------

    Doubly Occupied:

       1A    -15.526901     2A    -11.238729     3A    -11.210495
       4A    -11.208628     5A    -11.204480     6A    -11.203435
       7A     -1.177106     8A     -1.072771     9A     -0.998701
      10A     -0.900743    11A     -0.811114    12A     -0.786774
      13A     -0.673808    14A     -0.637118    15A     -0.616661
      16A     -0.582703    17A     -0.567354    18A     -0.553218
      19A     -0.522199    20A     -0.502691    21A     -0.475427
      22A     -0.463322    23A     -0.459236    24A     -0.454605
      25A     -0.383202

  @DF-RHF Final Energy:  -251.44667688267296

   => Energetics <=

    Nuclear Repulsion Energy =            245.7238343837315426
    One-Electron Energy =                -825.8781807243290132
    Two-Electron Energy =                 328.7076694579246805
    DFT Exchange-Correlation Energy =       0.0000000000000000
    Empirical Dispersion Energy =           0.0000000000000000
    PCM Polarization Energy =               0.0000000000000000
    EFP Energy =                            0.0000000000000000
    Total Energy =                       -251.4466768826728185
    Molecular point group: c1
  Basis Set: CC-PVTZ
  Basis Set:

  -Total Gradient:
     Atom            X                  Y                   Z
    ------   -----------------  -----------------  -----------------
       1        0.001396311910     0.002273710003     0.000088036696
       2       -0.002077038385    -0.003309433706    -0.000484317537
       3        0.001847218603     0.002716856227     0.001641493791
       4        0.000015023822     0.000002939791     0.000007460496
       5        0.000042739472     0.000051096001     0.000020990011
       6       -0.001189504367    -0.001736097222    -0.001289841513
       7       -0.000024052551    -0.000015480053     0.000001097139
       8       -0.000004685374    -0.000002126880     0.000006712972
       9        0.000018128831     0.000023677304     0.000008577625
      10        0.000003742111    -0.000000085657     0.000005633223
      11       -0.000012099733     0.000015954643    -0.000011231847
      12        0.000004597478    -0.000007092412     0.000008035997
      13        0.000000751546    -0.000005278459    -0.000003042778
      14       -0.000014839889    -0.000013357410     0.000004268160
      15       -0.000000155468    -0.000001696550    -0.000000927452
      16       -0.000003971055     0.000009240638    -0.000002845445
      17        0.000004285853    -0.000005059972     0.000001870883
      18       -0.000009547050     0.000002717657     0.000002039345
      19        0.000003094241    -0.000000483940    -0.000004009766

  **** Optimization is complete! (in 5 steps) ****
    Final optimized geometry and variables:
    Molecular point group: c1

    Geometry (in Angstrom), charge = 0, multiplicity = 1:

    H            3.336386351472    -0.359792907624    -1.199749410937
    N            3.089048190187    -0.235423709420    -0.241086080074
    C            1.854512244143     0.531879590834    -0.111908425624
    H            3.852146922633     0.246347469592     0.183614689967
    C            0.639197351885    -0.385063480639    -0.057566944678
    H            1.720926799622     1.236078820402    -0.931919496135
    H            1.904226565898     1.113748775585     0.801547376970
    C           -0.679540164380     0.370627422946     0.070711802863
    H            0.622370340257    -0.997976776280    -0.955659884854
    H            0.761000492176    -1.069500817059     0.775608779907
    C           -1.899064782419    -0.545243703105     0.127416249785
    H           -0.788614731369     1.056822354165    -0.766390042928
    H           -0.656281121336     0.987761187101     0.966487954713
    C           -3.215209836720     0.214047055709     0.257411303020
    H           -1.925811108250    -1.161533287344    -0.767056296592
    H           -1.793912479430    -1.229677281950     0.964516771369
    H           -3.366472306433     0.882386644937    -0.583916040077
    H           -4.059177528388    -0.465253260658     0.295240321891
    H           -3.233318641447     0.814038797853     1.161294851745

  Mulliken Charges: (a.u.)
   Center  Symbol    Alpha    Beta     Spin     Total
       1     H     0.43047  0.43047  0.00000  0.13905
       2     N     3.69064  3.69064  0.00000 -0.38128
       3     C     3.04078  3.04078  0.00000 -0.08155
       4     H     0.42759  0.42759  0.00000  0.14481
       5     C     3.06847  3.06847  0.00000 -0.13693
       6     H     0.46388  0.46388  0.00000  0.07225
       7     H     0.45617  0.45617  0.00000  0.08765
       8     C     3.09556  3.09556  0.00000 -0.19112
       9     H     0.45918  0.45918  0.00000  0.08164
      10     H     0.45229  0.45229  0.00000  0.09542
      11     C     3.08306  3.08306  0.00000 -0.16612
      12     H     0.45719  0.45719  0.00000  0.08561
      13     H     0.45648  0.45648  0.00000  0.08703
      14     C     3.14966  3.14966  0.00000 -0.29932
      15     H     0.45470  0.45470  0.00000  0.09060
      16     H     0.45393  0.45393  0.00000  0.09214
      17     H     0.45578  0.45578  0.00000  0.08843
      18     H     0.44865  0.44865  0.00000  0.10270
      19     H     0.45551  0.45551  0.00000  0.08898

   Total alpha = 25.00000, Total beta = 25.00000, Total charge =  0.00000

*** Psi4 exiting successfully. Buy a developer a beer!
