                              Psi4 1.0.54 Driver

  ==> Input File <==

--------------------------------------------------------------------------
set {
	reference rhf
	basis cc-pvtz
}

set_num_threads( 4 )
memory 2 gb

molecule MOL {
0 1

H	 -1.967559	 -1.305940	 -1.201527
N	 -1.258999	 -0.604297	 -1.236358
C	 -0.561396	 -0.500007	 0.035200
H	 -1.708255	 0.256962	 -1.468172
C	 0.575129	 0.507849	 -0.048832
H	 -0.154259	 -1.477475	 0.271872
H	 -1.220507	 -0.227534	 0.860879
C	 1.951750	 -0.141983	 0.035101
H	 0.478254	 1.061643	 -0.975981
H	 0.467676	 1.231891	 0.755499
H	 2.101550	 -0.848142	 -0.774949
H	 2.738260	 0.600794	 -0.026526
H	 2.078939	 -0.679792	 0.968824

	symmetry c1
}
set optking {
	frozen_dihedral = ("
		6 3 5 9
	")
}

ee,wfn = optimize('scf', return_wfn=True)
oeprop( wfn, 'DIPOLE', 'QUADRUPOLE', 'MULLIKEN_CHARGES')
f=open( 'psi4out.xyz', 'w' )
f.write( "13  " )
f.write( str(ee) + "\n" )
f.write( MOL.save_string_xyz() )
f.close()
--------------------------------------------------------------------------

    Molecular point group: c1
  Charge       = 0
  Multiplicity = 1
  Basis Set: CC-PVTZ
  Basis Set:
  @DF-RHF Final Energy:  -173.34643219401278
    Total Energy =                       -173.3464321940128343
    Molecular point group: c1
  Basis Set: CC-PVTZ
  Basis Set:
  Basis Set: CC-PVTZ
  Basis Set:
  @DF-RHF Final Energy:  -173.34683868503862
    Total Energy =                       -173.3468386850386764
  Basis Set: CC-PVTZ
  Basis Set:
  Basis Set: CC-PVTZ
  Basis Set:
  @DF-RHF Final Energy:  -173.34695142358154
    Total Energy =                       -173.3469514235815723
  Basis Set: CC-PVTZ
  Basis Set:
  Basis Set: CC-PVTZ
  Basis Set:
  @DF-RHF Final Energy:  -173.34695425270084
    Total Energy =                       -173.3469542527010105
  Basis Set: CC-PVTZ
  Basis Set:
  Charge       = 0
  Multiplicity = 1
  Basis Set: CC-PVTZ
  Basis Set:

    Orbital Energies (a.u.)
    -----------------------

    Doubly Occupied:

       1A    -15.527172     2A    -11.238516     3A    -11.210212
       4A    -11.203690     5A     -1.177388     6A     -1.032015
       7A     -0.898295     8A     -0.799656     9A     -0.657087
      10A     -0.638788    11A     -0.595987    12A     -0.565181
      13A     -0.531788    14A     -0.486654    15A     -0.476673
      16A     -0.469055    17A     -0.382786

  @DF-RHF Final Energy:  -173.34695447059366

   => Energetics <=

    Nuclear Repulsion Energy =            132.3886622730803140
    One-Electron Energy =                -495.6893454947943383
    Two-Electron Energy =                 189.9537287511203374
    DFT Exchange-Correlation Energy =       0.0000000000000000
    Empirical Dispersion Energy =           0.0000000000000000
    PCM Polarization Energy =               0.0000000000000000
    EFP Energy =                            0.0000000000000000
    Total Energy =                       -173.3469544705937153
    Molecular point group: c1
  Basis Set: CC-PVTZ
  Basis Set:

  -Total Gradient:
     Atom            X                  Y                   Z
    ------   -----------------  -----------------  -----------------
       1       -0.000012710317    -0.000001761385    -0.000019775147
       2       -0.000007740975    -0.000006090402     0.000035930285
       3        0.000008126320     0.000219092472     0.002800101906
       4        0.000000013240    -0.000003529049     0.000003464748
       5       -0.001692702744     0.002034048583     0.000856168766
       6        0.000265958941    -0.000495639488    -0.002497023716
       7        0.000006849968     0.000018805144    -0.000021668591
       8       -0.000004311604    -0.000004406531    -0.000000601532
       9        0.001442089705    -0.001742622710    -0.001166465993
      10       -0.000006211390    -0.000026032253     0.000007461912
      11       -0.000011983993    -0.000006680505     0.000012455027
      12        0.000005516071     0.000004151893    -0.000005347890
      13        0.000007106778     0.000010664231    -0.000004699774

  **** Optimization is complete! (in 5 steps) ****
    Final optimized geometry and variables:
    Molecular point group: c1

    Geometry (in Angstrom), charge = 0, multiplicity = 1:

    H           -2.096246444965    -1.143083153890    -0.883730718409
    N           -1.399781306161    -0.428621351222    -0.915021966588
    C           -0.725372640707    -0.299736354293     0.371148940245
    H           -1.862767232549     0.421637252965    -1.160363324756
    C            0.428661493360     0.713570195489     0.286941134018
    H           -0.329810873956    -1.279669128488     0.610920395880
    H           -1.406258362059    -0.023713493170     1.174361528726
    C            1.806881667892     0.057915424624     0.313076870321
    H            0.333863669785     1.263455165619    -0.642580284023
    H            0.356295718228     1.432605724714     1.095549164036
    H            1.906844196014    -0.653336120648    -0.499308391084
    H            2.595392727355     0.795044897060     0.210948638880
    H            1.970396697725    -0.474563647577     1.244320265309

  Mulliken Charges: (a.u.)
   Center  Symbol    Alpha    Beta     Spin     Total
       1     H     0.42927  0.42927  0.00000  0.14146
       2     N     3.69163  3.69163  0.00000 -0.38326
       3     C     3.02929  3.02929  0.00000 -0.05858
       4     H     0.43058  0.43058  0.00000  0.13884
       5     C     3.07918  3.07918  0.00000 -0.15837
       6     H     0.45928  0.45928  0.00000  0.08145
       7     H     0.46253  0.46253  0.00000  0.07494
       8     C     3.14972  3.14972  0.00000 -0.29943
       9     H     0.45625  0.45625  0.00000  0.08749
      10     H     0.45322  0.45322  0.00000  0.09355
      11     H     0.45039  0.45039  0.00000  0.09921
      12     H     0.45155  0.45155  0.00000  0.09691
      13     H     0.45711  0.45711  0.00000  0.08579

   Total alpha = 17.00000, Total beta = 17.00000, Total charge = -0.00000

*** Psi4 exiting successfully. Buy a developer a beer!
