  ==> Input File <==

--------------------------------------------------------------------------
set {
	reference rhf
	basis 6-31G*
}

set_num_threads( 4 )
memory 2 gb

molecule MOL {
0 1

H	 2.336223	 -1.737884	 -4.372139
C	 2.535316	 -0.801308	 -3.860563
C	 1.342997	 -0.374826	 -3.005190
H	 3.422631	 -0.940056	 -3.250020
H	 2.765944	 -0.054493	 -4.615466
C	 1.588031	 0.947243	 -2.274501
H	 1.124697	 -1.153202	 -2.281258
H	 0.462556	 -0.277946	 -3.638538
C	 0.404521	 1.409162	 -1.424088
H	 2.462864	 0.855687	 -1.640522
H	 1.806450	 1.722163	 -3.005824
C	 0.169600	 0.576866	 -0.172154
H	 0.569554	 2.432212	 -1.089570
H	 -0.509823	 1.436394	 -2.012654
C	 -1.181045	 0.701995	 0.511084
O	 1.017604	 -0.136579	 0.273144
C	 -2.285934	 -0.139295	 -0.145128
H	 -1.449051	 1.751551	 0.493206
H	 -1.071135	 0.403303	 1.551943
C	 -3.651768	 0.085446	 0.506485
H	 -2.346596	 0.110469	 -1.202272
H	 -2.034737	 -1.195320	 -0.088721
C	 -4.759797	 -0.746382	 -0.137905
H	 -3.908762	 1.140117	 0.445781
H	 -3.588286	 -0.154158	 1.565709
H	 -4.868882	 -0.505166	 -1.191300
H	 -4.548009	 -1.809175	 -0.062213
H	 -5.715422	 -0.564821	 0.343442

	symmetry c1
}
set optking {
	frozen_dihedral = ("
		16 12 15 17
	")
}

ee = optimize('scf')
oeprop('DIPOLE', 'QUADRUPOLE', 'MULLIKEN_CHARGES')
f=open( 'psi4out.xyz', 'w' )
f.write( "28  " )
f.write( str(ee) + "\n" )
f.write( MOL.save_string_xyz() )
f.close()
--------------------------------------------------------------------------

    Molecular point group: c1
  Charge       = 0
  Multiplicity = 1
  Basis Set: 6-31G*
  Basis Set:
  @DF-RHF Final Energy:  -426.16910501243376
    Total Energy =                       -426.1691050124338744
    Molecular point group: c1
  Basis Set: 6-31G*
  Basis Set:
  Basis Set: 6-31G*
  Basis Set:
  @DF-RHF Final Energy:  -426.16906636311660
    Total Energy =                       -426.1690663631172811
  Basis Set: 6-31G*
  Basis Set:
  Basis Set: 6-31G*
  Basis Set:
  @DF-RHF Final Energy:  -426.16785819884046
    Total Energy =                       -426.1678581988401220
  Basis Set: 6-31G*
  Basis Set:
  Basis Set: 6-31G*
  Basis Set:
  @DF-RHF Final Energy:  -426.16961852070665
    Total Energy =                       -426.1696185207072176
  Basis Set: 6-31G*
  Basis Set:
  Basis Set: 6-31G*
  Basis Set:
  @DF-RHF Final Energy:  -426.16948991230606
    Total Energy =                       -426.1694899123060623
  Basis Set: 6-31G*
  Basis Set:
  Basis Set: 6-31G*
  Basis Set:
  @DF-RHF Final Energy:  -426.16965706431483
    Total Energy =                       -426.1696570643144923
  Basis Set: 6-31G*
  Basis Set:
  Basis Set: 6-31G*
  Basis Set:
  @DF-RHF Final Energy:  -426.16966260783352
    Total Energy =                       -426.1696626078335157
  Basis Set: 6-31G*
  Basis Set:
  Charge       = 0
  Multiplicity = 1
  Basis Set: 6-31G*
  Basis Set:

    Orbital Energies (a.u.)
    -----------------------

    Doubly Occupied:

       1A    -20.547793     2A    -11.322108     3A    -11.231731
       4A    -11.230258     5A    -11.228737     6A    -11.225603
       7A    -11.216380     8A    -11.215695     9A    -11.212434
      10A    -11.205789    11A     -1.393059    12A     -1.094434
      13A     -1.077645    14A     -1.022765    15A     -0.991113
      16A     -0.908443    17A     -0.870983    18A     -0.807879
      19A     -0.799947    20A     -0.723732    21A     -0.669540
      22A     -0.653159    23A     -0.625619    24A     -0.619727
      25A     -0.609645    26A     -0.589655    27A     -0.575703
      28A     -0.573227    29A     -0.546112    30A     -0.528597
      31A     -0.517833    32A     -0.509131    33A     -0.504295
      34A     -0.483885    35A     -0.477382    36A     -0.474026
      37A     -0.469611    38A     -0.465615    39A     -0.456089
      40A     -0.392060

  @DF-RHF Final Energy:  -426.16966251740200

   => Energetics <=

    Nuclear Repulsion Energy =            535.6788936351068742
    One-Electron Energy =               -1639.5622268536017145
    Two-Electron Energy =                 677.7136707010929513
    DFT Exchange-Correlation Energy =       0.0000000000000000
    Empirical Dispersion Energy =           0.0000000000000000
    PCM Polarization Energy =               0.0000000000000000
    EFP Energy =                            0.0000000000000000
    Total Energy =                       -426.1696625174020028
    Molecular point group: c1
  Basis Set: 6-31G*
  Basis Set:

  -Total Gradient:
     Atom            X                  Y                   Z
    ------   -----------------  -----------------  -----------------
       1        0.000007063652    -0.000008293996     0.000009608789
       2        0.000008997805    -0.000012654859     0.000017018629
       3       -0.000002386013     0.000014335488    -0.000022897496
       4        0.000017325765     0.000004094872    -0.000004863333
       5       -0.000007991748    -0.000006269948     0.000003491413
       6       -0.000013571619     0.000006482938    -0.000012218079
       7       -0.000026636175     0.000020949994     0.000007125710
       8        0.000007883826     0.000000837135    -0.000021302709
       9        0.000000458071    -0.000006151271     0.000023768123
      10        0.000008192870     0.000004139283    -0.000016038743
      11       -0.000015481102     0.000001083527    -0.000009267137
      12       -0.000727968901    -0.001121253308    -0.001098530576
      13        0.000006718129     0.000009706713    -0.000016209795
      14        0.000030186630     0.000011677768     0.000005407425
      15        0.000399902527    -0.000510337287     0.000920371502
      16        0.000491728545     0.000922703667     0.000678321682
      17       -0.000182684809     0.000669287985    -0.000504399335
      18       -0.000023038287     0.000031715577     0.000040428322
      19       -0.000009968438    -0.000035201157    -0.000015216548
      20        0.000012019595     0.000006491662     0.000004698168
      21        0.000001492028    -0.000002552523     0.000009441818
      22        0.000001945889    -0.000000486354     0.000002461568
      23        0.000012125221    -0.000003373140    -0.000004924631
      24        0.000002109970     0.000000581262     0.000002056486
      25       -0.000000518863    -0.000001270484     0.000002456404
      26       -0.000002441826     0.000000220671    -0.000002044651
      27        0.000000356726     0.000002126005    -0.000001984337
      28        0.000004180531     0.000001409777     0.000003241324

  **** Optimization is complete! (in 8 steps) ****
    Final optimized geometry and variables:
    Molecular point group: c1

    Geometry (in Angstrom), charge = 0, multiplicity = 1:

    H            2.856008817043    -1.885240844901    -3.376699378339
    C            3.051312012037    -0.950769066938    -2.859837128234
    C            1.845324654994    -0.517366973492    -2.027476990450
    H            3.925484193830    -1.096443118093    -2.232176313224
    H            3.301822019886    -0.204462024768    -3.608896516242
    C            2.085332114772     0.800840506525    -1.288106009875
    H            1.606555839264    -1.295517435652    -1.309828676078
    H            0.978473894298    -0.412294367439    -2.678073275442
    C            0.891494903954     1.262275921469    -0.453444998783
    H            2.950472979707     0.702592820802    -0.641759394483
    H            2.317973362797     1.577863754585    -2.012758950612
    C            0.637340343381     0.438095293460     0.798516594011
    H            1.049351688264     2.284062911557    -0.107998486999
    H           -0.013200239571     1.296445551824    -1.055152023863
    C           -0.704844707438     0.616970492735     1.485266115337
    O            1.463569835563    -0.297790684777     1.248154689373
    C           -1.812605105841    -0.210522095996     0.813899042684
    H           -0.983077276070     1.668498641194     1.475733092124
    H           -0.586133040920     0.306531125974     2.516477634935
    C           -3.159993097569    -0.068507929817     1.524302894152
    H           -1.924016084465     0.088900721743    -0.225445734689
    H           -1.515744462010    -1.256293494585     0.806049663035
    C           -4.264907429093    -0.895296632109     0.868116559365
    H           -3.451209475383     0.979536891706     1.537846155310
    H           -3.050705411542    -0.369909903988     2.563252066772
    H           -4.421561272031    -0.593434670054    -0.163602608799
    H           -4.016280872643    -1.952528481964     0.869117195506
    H           -5.206953361798    -0.776464585714     1.393861795173

  Mulliken Charges: (a.u.)
   Center  Symbol    Alpha    Beta     Spin     Total
       1     H     0.41942  0.41942  0.00000  0.16115
       2     C     3.24009  3.24009  0.00000 -0.48019
       3     C     3.15612  3.15612  0.00000 -0.31225
       4     H     0.41824  0.41824  0.00000  0.16352
       5     H     0.42361  0.42361  0.00000  0.15279
       6     C     3.14950  3.14950  0.00000 -0.29899
       7     H     0.41050  0.41050  0.00000  0.17900
       8     H     0.42784  0.42784  0.00000  0.14433
       9     C     3.21240  3.21240  0.00000 -0.42479
      10     H     0.40681  0.40681  0.00000  0.18639
      11     H     0.42186  0.42186  0.00000  0.15629
      12     C     2.73295  2.73295  0.00000  0.53411
      13     H     0.40441  0.40441  0.00000  0.19117
      14     H     0.41123  0.41123  0.00000  0.17754
      15     C     3.19946  3.19946  0.00000 -0.39892
      16     O     4.26716  4.26716  0.00000 -0.53431
      17     C     3.16283  3.16283  0.00000 -0.32566
      18     H     0.41538  0.41538  0.00000  0.16923
      19     H     0.40023  0.40023  0.00000  0.19953
      20     C     3.15153  3.15153  0.00000 -0.30306
      21     H     0.41950  0.41950  0.00000  0.16101
      22     H     0.41054  0.41054  0.00000  0.17891
      23     C     3.24038  3.24038  0.00000 -0.48076
      24     H     0.42186  0.42186  0.00000  0.15628
      25     H     0.41866  0.41866  0.00000  0.16269
      26     H     0.42119  0.42119  0.00000  0.15763
      27     H     0.41918  0.41918  0.00000  0.16164
      28     H     0.41713  0.41713  0.00000  0.16574

   Total alpha = 40.00000, Total beta = 40.00000, Total charge = -0.00000
