                              Psi4 1.0.54 Driver

  ==> Input File <==

--------------------------------------------------------------------------
set {
	reference rhf
	basis cc-pvtz
}

set_num_threads( 4 )
memory 2 gb

molecule MOL {
0 1

O	 1.488975	 1.916603	 -0.447362
C	 0.664364	 1.923149	 -1.296486
C	 -0.632913	 1.156599	 -1.263100
O	 0.780004	 2.623439	 -2.413015
C	 -0.824290	 0.329213	 -0.000115
H	 -1.434639	 1.877413	 -1.386032
H	 -0.659310	 0.531955	 -2.149985
C	 -2.146151	 -0.432825	 -0.000068
H	 -0.774869	 0.980883	 0.864846
H	 0.001516	 -0.365973	 0.100138
C	 -3.366283	 0.483552	 0.000557
H	 -2.189286	 -1.084450	 -0.869996
H	 -2.188867	 -1.085083	 0.869399
C	 -4.687436	 -0.278003	 0.000108
H	 -3.325150	 1.134819	 -0.867957
H	 -3.325087	 1.133730	 0.869885
H	 -4.773783	 -0.912098	 -0.876078
H	 -5.531922	 0.401392	 0.000363
H	 -4.773901	 -0.912898	 0.875703
C	 1.953669	 3.393356	 -2.577524
H	 2.040780	 4.128483	 -1.791259
H	 1.858059	 3.881018	 -3.534024
H	 2.829040	 2.761031	 -2.567249

	symmetry c1
}
set optking {
	frozen_dihedral = ("
		9 5 8 12
	")
}

ee,wfn = optimize('scf', return_wfn=True)
oeprop( wfn, 'DIPOLE', 'QUADRUPOLE', 'MULLIKEN_CHARGES')
f=open( 'psi4out.xyz', 'w' )
f.write( "23  " )
f.write( str(ee) + "\n" )
f.write( MOL.save_string_xyz() )
f.close()
--------------------------------------------------------------------------

    Molecular point group: c1
  Charge       = 0
  Multiplicity = 1
  Basis Set: CC-PVTZ
  Basis Set:
  @DF-RHF Final Energy:  -423.12851852588039
    Total Energy =                       -423.1285185258800539
    Molecular point group: c1
  Basis Set: CC-PVTZ
  Basis Set:
  Basis Set: CC-PVTZ
  Basis Set:
  @DF-RHF Final Energy:  -423.12856923259466
    Total Energy =                       -423.1285692325940317
  Basis Set: CC-PVTZ
  Basis Set:
  Basis Set: CC-PVTZ
  Basis Set:
  @DF-RHF Final Energy:  -423.12931986332381
    Total Energy =                       -423.1293198633236443
  Basis Set: CC-PVTZ
  Basis Set:
  Basis Set: CC-PVTZ
  Basis Set:
  @DF-RHF Final Energy:  -423.12935255486406
    Total Energy =                       -423.1293525548637717
  Basis Set: CC-PVTZ
  Basis Set:
  Basis Set: CC-PVTZ
  Basis Set:
  @DF-RHF Final Energy:  -423.12934650044821
    Total Energy =                       -423.1293465004487189
  Basis Set: CC-PVTZ
  Basis Set:
  Charge       = 0
  Multiplicity = 1
  Basis Set: CC-PVTZ
  Basis Set:

    Orbital Energies (a.u.)
    -----------------------

    Doubly Occupied:

       1A    -20.596181     2A    -20.534035     3A    -11.364458
       4A    -11.278384     5A    -11.233249     6A    -11.217383
       7A    -11.216584     8A    -11.215783     9A    -11.209033
      10A     -1.472101    11A     -1.365695    12A     -1.094822
      13A     -1.043330    14A     -0.988185    15A     -0.933676
      16A     -0.850762    17A     -0.793165    18A     -0.765747
      19A     -0.703368    20A     -0.685608    21A     -0.676149
      22A     -0.638572    23A     -0.621595    24A     -0.601246
      25A     -0.577500    26A     -0.557909    27A     -0.556972
      28A     -0.529186    29A     -0.522019    30A     -0.508701
      31A     -0.491864    32A     -0.468735    33A     -0.466289
      34A     -0.461305    35A     -0.454058    36A     -0.440419

  @DF-RHF Final Energy:  -423.12935942238704

   => Energetics <=

    Nuclear Repulsion Energy =            457.9673072016540232
    One-Electron Energy =               -1483.9252001269906032
    Two-Electron Energy =                 602.8285335029501084
    DFT Exchange-Correlation Energy =       0.0000000000000000
    Empirical Dispersion Energy =           0.0000000000000000
    PCM Polarization Energy =               0.0000000000000000
    EFP Energy =                            0.0000000000000000
    Total Energy =                       -423.1293594223865284
    Molecular point group: c1
  Basis Set: CC-PVTZ
  Basis Set:

  -Total Gradient:
     Atom            X                  Y                   Z
    ------   -----------------  -----------------  -----------------
       1       -0.000037238124     0.000013478028     0.000029621648
       2        0.000097034913    -0.000042019750    -0.000041830844
       3       -0.000022048932    -0.000065131914    -0.000014150371
       4       -0.000024727714     0.000016249537    -0.000005762817
       5       -0.000086922666     0.000094467078     0.000008844886
       6       -0.000054230480     0.000012382938     0.000016365844
       7       -0.000004289846     0.000021538712    -0.000022296580
       8       -0.000035430523     0.000045982640    -0.000081442903
       9        0.000048543776    -0.000020004310     0.000088686283
      10       -0.000048161288    -0.000002300949     0.000000908267
      11        0.000084105091     0.000019058655    -0.000087955701
      12        0.000020980322    -0.000082574801    -0.000000957846
      13        0.000011760523    -0.000002734714     0.000006325903
      14        0.000034449222    -0.000021403940     0.000099113500
      15        0.000067545146     0.000025523262     0.000010562689
      16       -0.000034757941     0.000002555729    -0.000010886023
      17        0.000018274917     0.000025280617     0.000015531510
      18        0.000021546400    -0.000006711414    -0.000000223735
      19       -0.000018982886    -0.000005156161    -0.000036852996
      20       -0.000004292360    -0.000011127768     0.000021290738
      21       -0.000006525023    -0.000001837590    -0.000002221278
      22       -0.000017134775    -0.000012446306     0.000008592130
      23       -0.000009497748    -0.000003067579    -0.000001262304

  **** Optimization is complete! (in 6 steps) ****
    Final optimized geometry and variables:
    Molecular point group: c1

    Geometry (in Angstrom), charge = 0, multiplicity = 1:

    O            2.235006430258     0.620564059889     0.455247620542
    C            1.413595476912     0.678826674630    -0.394956094942
    C            0.081202177368    -0.026042933795    -0.377364266237
    O            1.564253568897     1.391516735845    -1.499624247965
    C           -0.143878455057    -0.866117311077     0.873544061674
    H           -0.678742098654     0.736952258705    -0.496183512987
    H            0.030833551846    -0.637153048710    -1.273048779257
    C           -1.451446604698    -1.658497349768     0.858007607450
    H           -0.113728034083    -0.224021915739     1.747062607636
    H            0.685600088760    -1.554130797051     0.981158098031
    C           -2.722287692125    -0.811799721525     0.900056186227
    H           -1.476184066961    -2.300551054678    -0.020005107486
    H           -1.451851919607    -2.324176138520     1.716157439607
    C           -3.990005387052    -1.655807926939     0.984607092859
    H           -2.779412001714    -0.178460048140     0.020616210892
    H           -2.677310331460    -0.143467430798     1.755907081282
    H           -4.077929954326    -2.315862229011     0.127997387332
    H           -4.875979333918    -1.032114911852     1.013053716759
    H           -3.990594158793    -2.272852971543     1.876753511006
    C            2.772785137688     2.108395929094    -1.649400712960
    H            2.892067653859     2.825900455977    -0.851158838336
    H            2.702409832261     2.615428573731    -2.598000733627
    H            3.617816283508     1.435969391393    -1.647928040496

  Mulliken Charges: (a.u.)
   Center  Symbol    Alpha    Beta     Spin     Total
       1     O     4.19692  4.19692  0.00000 -0.39383
       2     C     2.80496  2.80496  0.00000  0.39007
       3     C     3.10139  3.10139  0.00000 -0.20279
       4     O     4.14715  4.14715  0.00000 -0.29430
       5     C     3.09229  3.09229  0.00000 -0.18457
       6     H     0.43911  0.43911  0.00000  0.12177
       7     H     0.43991  0.43991  0.00000  0.12018
       8     C     3.09963  3.09963  0.00000 -0.19927
       9     H     0.44622  0.44622  0.00000  0.10755
      10     H     0.43991  0.43991  0.00000  0.12018
      11     C     3.08671  3.08671  0.00000 -0.17342
      12     H     0.45442  0.45442  0.00000  0.09116
      13     H     0.44599  0.44599  0.00000  0.10801
      14     C     3.14969  3.14969  0.00000 -0.29938
      15     H     0.45429  0.45429  0.00000  0.09142
      16     H     0.45282  0.45282  0.00000  0.09436
      17     H     0.45497  0.45497  0.00000  0.09006
      18     H     0.44799  0.44799  0.00000  0.10403
      19     H     0.45373  0.45373  0.00000  0.09255
      20     C     3.03805  3.03805  0.00000 -0.07611
      21     H     0.45434  0.45434  0.00000  0.09131
      22     H     0.44526  0.44526  0.00000  0.10948
      23     H     0.45423  0.45423  0.00000  0.09154

   Total alpha = 36.00000, Total beta = 36.00000, Total charge = -0.00000

*** Psi4 exiting successfully. Buy a developer a beer!
