  ==> Input File <==

--------------------------------------------------------------------------
set {
	reference rhf
	basis 6-31G*
}

set_num_threads( 1 )
memory 2 gb

molecule MOL {
0 1

H	 -2.698709	 -0.000305	 0.034435
C	 -1.693833	 0.000034	 0.434417
O	 -0.828952	 -0.000968	 -0.659236
H	 -1.574200	 0.882896	 1.055746
H	 -1.574147	 -0.881698	 1.057355
C	 0.559449	 -0.000782	 -0.420813
C	 1.031629	 1.267973	 0.286451
C	 1.032290	 -1.269600	 0.285928
H	 0.980758	 -0.000469	 -1.419077
H	 0.636275	 2.146154	 -0.212589
H	 2.115480	 1.323186	 0.265138
H	 0.724132	 1.297137	 1.327009
H	 0.636820	 -2.147740	 -0.213001
H	 2.116238	 -1.324663	 0.263822
H	 0.725606	 -1.299016	 1.326562

	symmetry c1
}
set optking {
	frozen_dihedral = ("
		9 6 3 2
	")
}

ee = energy('scf')
oeprop('DIPOLE', 'QUADRUPOLE', 'MULLIKEN_CHARGES')
f=open( 'psi4out.xyz', 'w' )
f.write( "15  " )
f.write( str(ee) + "\n" )
f.write( MOL.save_string_xyz() )
f.close()
--------------------------------------------------------------------------

    Molecular point group: c1

    Geometry (in Angstrom), charge = 0, multiplicity = 1:

       Center              X                  Y                   Z               Mass
    ------------   -----------------  -----------------  -----------------  -----------------
           H         -2.698708961970     0.000350249859     0.034434381252     1.007825032070
           C         -1.693832961970     0.000689249859     0.434416381252    12.000000000000
           O         -0.828951961970    -0.000312750141    -0.659236618748    15.994914619560
           H         -1.574199961970     0.883551249859     1.055745381252     1.007825032070
           H         -1.574146961970    -0.881042750141     1.057354381252     1.007825032070
           C          0.559449038030    -0.000126750141    -0.420813618748    12.000000000000
           C          1.031629038030     1.268628249859     0.286450381252    12.000000000000
           C          1.032290038030    -1.268944750141     0.285927381252    12.000000000000
           H          0.980758038030     0.000186249859    -1.419077618748     1.007825032070
           H          0.636275038030     2.146809249859    -0.212589618748     1.007825032070
           H          2.115480038030     1.323841249859     0.265137381252     1.007825032070
           H          0.724132038030     1.297792249859     1.327008381252     1.007825032070
           H          0.636820038030    -2.147084750141    -0.213001618748     1.007825032070
           H          2.116238038030    -1.324007750141     0.263821381252     1.007825032070
           H          0.725606038030    -1.298360750141     1.326561381252     1.007825032070

  Charge       = 0
  Multiplicity = 1
  Basis Set: 6-31G*
  Basis Set:

    Orbital Energies (a.u.)
    -----------------------

    Doubly Occupied:

       1A    -20.548446     2A    -11.274301     3A    -11.260986
       4A    -11.210543     5A    -11.210515     6A     -1.370487
       7A     -1.050522     8A     -0.939565     9A     -0.931319
      10A     -0.781263    11A     -0.674131    12A     -0.640309
      13A     -0.633558    14A     -0.572922    15A     -0.565558
      16A     -0.552678    17A     -0.533937    18A     -0.497173
      19A     -0.496831    20A     -0.443106    21A     -0.406751

  @DF-RHF Final Energy:  -232.13777398959454

   => Energetics <=

    Nuclear Repulsion Energy =            198.7702235986394896
    One-Electron Energy =                -708.6261418951404494
    Two-Electron Energy =                 277.7181443069060833
    DFT Exchange-Correlation Energy =       0.0000000000000000
    Empirical Dispersion Energy =           0.0000000000000000
    PCM Polarization Energy =               0.0000000000000000
    EFP Energy =                            0.0000000000000000
    Total Energy =                       -232.1377739895948480

  Mulliken Charges: (a.u.)
   Center  Symbol    Alpha    Beta     Spin     Total
       1     H     0.41258  0.41258  0.00000  0.17484
       2     C     3.08201  3.08201  0.00000 -0.16401
       3     O     4.31180  4.31180  0.00000 -0.62360
       4     H     0.42929  0.42929  0.00000  0.14142
       5     H     0.42931  0.42931  0.00000  0.14139
       6     C     2.90862  2.90862  0.00000  0.18276
       7     C     3.25352  3.25352  0.00000 -0.50705
       8     C     3.25349  3.25349  0.00000 -0.50699
       9     H     0.41512  0.41512  0.00000  0.16976
      10     H     0.41143  0.41143  0.00000  0.17714
      11     H     0.41930  0.41930  0.00000  0.16140
      12     H     0.42139  0.42139  0.00000  0.15721
      13     H     0.41142  0.41142  0.00000  0.17716
      14     H     0.41932  0.41932  0.00000  0.16135
      15     H     0.42138  0.42138  0.00000  0.15723

   Total alpha = 21.00000, Total beta = 21.00000, Total charge = -0.00000
