  ==> Input File <==

--------------------------------------------------------------------------
set {
	reference rhf
	basis 6-31G*
}

set_num_threads( 1 )
memory 2 gb

molecule MOL {
0 1

O	 3.225979	 0.970355	 -0.599647
C	 2.701189	 0.057885	 -0.047330
C	 1.245376	 -0.013843	 0.345420
O	 3.347903	 -1.046386	 0.304773
C	 0.989645	 -0.937286	 1.534525
H	 0.918193	 1.001897	 0.541412
H	 0.690294	 -0.340752	 -0.530202
C	 -0.494322	 -1.102890	 1.879361
H	 1.529119	 -0.564966	 2.400241
H	 1.413759	 -1.910823	 1.313674
C	 -1.182967	 0.164909	 2.392747
H	 -0.579240	 -1.876275	 2.639221
H	 -1.029547	 -1.476800	 1.007733
C	 -2.630057	 -0.078023	 2.826238
H	 -0.617771	 0.563310	 3.233965
H	 -1.171159	 0.934918	 1.624685
C	 -3.329863	 1.183067	 3.336196
H	 -2.649472	 -0.838572	 3.604969
H	 -3.193167	 -0.486493	 1.988527
C	 -4.773283	 0.931112	 3.770657
H	 -2.767916	 1.593112	 4.172689
H	 -3.315310	 1.942957	 2.557649
H	 -5.242211	 1.843177	 4.126819
H	 -4.819213	 0.200494	 4.573330
H	 -5.370574	 0.552461	 2.945951
C	 4.728119	 -1.109107	 -0.004993
H	 4.882018	 -1.033965	 -1.071845
H	 5.068212	 -2.067527	 0.355250
H	 5.265056	 -0.311663	 0.488280

	symmetry c1
}
set optking {
	frozen_dihedral = ("
		21 17 14 11,
		17 14 11 15,
		15 11 8 5,
		6 3 5 9,
		11 8 5 9,
		2 4 26 27,
		1 2 4 26
	")
}

ee = energy('scf')
oeprop('DIPOLE', 'QUADRUPOLE', 'MULLIKEN_CHARGES')
f=open( 'psi4out.xyz', 'w' )
f.write( "29  " )
f.write( str(ee) + "\n" )
f.write( MOL.save_string_xyz() )
f.close()
--------------------------------------------------------------------------

    Molecular point group: c1

    Geometry (in Angstrom), charge = 0, multiplicity = 1:

       Center              X                  Y                   Z               Mass
    ------------   -----------------  -----------------  -----------------  -----------------
           O          2.839464456091     1.061163041228    -2.015761827200    15.994914619560
           C          2.314674456091     0.148693041228    -1.463444827200    12.000000000000
           C          0.858861456091     0.076965041228    -1.070694827200    12.000000000000
           O          2.961388456091    -0.955577958772    -1.111341827200    15.994914619560
           C          0.603130456091    -0.846477958772     0.118410172800    12.000000000000
           H          0.531678456091     1.092705041228    -0.874702827200     1.007825032070
           H          0.303779456091    -0.249943958772    -1.946316827200     1.007825032070
           C         -0.880836543909    -1.012081958772     0.463246172800    12.000000000000
           H          1.142604456091    -0.474157958772     0.984126172800     1.007825032070
           H          1.027244456091    -1.820014958772    -0.102440827200     1.007825032070
           C         -1.569481543909     0.255717041228     0.976632172800    12.000000000000
           H         -0.965754543909    -1.785466958772     1.223106172800     1.007825032070
           H         -1.416061543909    -1.385991958772    -0.408381827200     1.007825032070
           C         -3.016571543909     0.012785041228     1.410123172800    12.000000000000
           H         -1.004285543909     0.654118041228     1.817850172800     1.007825032070
           H         -1.557673543909     1.025726041228     0.208570172800     1.007825032070
           C         -3.716377543909     1.273875041228     1.920081172800    12.000000000000
           H         -3.035986543909    -0.747763958772     2.188854172800     1.007825032070
           H         -3.579681543909    -0.395684958772     0.572412172800     1.007825032070
           C         -5.159797543909     1.021920041228     2.354542172800    12.000000000000
           H         -3.154430543909     1.683920041228     2.756574172800     1.007825032070
           H         -3.701824543909     2.033765041228     1.141534172800     1.007825032070
           H         -5.628725543909     1.933985041228     2.710704172800     1.007825032070
           H         -5.205727543909     0.291302041228     3.157215172800     1.007825032070
           H         -5.757088543909     0.643269041228     1.529836172800     1.007825032070
           C          4.341604456091    -1.018298958772    -1.421107827200    12.000000000000
           H          4.495503456091    -0.943156958772    -2.487959827200     1.007825032070
           H          4.681697456091    -1.976718958772    -1.060864827200     1.007825032070
           H          4.878541456091    -0.220854958772    -0.927834827200     1.007825032070

  Charge       = 0
  Multiplicity = 1
  Basis Set: 6-31G*
  Basis Set:

    Orbital Energies (a.u.)
    -----------------------

    Doubly Occupied:

       1A    -20.604812     2A    -20.543055     3A    -11.372114
       4A    -11.281118     5A    -11.234269     6A    -11.221703
       7A    -11.218966     8A    -11.216473     9A    -11.215929
      10A    -11.214852    11A    -11.209127    12A     -1.469724
      13A     -1.361822    14A     -1.100220    15A     -1.068870
      16A     -1.019342    17A     -0.972364    18A     -0.931502
      19A     -0.864354    20A     -0.799393    21A     -0.790558
      22A     -0.772998    23A     -0.699032    24A     -0.681858
      25A     -0.671579    26A     -0.651524    27A     -0.627224
      28A     -0.604174    29A     -0.592135    30A     -0.578242
      31A     -0.562096    32A     -0.553028    33A     -0.535237
      34A     -0.531561    35A     -0.522687    36A     -0.511559
      37A     -0.498263    38A     -0.480999    39A     -0.472744
      40A     -0.464310    41A     -0.462582    42A     -0.453580
      43A     -0.443277    44A     -0.425587

  @DF-RHF Final Energy:  -501.04061985785006

   => Energetics <=

    Nuclear Repulsion Energy =            613.9332241438639812
    One-Electron Energy =               -1898.9338647505242079
    Two-Electron Energy =                 783.9600207488085744
    DFT Exchange-Correlation Energy =       0.0000000000000000
    Empirical Dispersion Energy =           0.0000000000000000
    PCM Polarization Energy =               0.0000000000000000
    EFP Energy =                            0.0000000000000000
    Total Energy =                       -501.0406198578516523

  Mulliken Charges: (a.u.)
   Center  Symbol    Alpha    Beta     Spin     Total
       1     O     4.28812  4.28812  0.00000 -0.57624
       2     C     2.60342  2.60342  0.00000  0.79315
       3     C     3.21360  3.21360  0.00000 -0.42720
       4     O     4.30398  4.30398  0.00000 -0.60796
       5     C     3.15716  3.15716  0.00000 -0.31432
       6     H     0.39620  0.39620  0.00000  0.20761
       7     H     0.40061  0.40061  0.00000  0.19878
       8     C     3.15622  3.15622  0.00000 -0.31244
       9     H     0.41821  0.41821  0.00000  0.16357
      10     H     0.40404  0.40404  0.00000  0.19193
      11     C     3.15513  3.15513  0.00000 -0.31027
      12     H     0.41914  0.41914  0.00000  0.16172
      13     H     0.42326  0.42326  0.00000  0.15348
      14     C     3.15037  3.15037  0.00000 -0.30074
      15     H     0.42303  0.42303  0.00000  0.15395
      16     H     0.42219  0.42219  0.00000  0.15562
      17     C     3.15152  3.15152  0.00000 -0.30303
      18     H     0.42378  0.42378  0.00000  0.15244
      19     H     0.42390  0.42390  0.00000  0.15220
      20     C     3.23937  3.23937  0.00000 -0.47875
      21     H     0.42285  0.42285  0.00000  0.15431
      22     H     0.42279  0.42279  0.00000  0.15441
      23     H     0.41903  0.41903  0.00000  0.16194
      24     H     0.42181  0.42181  0.00000  0.15638
      25     H     0.42177  0.42177  0.00000  0.15647
      26     C     3.09212  3.09212  0.00000 -0.18424
      27     H     0.40880  0.40880  0.00000  0.18239
      28     H     0.40897  0.40897  0.00000  0.18207
      29     H     0.40861  0.40861  0.00000  0.18277

   Total alpha = 44.00000, Total beta = 44.00000, Total charge = -0.00000
