                              Psi4 1.0.54 Driver

  ==> Input File <==

--------------------------------------------------------------------------
set {
	reference rhf
	basis cc-pvtz
}

set_num_threads( 4 )
memory 2 gb

molecule MOL {
0 1

H	 -4.340537	 -0.784487	 0.000000
O	 -3.958786	 0.074640	 0.000000
C	 -2.613554	 0.009900	 0.000000
C	 -1.915312	 1.186835	 -0.213204
C	 -1.925042	 -1.170774	 0.202108
H	 -2.459684	 2.096937	 -0.368880
C	 -0.538172	 1.178055	 -0.223330
H	 -2.459763	 -2.087870	 0.368162
C	 -0.542089	 -1.177836	 0.191630
H	 0.000162	 2.089489	 -0.388418
C	 0.145714	 -0.005519	 -0.020672
H	 -0.012415	 -2.095686	 0.348795
Br	 2.044031	 -0.012285	 -0.035571

	symmetry c1
}
set optking {
	frozen_dihedral = ("
		4 3 2 1
	")
}

ee,wfn = optimize('scf', return_wfn=True)
oeprop( wfn, 'DIPOLE', 'QUADRUPOLE', 'MULLIKEN_CHARGES')
f=open( 'psi4out.xyz', 'w' )
f.write( "13  " )
f.write( str(ee) + "\n" )
f.write( MOL.save_string_xyz() )
f.close()
--------------------------------------------------------------------------

    Molecular point group: c1
  Charge       = 0
  Multiplicity = 1
  Basis Set: CC-PVTZ
  Basis Set:
  @DF-RHF Final Energy: -2877.54689236738523
    Total Energy =                      -2877.5468923673861354
    Molecular point group: c1
  Basis Set: CC-PVTZ
  Basis Set:
  Basis Set: CC-PVTZ
  Basis Set:
  @DF-RHF Final Energy: -2877.54689513981793
    Total Energy =                      -2877.5468951398206627
  Basis Set: CC-PVTZ
  Basis Set:
  Charge       = 0
  Multiplicity = 1
  Basis Set: CC-PVTZ
  Basis Set:

    Orbital Energies (a.u.)
    -----------------------

    Doubly Occupied:

       1A   -490.018434     2A    -65.158755     3A    -58.513981
       4A    -58.512613     5A    -58.512609     6A    -20.596621
       7A    -11.311916     8A    -11.287743     9A    -11.254033
      10A    -11.252292    11A    -11.242795    12A    -11.237461
      13A     -9.832548    14A     -7.444168    15A     -7.437420
      16A     -7.437347    17A     -3.187857    18A     -3.184300
      19A     -3.184206    20A     -3.175552    21A     -3.175548
      22A     -1.428168    23A     -1.179885    24A     -1.066732
      25A     -1.042219    26A     -0.970518    27A     -0.869869
      28A     -0.828169    29A     -0.758368    30A     -0.689883
      31A     -0.654002    32A     -0.627744    33A     -0.610264
      34A     -0.608569    35A     -0.580713    36A     -0.522551
      37A     -0.513667    38A     -0.501429    39A     -0.427829
      40A     -0.413607    41A     -0.360412    42A     -0.317458

  @DF-RHF Final Energy: -2877.54689587834400

   => Energetics <=

    Nuclear Repulsion Energy =            525.5125468064309189
    One-Electron Energy =               -5042.2583813428491339
    Two-Electron Energy =                1639.1989386580748942
    DFT Exchange-Correlation Energy =       0.0000000000000000
    Empirical Dispersion Energy =           0.0000000000000000
    PCM Polarization Energy =               0.0000000000000000
    EFP Energy =                            0.0000000000000000
    Total Energy =                      -2877.5468958783435482
    Molecular point group: c1
  Basis Set: CC-PVTZ
  Basis Set:

  -Total Gradient:
     Atom            X                  Y                   Z
    ------   -----------------  -----------------  -----------------
       1       -0.000006401057    -0.000002580601    -0.001011878620
       2        0.000021421535    -0.000056999639     0.000929312541
       3       -0.000026976824     0.000114905255     0.000828984881
       4        0.000069165301    -0.000088380714    -0.000707892123
       5       -0.000058766166     0.000025217423    -0.000054074483
       6       -0.000007204963    -0.000005295957    -0.000008175939
       7       -0.000052299836     0.000039016459    -0.000018771787
       8        0.000003340058     0.000002628498     0.000011249316
       9        0.000060936744     0.000040250616     0.000012683301
      10        0.000004903806    -0.000000280612     0.000002511862
      11       -0.000037402374    -0.000068174493     0.000021251411
      12       -0.000002813938    -0.000003506959    -0.000001563840
      13        0.000032097375     0.000003200725    -0.000003636519

  **** Optimization is complete! (in 3 steps) ****
    Final optimized geometry and variables:
    Molecular point group: c1

    Geometry (in Angstrom), charge = 0, multiplicity = 1:

    H           -4.340194189487    -0.783242629394     0.022903605496
    O           -3.959009837549     0.076200529867     0.022375521448
    C           -2.613443069204     0.011804695840     0.019191579255
    C           -1.915098682359     1.188295023614    -0.195030648802
    C           -1.924951615291    -1.169086248479     0.220463440639
    H           -2.459279625771     2.098016816217    -0.353757291510
    C           -0.537742687965     1.180201791205    -0.201385222479
    H           -2.459978886037    -2.085391441782     0.389685895370
    C           -0.542079614448    -1.176431861541     0.209471782450
    H            0.000544256956     2.091717695133    -0.366230203833
    C            0.145917793126    -0.003528456065     0.000210256454
    H           -0.012576349905    -2.094542215182     0.365741812130
    BR           2.044098231892    -0.010319354822    -0.013327056855

  Mulliken Charges: (a.u.)
   Center  Symbol    Alpha    Beta     Spin     Total
       1     H     0.38628  0.38628  0.00000  0.22743
       2     O     4.17110  4.17110  0.00000 -0.34220
       3     C     2.85904  2.85904  0.00000  0.28192
       4     C     3.09353  3.09353  0.00000 -0.18706
       5     C     3.11850  3.11850  0.00000 -0.23700
       6     H     0.41590  0.41590  0.00000  0.16820
       7     C     3.07690  3.07690  0.00000 -0.15380
       8     H     0.43035  0.43035  0.00000  0.13930
       9     C     3.08436  3.08436  0.00000 -0.16872
      10     H     0.41065  0.41065  0.00000  0.17871
      11     C     2.97588  2.97588  0.00000  0.04823
      12     H     0.41057  0.41057  0.00000  0.17886
      13    BR    17.56694 17.56694  0.00000 -0.13388

   Total alpha = 42.00000, Total beta = 42.00000, Total charge = -0.00000

*** Psi4 exiting successfully. Buy a developer a beer!
