  ==> Input File <==

--------------------------------------------------------------------------
set {
	reference rhf
	basis cc-pvtz
}

set_num_threads( 4 )
memory 2 gb

molecule MOL {
0 1

H	 -2.698799	 -0.000846	 0.036018
C	 -1.694291	 -0.000483	 0.434279
O	 -0.828718	 -0.000608	 -0.655022
H	 -1.576855	 0.881100	 1.056504
H	 -1.576401	 -0.881658	 1.057001
C	 -0.076365	 -1.157983	 -0.923956
C	 0.912845	 -1.485188	 0.189000
C	 -0.949979	 -2.352107	 -1.291538
H	 0.494196	 -0.883632	 -1.802483
H	 1.489790	 -0.606757	 0.450823
H	 1.598478	 -2.255904	 -0.143642
H	 0.419156	 -1.850924	 1.081800
H	 -1.664838	 -2.074915	 -2.056512
H	 -0.332065	 -3.154402	 -1.677904
H	 -1.493167	 -2.740764	 -0.438054

	symmetry c1
}
set optking {
	frozen_dihedral = ("
		6 3 2 1
	")
}

ee = optimize('scf')
oeprop('DIPOLE', 'QUADRUPOLE', 'MULLIKEN_CHARGES')
f=open( 'psi4out.xyz', 'w' )
f.write( "15  " )
f.write( str(ee) + "\n" )
f.write( MOL.save_string_xyz() )
f.close()
--------------------------------------------------------------------------

    Molecular point group: c1
  Charge       = 0
  Multiplicity = 1
  Basis Set: CC-PVTZ
  Basis Set:
  @DF-RHF Final Energy:  -232.22295170558368
    Total Energy =                       -232.2229517055836823
    Molecular point group: c1
  Basis Set: CC-PVTZ
  Basis Set:
  Basis Set: CC-PVTZ
  Basis Set:
  @DF-RHF Final Energy:  -232.22379101542282
    Total Energy =                       -232.2237910154228757
  Basis Set: CC-PVTZ
  Basis Set:
  Basis Set: CC-PVTZ
  Basis Set:
  @DF-RHF Final Energy:  -232.22403185221691
    Total Energy =                       -232.2240318522166831
  Basis Set: CC-PVTZ
  Basis Set:
  Basis Set: CC-PVTZ
  Basis Set:
  @DF-RHF Final Energy:  -232.22402738111666
    Total Energy =                       -232.2240273811164570
  Basis Set: CC-PVTZ
  Basis Set:
  Basis Set: CC-PVTZ
  Basis Set:
  @DF-RHF Final Energy:  -232.22405302161852
    Total Energy =                       -232.2240530216184311
  Basis Set: CC-PVTZ
  Basis Set:
  Charge       = 0
  Multiplicity = 1
  Basis Set: CC-PVTZ
  Basis Set:

    Orbital Energies (a.u.)
    -----------------------

    Doubly Occupied:

       1A    -20.539535     2A    -11.273206     3A    -11.258899
       4A    -11.208818     5A    -11.208365     6A     -1.371292
       7A     -1.051021     8A     -0.940381     9A     -0.931722
      10A     -0.781765    11A     -0.677263    12A     -0.640277
      13A     -0.633691    14A     -0.570505    15A     -0.563533
      16A     -0.552542    17A     -0.537938    18A     -0.501412
      19A     -0.498442    20A     -0.443625    21A     -0.405963

  @DF-RHF Final Energy:  -232.22405385417690

   => Energetics <=

    Nuclear Repulsion Energy =            198.8970359950575073
    One-Electron Energy =                -709.0617870463629515
    Two-Electron Energy =                 277.9406971971282587
    DFT Exchange-Correlation Energy =       0.0000000000000000
    Empirical Dispersion Energy =           0.0000000000000000
    PCM Polarization Energy =               0.0000000000000000
    EFP Energy =                            0.0000000000000000
    Total Energy =                       -232.2240538541771571
    Molecular point group: c1
  Basis Set: CC-PVTZ
  Basis Set:

  -Total Gradient:
     Atom            X                  Y                   Z
    ------   -----------------  -----------------  -----------------
       1        0.000031281359     0.001202018564     0.000015884477
       2        0.000348720975    -0.001362727543     0.000252300977
       3       -0.001085388117    -0.000259386171    -0.000873247626
       4       -0.000005432031     0.000010427862     0.000012268222
       5        0.000021080852    -0.000026972355    -0.000020523088
       6        0.000789984097     0.000360347843     0.000508509563
       7       -0.000047119280     0.000002659453     0.000014429501
       8       -0.000033848740     0.000035044334     0.000063422166
       9        0.000020348300     0.000005898721    -0.000013036329
      10       -0.000006785065     0.000004164071     0.000006776956
      11       -0.000016378296     0.000014765090    -0.000006442769
      12       -0.000000996743    -0.000003438456     0.000008966083
      13       -0.000003625512     0.000005296957     0.000010533488
      14        0.000013934313     0.000020794238     0.000002763480
      15       -0.000025776112    -0.000008892609     0.000017394898

  **** Optimization is complete! (in 6 steps) ****
    Final optimized geometry and variables:
    Molecular point group: c1

    Geometry (in Angstrom), charge = 0, multiplicity = 1:

    H           -2.199224637645     1.000410893561     0.483747222498
    C           -1.181104028346     0.975039009172     0.857648124005
    O           -0.275431225295     0.993550029595    -0.203871596492
    H           -1.023362020711     1.858247519352     1.464616871073
    H           -1.072608390634     0.107610803628     1.495774406526
    C            0.474533177718    -0.160266765713    -0.490596363138
    C            1.473764344489    -0.490176013022     0.612474274471
    C           -0.405986075604    -1.347688485157    -0.862467881578
    H            1.038877199753     0.120850975947    -1.371052929022
    H            2.069788610530     0.382517555066     0.848877049488
    H            2.140042108137    -1.280308452957     0.285406709076
    H            0.987675914871    -0.827761013686     1.520479642538
    H           -1.096084103483    -1.070319932681    -1.649815138546
    H            0.205811530431    -2.168372762485    -1.218995290715
    H           -0.980457638767    -1.709451352344    -0.017239743463

  Mulliken Charges: (a.u.)
   Center  Symbol    Alpha    Beta     Spin     Total
       1     H     0.45712  0.45712  0.00000  0.08576
       2     C     3.03883  3.03883  0.00000 -0.07766
       3     O     4.18745  4.18745  0.00000 -0.37491
       4     H     0.45020  0.45020  0.00000  0.09961
       5     H     0.46921  0.46921  0.00000  0.06158
       6     C     2.93945  2.93945  0.00000  0.12110
       7     C     3.15474  3.15474  0.00000 -0.30948
       8     C     3.15497  3.15497  0.00000 -0.30995
       9     H     0.44607  0.44607  0.00000  0.10786
      10     H     0.44480  0.44480  0.00000  0.11039
      11     H     0.45085  0.45085  0.00000  0.09830
      12     H     0.45544  0.45544  0.00000  0.08911
      13     H     0.44498  0.44498  0.00000  0.11003
      14     H     0.45016  0.45016  0.00000  0.09968
      15     H     0.45571  0.45571  0.00000  0.08858

   Total alpha = 21.00000, Total beta = 21.00000, Total charge = -0.00000
