  ==> Input File <==

--------------------------------------------------------------------------
set {
	reference rhf
	basis 6-31G*
}

set_num_threads( 4 )
memory 2 gb

molecule MOL {
0 1

H	 -0.184947	 -0.311062	 -2.196967
C	 0.153411	 0.669890	 -1.840663
C	 0.065331	 0.871482	 -0.349150
O	 0.555659	 1.479071	 -2.612119
C	 -1.339775	 0.583656	 0.198860
H	 0.379950	 1.883502	 -0.121679
H	 0.777023	 0.187432	 0.110994
C	 -1.808407	 -0.848507	 -0.061364
H	 -2.036183	 1.280685	 -0.256307
H	 -1.360094	 0.788874	 1.267089
H	 -1.828843	 -1.063152	 -1.125336
H	 -2.808409	 -1.004529	 0.329750
H	 -1.153967	 -1.577789	 0.406873

	symmetry c1
}
set optking {
	frozen_dihedral = ("
		6 3 5 9
	")
}

ee = optimize('scf')
oeprop('DIPOLE', 'QUADRUPOLE', 'MULLIKEN_CHARGES')
f=open( 'psi4out.xyz', 'w' )
f.write( "13  " )
f.write( str(ee) + "\n" )
f.write( MOL.save_string_xyz() )
f.close()
--------------------------------------------------------------------------

    Molecular point group: c1
  Charge       = 0
  Multiplicity = 1
  Basis Set: 6-31G*
  Basis Set:
  @DF-RHF Final Energy:  -230.98159527678342
    Total Energy =                       -230.9815952767834801
    Molecular point group: c1
  Basis Set: 6-31G*
  Basis Set:
  Basis Set: 6-31G*
  Basis Set:
  @DF-RHF Final Energy:  -230.98195148117560
    Total Energy =                       -230.9819514811754289
  Basis Set: 6-31G*
  Basis Set:
  Basis Set: 6-31G*
  Basis Set:
  @DF-RHF Final Energy:  -230.97807221118785
    Total Energy =                       -230.9780722111879641
  Basis Set: 6-31G*
  Basis Set:
  Basis Set: 6-31G*
  Basis Set:
  @DF-RHF Final Energy:  -230.98266820054388
    Total Energy =                       -230.9826682005438272
  Basis Set: 6-31G*
  Basis Set:
  @DF-RHF Final Energy:  -230.98289425944242
    Total Energy =                       -230.9828942594423040
  @DF-RHF Final Energy:  -230.98292742560412
    Total Energy =                       -230.9829274256040890
  Basis Set: 6-31G*
  Basis Set:
  @DF-RHF Final Energy:  -230.98295695719489
    Total Energy =                       -230.9829569571948866
  Basis Set: 6-31G*
  Basis Set:
  Basis Set: 6-31G*
  Basis Set:
  @DF-RHF Final Energy:  -230.98298676533318
    Total Energy =                       -230.9829867653330950
  Basis Set: 6-31G*
  Basis Set:
  Basis Set: 6-31G*
  Basis Set:
  @DF-RHF Final Energy:  -230.98298963486391
    Total Energy =                       -230.9829896348639409
  Basis Set: 6-31G*
  Basis Set:
  Charge       = 0
  Multiplicity = 1
  Basis Set: 6-31G*
  Basis Set:

    Orbital Energies (a.u.)
    -----------------------

    Doubly Occupied:

       1A    -20.562673     2A    -11.325996     3A    -11.238972
       4A    -11.235243     5A    -11.225457     6A     -1.402121
       7A     -1.085227     8A     -0.973426     9A     -0.854971
      10A     -0.779528    11A     -0.680624    12A     -0.645322
      13A     -0.607002    14A     -0.601654    15A     -0.568839
      16A     -0.533035    17A     -0.507442    18A     -0.494682
      19A     -0.480795    20A     -0.408714

  @DF-RHF Final Energy:  -230.98298979007353

   => Energetics <=

    Nuclear Repulsion Energy =            173.1968255667169956
    One-Electron Energy =                -655.9361832095985392
    Two-Electron Energy =                 251.7563678528078128
    DFT Exchange-Correlation Energy =       0.0000000000000000
    Empirical Dispersion Energy =           0.0000000000000000
    PCM Polarization Energy =               0.0000000000000000
    EFP Energy =                            0.0000000000000000
    Total Energy =                       -230.9829897900737308
    Molecular point group: c1
  Basis Set: 6-31G*
  Basis Set:

  -Total Gradient:
     Atom            X                  Y                   Z
    ------   -----------------  -----------------  -----------------
       1       -0.000006685567    -0.000009827961     0.000005358366
       2        0.000012014766     0.000013203856    -0.000010532295
       3        0.000223403599    -0.000107617220     0.000484741839
       4       -0.000005630627    -0.000010342694     0.000019555048
       5       -0.000124716460    -0.000310074817    -0.000448317502
       6       -0.000160095105     0.000135144506    -0.000344199312
       7       -0.000008956339     0.000004163621    -0.000006487861
       8        0.000005729144     0.000011730903    -0.000002336610
       9        0.000076871551     0.000253496152     0.000291771428
      10       -0.000014005257     0.000007323676     0.000016121742
      11       -0.000004951801    -0.000001594235    -0.000003846444
      12        0.000000725901     0.000004644618     0.000011325020
      13        0.000006296193     0.000009749594    -0.000013153414

  **** Optimization is complete! (in 10 steps) ****
    Final optimized geometry and variables:
    Molecular point group: c1

    Geometry (in Angstrom), charge = 0, multiplicity = 1:

    H            0.704875215234    -0.908765546498    -1.288256855440
    C            0.728489713936     0.115781705107    -0.903237984200
    C            0.619011685877     0.268119880469     0.593776820674
    O            0.826173537274     1.030352295467    -1.656964694565
    C           -0.808492688560     0.018383117360     1.114597533973
    H            0.930654653061     1.276048735516     0.840609320503
    H            1.304993583771    -0.431580968023     1.066935370017
    C           -1.325557163322    -1.405595626058     0.899865136541
    H           -1.482776492787     0.731408086284     0.649011627429
    H           -0.815145078442     0.241103387326     2.177133310109
    H           -1.433219294305    -1.647924545811    -0.152659087148
    H           -2.300055560426    -1.529032967564     1.360333647903
    H           -0.656002931801    -2.137443540433     1.342963949885

  Mulliken Charges: (a.u.)
   Center  Symbol    Alpha    Beta     Spin     Total
       1     H     0.42954  0.42954  0.00000  0.14091
       2     C     2.83510  2.83510  0.00000  0.32981
       3     C     3.20579  3.20579  0.00000 -0.41157
       4     O     4.23695  4.23695  0.00000 -0.47390
       5     C     3.16245  3.16245  0.00000 -0.32490
       6     H     0.39852  0.39852  0.00000  0.20296
       7     H     0.41368  0.41368  0.00000  0.17263
       8     C     3.24559  3.24559  0.00000 -0.49117
       9     H     0.40995  0.40995  0.00000  0.18010
      10     H     0.41216  0.41216  0.00000  0.17569
      11     H     0.41817  0.41817  0.00000  0.16366
      12     H     0.41292  0.41292  0.00000  0.17417
      13     H     0.41919  0.41919  0.00000  0.16162

   Total alpha = 20.00000, Total beta = 20.00000, Total charge =  0.00000
