                              Psi4 1.0.54 Driver

  ==> Input File <==

--------------------------------------------------------------------------
set {
	reference rhf
	basis cc-pvtz
}

set_num_threads( 4 )
memory 2 gb

molecule MOL {
0 1

H	 1.744326	 -5.392316	 -0.031612
O	 2.580645	 -5.157505	 -0.388354
C	 2.414871	 -4.346070	 -1.521211
C	 1.954036	 -2.933681	 -1.193381
H	 3.383178	 -4.308339	 -2.001770
H	 1.724873	 -4.810614	 -2.223033
C	 0.554505	 -2.855307	 -0.587559
H	 2.672430	 -2.484949	 -0.513890
H	 1.981623	 -2.351708	 -2.111501
C	 0.113298	 -1.420414	 -0.302504
H	 0.529040	 -3.430556	 0.331920
H	 -0.158526	 -3.319325	 -1.266942
C	 -1.311023	 -1.277304	 0.237018
H	 0.809610	 -0.965346	 0.397703
H	 0.191364	 -0.846434	 -1.221699
C	 -2.041121	 -0.006551	 -0.194127
H	 -1.888548	 -2.136293	 -0.093331
H	 -1.289731	 -1.328757	 1.323321
C	 -3.489218	 0.042606	 0.286507
H	 -2.022185	 0.066287	 -1.279394
H	 -1.518764	 0.869305	 0.178730
C	 -4.219984	 1.311773	 -0.139038
H	 -4.022855	 -0.824300	 -0.093339
H	 -3.510372	 -0.038577	 1.370031
H	 -4.244251	 1.405725	 -1.219696
H	 -5.244345	 1.313233	 0.215630
H	 -3.732090	 2.196311	 0.257073

	symmetry c1
}
set optking {
	frozen_dihedral = ("
		14 10 13 16
	")
}

ee,wfn = optimize('scf', return_wfn=True)
oeprop( wfn, 'DIPOLE', 'QUADRUPOLE', 'MULLIKEN_CHARGES')
f=open( 'psi4out.xyz', 'w' )
f.write( "27  " )
f.write( str(ee) + "\n" )
f.write( MOL.save_string_xyz() )
f.close()
--------------------------------------------------------------------------

    Molecular point group: c1
  Charge       = 0
  Multiplicity = 1
  Basis Set: CC-PVTZ
  Basis Set:
  @DF-RHF Final Energy:  -388.42604640026110
    Total Energy =                       -388.4260464002610433
    Molecular point group: c1
  Basis Set: CC-PVTZ
  Basis Set:
  Basis Set: CC-PVTZ
  Basis Set:
  @DF-RHF Final Energy:  -388.42651318463402
    Total Energy =                       -388.4265131846339045
  Basis Set: CC-PVTZ
  Basis Set:
  Basis Set: CC-PVTZ
  Basis Set:
  @DF-RHF Final Energy:  -388.42679881294146
    Total Energy =                       -388.4267988129410014
  Basis Set: CC-PVTZ
  Basis Set:
  Basis Set: CC-PVTZ
  Basis Set:
  @DF-RHF Final Energy:  -388.42681105031579
    Total Energy =                       -388.4268110503165872
  Basis Set: CC-PVTZ
  Basis Set:
  Basis Set: CC-PVTZ
  Basis Set:
  @DF-RHF Final Energy:  -388.42681939865923
    Total Energy =                       -388.4268193986589495
  Basis Set: CC-PVTZ
  Basis Set:
  Charge       = 0
  Multiplicity = 1
  Basis Set: CC-PVTZ
  Basis Set:

    Orbital Energies (a.u.)
    -----------------------

    Doubly Occupied:

       1A    -20.545157     2A    -11.264966     3A    -11.217442
       4A    -11.214344     5A    -11.213575     6A    -11.213201
       7A    -11.212865     8A    -11.212021     9A    -11.207075
      10A     -1.363103    11A     -1.095423    12A     -1.063609
      13A     -1.012405    14A     -0.951381    15A     -0.883047
      16A     -0.820987    17A     -0.792246    18A     -0.790249
      19A     -0.696526    20A     -0.657986    21A     -0.634162
      22A     -0.616576    23A     -0.604696    24A     -0.585394
      25A     -0.576873    26A     -0.556338    27A     -0.534425
      28A     -0.526028    29A     -0.508915    30A     -0.497898
      31A     -0.478639    32A     -0.475825    33A     -0.469855
      34A     -0.462214    35A     -0.458688    36A     -0.444118
      37A     -0.422511

  @DF-RHF Final Energy:  -388.42681994565720

   => Energetics <=

    Nuclear Repulsion Energy =            452.0447425325393738
    One-Electron Energy =               -1422.3816005487005896
    Two-Electron Energy =                 581.9100380705040152
    DFT Exchange-Correlation Energy =       0.0000000000000000
    Empirical Dispersion Energy =           0.0000000000000000
    PCM Polarization Energy =               0.0000000000000000
    EFP Energy =                            0.0000000000000000
    Total Energy =                       -388.4268199456571438
    Molecular point group: c1
  Basis Set: CC-PVTZ
  Basis Set:

  -Total Gradient:
     Atom            X                  Y                   Z
    ------   -----------------  -----------------  -----------------
       1        0.000004254443    -0.000008135227    -0.000007125303
       2        0.000037415685    -0.000012049136     0.000043031131
       3       -0.000066195005    -0.000002796424    -0.000031964377
       4        0.000017803005    -0.000001601275     0.000016770174
       5        0.000015897487    -0.000005364657     0.000000131083
       6       -0.000002384509    -0.000000968312    -0.000022784073
       7        0.000019988246    -0.000019040131     0.000000996280
       8        0.000005386558     0.000007029790     0.000010738468
       9        0.000005824511     0.000011701679    -0.000004208862
      10       -0.001054968533     0.004009499623    -0.003289713500
      11        0.000003460862     0.000013582988     0.000011091139
      12       -0.000016817374     0.000002089185    -0.000006465434
      13        0.001585354156     0.001089682064     0.003880707696
      14        0.000507820009    -0.003695778478     0.001849169566
      15       -0.000002503133     0.000000676584     0.000014443726
      16       -0.001084512099    -0.001385791708    -0.002483374738
      17        0.000003048455    -0.000006072629     0.000001255545
      18        0.000004670341     0.000006227510    -0.000002620501
      19        0.000009962171     0.000018638138     0.000023737001
      20        0.000012833077    -0.000007822615    -0.000000123021
      21       -0.000004593272    -0.000004712838     0.000004592483
      22        0.000006187846    -0.000010933787    -0.000014244113
      23        0.000002770995     0.000004432432     0.000002741341
      24       -0.000002347532     0.000001056950     0.000003359004
      25        0.000000890105     0.000005280697    -0.000005911793
      26       -0.000009020708    -0.000003749598     0.000000128493
      27       -0.000000225779    -0.000005080827     0.000005642583

  **** Optimization is complete! (in 6 steps) ****
    Final optimized geometry and variables:
    Molecular point group: c1

    Geometry (in Angstrom), charge = 0, multiplicity = 1:

    H            2.003794376836    -3.494170541904     0.378207153429
    O            2.871879219252    -3.275671101422     0.094665512210
    C            2.819064106214    -2.442424651516    -1.033115049023
    C            2.353019192946    -1.028312219896    -0.720481396770
    H            3.826389824047    -2.413369689753    -1.426065229670
    H            2.186232808208    -2.882934237617    -1.801170362901
    C            0.908737051368    -0.936981844691    -0.235172359840
    H            3.017839973676    -0.602269692813     0.024784890919
    H            2.466652648963    -0.431744476053    -1.622681244596
    C            0.447349913225     0.498056692298     0.017286118882
    H            0.794586245264    -1.505344756941     0.684653248369
    H            0.251366044035    -1.399279051301    -0.968898997530
    C           -0.977993884698     0.582548532523     0.577888430824
    H            1.140064127718     0.948408521740     0.722294696677
    H            0.518629596445     1.062552448277    -0.907378717854
    C           -1.717898236672     1.856417691611     0.177863056317
    H           -1.553094026844    -0.268684831624     0.221454247965
    H           -0.951210318813     0.493954682776     1.659883835038
    C           -3.119104250121     1.958881050899     0.772811762935
    H           -1.783951643732     1.899331805886    -0.906515673827
    H           -1.136823899902     2.725188713430     0.480291456420
    C           -3.859508887326     3.223529827902     0.350512919085
    H           -3.698208577532     1.087668645695     0.478305089916
    H           -3.051811284815     1.926384812402     1.856811641673
    H           -3.973706080678     3.268770171524    -0.727526243749
    H           -4.849836229815     3.264520158523     0.789393069470
    H           -3.322849096246     4.113539223376     0.662015338610

  Mulliken Charges: (a.u.)
   Center  Symbol    Alpha    Beta     Spin     Total
       1     H     0.39239  0.39239  0.00000  0.21523
       2     O     4.20576  4.20576  0.00000 -0.41152
       3     C     2.97987  2.97987  0.00000  0.04025
       4     C     3.08945  3.08945  0.00000 -0.17890
       5     H     0.44862  0.44862  0.00000  0.10275
       6     H     0.47000  0.47000  0.00000  0.06001
       7     C     3.10224  3.10224  0.00000 -0.20448
       8     H     0.45091  0.45091  0.00000  0.09818
       9     H     0.45584  0.45584  0.00000  0.08833
      10     C     3.09140  3.09140  0.00000 -0.18280
      11     H     0.45655  0.45655  0.00000  0.08690
      12     H     0.45382  0.45382  0.00000  0.09235
      13     C     3.09148  3.09148  0.00000 -0.18296
      14     H     0.45152  0.45152  0.00000  0.09696
      15     H     0.45307  0.45307  0.00000  0.09386
      16     C     3.08669  3.08669  0.00000 -0.17338
      17     H     0.45637  0.45637  0.00000  0.08726
      18     H     0.45169  0.45169  0.00000  0.09661
      19     C     3.08465  3.08465  0.00000 -0.16930
      20     H     0.45528  0.45528  0.00000  0.08943
      21     H     0.45412  0.45412  0.00000  0.09177
      22     C     3.15011  3.15011  0.00000 -0.30023
      23     H     0.45478  0.45478  0.00000  0.09044
      24     H     0.45446  0.45446  0.00000  0.09109
      25     H     0.45542  0.45542  0.00000  0.08916
      26     H     0.44846  0.44846  0.00000  0.10308
      27     H     0.45504  0.45504  0.00000  0.08992

   Total alpha = 37.00000, Total beta = 37.00000, Total charge = -0.00000

*** Psi4 exiting successfully. Buy a developer a beer!
