  ==> Input File <==

--------------------------------------------------------------------------
set {
	reference rhf
	basis cc-pvtz
}

set_num_threads( 4 )
memory 2 gb

molecule MOL {
0 1

O	 0.395927	 1.296676	 -0.000076
C	 0.503051	 0.114301	 -0.000074
C	 -0.701422	 -0.805636	 -0.000109
C	 1.858118	 -0.556123	 0.000212
C	 -0.420834	 -2.194344	 -0.552235
H	 -1.071099	 -0.861512	 1.020505
H	 -1.488612	 -0.314852	 -0.566591
H	 0.345692	 -2.693719	 0.025078
H	 -1.319467	 -2.798926	 -0.524068
H	 -0.075525	 -2.142231	 -1.576089
H	 1.961106	 -1.191101	 -0.872843
H	 2.636688	 0.191085	 -0.000109
H	 1.961070	 -1.190284	 0.873873

	symmetry c1
}
set optking {
	frozen_dihedral = ("
		6 3 2 1
	")
}

ee = optimize('scf')
oeprop('DIPOLE', 'QUADRUPOLE', 'MULLIKEN_CHARGES')
f=open( 'psi4out.xyz', 'w' )
f.write( "13  " )
f.write( str(ee) + "\n" )
f.write( MOL.save_string_xyz() )
f.close()
--------------------------------------------------------------------------

    Molecular point group: c1
  Charge       = 0
  Multiplicity = 1
  Basis Set: CC-PVTZ
  Basis Set:
  @DF-RHF Final Energy:  -231.07793012069936
    Total Energy =                       -231.0779301206993637
    Molecular point group: c1
  Basis Set: CC-PVTZ
  Basis Set:
  Basis Set: CC-PVTZ
  Basis Set:
  @DF-RHF Final Energy:  -231.07866066104754
    Total Energy =                       -231.0786606610477634
  Basis Set: CC-PVTZ
  Basis Set:
  Basis Set: CC-PVTZ
  Basis Set:
  @DF-RHF Final Energy:  -231.07957843874891
    Total Energy =                       -231.0795784387489107
  Basis Set: CC-PVTZ
  Basis Set:
  Basis Set: CC-PVTZ
  Basis Set:
  @DF-RHF Final Energy:  -231.07977637856055
    Total Energy =                       -231.0797763785604104
  Basis Set: CC-PVTZ
  Basis Set:
  Basis Set: CC-PVTZ
  Basis Set:
  @DF-RHF Final Energy:  -231.07975669393176
    Total Energy =                       -231.0797566939316425
  Basis Set: CC-PVTZ
  Basis Set:
  Basis Set: CC-PVTZ
  Basis Set:
  @DF-RHF Final Energy:  -231.07982101144754
    Total Energy =                       -231.0798210114474784
  Basis Set: CC-PVTZ
  Basis Set:
  Basis Set: CC-PVTZ
  Basis Set:
  @DF-RHF Final Energy:  -231.07982208050942
    Total Energy =                       -231.0798220805097571
  Basis Set: CC-PVTZ
  Basis Set:
  Charge       = 0
  Multiplicity = 1
  Basis Set: CC-PVTZ
  Basis Set:

    Orbital Energies (a.u.)
    -----------------------

    Doubly Occupied:

       1A    -20.536522     2A    -11.321447     3A    -11.232880
       4A    -11.227520     5A    -11.227034     6A     -1.397641
       7A     -1.068175     8A     -0.995050     9A     -0.891771
      10A     -0.732870    11A     -0.655024    12A     -0.645568
      13A     -0.626542    14A     -0.586483    15A     -0.558119
      16A     -0.546389    17A     -0.530957    18A     -0.513054
      19A     -0.478932    20A     -0.401956

  @DF-RHF Final Energy:  -231.07982227383383

   => Energetics <=

    Nuclear Repulsion Energy =            177.0857799179470362
    One-Electron Energy =                -663.9833333638980548
    Two-Electron Energy =                 255.8177311721173339
    DFT Exchange-Correlation Energy =       0.0000000000000000
    Empirical Dispersion Energy =           0.0000000000000000
    PCM Polarization Energy =               0.0000000000000000
    EFP Energy =                            0.0000000000000000
    Total Energy =                       -231.0798222738336847
    Molecular point group: c1
  Basis Set: CC-PVTZ
  Basis Set:

  -Total Gradient:
     Atom            X                  Y                   Z
    ------   -----------------  -----------------  -----------------
       1        0.000012062350    -0.000000231046     0.001560175163
       2       -0.000186573860     0.000236019010    -0.002207643602
       3        0.001083507048    -0.001418909104     0.000919035753
       4       -0.000002370601     0.000003773743    -0.000032747849
       5        0.000001578641    -0.000006227851    -0.000006297938
       6       -0.000914445017     0.001191638922    -0.000256310746
       7        0.000009921647    -0.000003225138    -0.000003426299
       8       -0.000000378298     0.000005925322     0.000002165686
       9       -0.000003271202    -0.000000640466     0.000000104054
      10        0.000002049485    -0.000002642457     0.000000209964
      11       -0.000000801475    -0.000002487514     0.000009647169
      12       -0.000002454992    -0.000000786567     0.000005116596
      13        0.000001176273    -0.000002206849     0.000009972048

  **** Optimization is complete! (in 8 steps) ****
    Final optimized geometry and variables:
    Molecular point group: c1

    Geometry (in Angstrom), charge = 0, multiplicity = 1:

    O            0.037090392432     1.723456276995     0.102002977623
    C            0.192359492254     0.545733917842     0.096784247109
    C           -1.015724941382    -0.377966394156     0.108493748170
    C            1.577153535405    -0.056370904812     0.141700302926
    C           -0.823578493968    -1.789685296564    -0.435773171061
    H           -1.347107739734    -0.414866434972     1.143218129183
    H           -1.797702168115     0.138118232291    -0.432987607987
    H           -0.093261866646    -2.352127535816     0.132466970616
    H           -1.759560398739    -2.332116254120    -0.391022283219
    H           -0.503528689958    -1.776151473700    -1.471441887099
    H            1.766007558498    -0.642348014554    -0.750178909382
    H            2.307113859632     0.734389754003     0.217190657818
    H            1.670370429474    -0.724304303398     0.991158992542

  Mulliken Charges: (a.u.)
   Center  Symbol    Alpha    Beta     Spin     Total
       1     O     4.17417  4.17417  0.00000 -0.34835
       2     C     2.85877  2.85877  0.00000  0.28246
       3     C     3.09701  3.09701  0.00000 -0.19402
       4     C     3.16067  3.16067  0.00000 -0.32134
       5     C     3.15761  3.15761  0.00000 -0.31521
       6     H     0.44350  0.44350  0.00000  0.11300
       7     H     0.43674  0.43674  0.00000  0.12652
       8     H     0.45241  0.45241  0.00000  0.09518
       9     H     0.44128  0.44128  0.00000  0.11743
      10     H     0.44921  0.44921  0.00000  0.10159
      11     H     0.44817  0.44817  0.00000  0.10367
      12     H     0.43213  0.43213  0.00000  0.13573
      13     H     0.44833  0.44833  0.00000  0.10333

   Total alpha = 20.00000, Total beta = 20.00000, Total charge = -0.00000
