                              Psi4 1.0.54 Driver

  ==> Input File <==

--------------------------------------------------------------------------
set {
	reference rhf
	basis cc-pvtz
}

set_num_threads( 4 )
memory 2 gb

molecule MOL {
0 1

O	 -2.071633	 -1.227563	 -0.223463
C	 -1.652164	 -0.152425	 0.058082
C	 -0.327811	 0.006324	 0.778296
C	 -2.402515	 1.108629	 -0.298924
C	 0.843231	 -0.001575	 -0.211665
H	 -0.319484	 0.928173	 1.350354
H	 -0.227804	 -0.823091	 1.466705
C	 2.197693	 0.138030	 0.476937
H	 0.722944	 0.805202	 -0.930230
H	 0.813976	 -0.926978	 -0.776588
C	 3.091660	 1.184765	 -0.179060
H	 2.046125	 0.395739	 1.521512
H	 2.702036	 -0.823802	 0.469327
H	 2.628930	 2.165766	 -0.155586
H	 3.286986	 0.936897	 -1.216739
H	 4.046025	 1.257453	 0.329176
H	 -3.240910	 0.874416	 -0.936711
H	 -1.747554	 1.818823	 -0.790984
H	 -2.760419	 1.579708	 0.610998

	symmetry c1
}
set optking {
	frozen_dihedral = ("
		11 8 5 9
	")
}

ee,wfn = optimize('scf', return_wfn=True)
oeprop( wfn, 'DIPOLE', 'QUADRUPOLE', 'MULLIKEN_CHARGES')
f=open( 'psi4out.xyz', 'w' )
f.write( "19  " )
f.write( str(ee) + "\n" )
f.write( MOL.save_string_xyz() )
f.close()
--------------------------------------------------------------------------

    Molecular point group: c1
  Charge       = 0
  Multiplicity = 1
  Basis Set: CC-PVTZ
  Basis Set:
  @DF-RHF Final Energy:  -309.17190069490169
    Total Energy =                       -309.1719006949020923
    Molecular point group: c1
  Basis Set: CC-PVTZ
  Basis Set:
  Basis Set: CC-PVTZ
  Basis Set:
  @DF-RHF Final Energy:  -309.17211609013185
    Total Energy =                       -309.1721160901319081
  Basis Set: CC-PVTZ
  Basis Set:
  Basis Set: CC-PVTZ
  Basis Set:
  @DF-RHF Final Energy:  -309.17209658951538
    Total Energy =                       -309.1720965895152631
  Basis Set: CC-PVTZ
  Basis Set:
  Basis Set: CC-PVTZ
  Basis Set:
  @DF-RHF Final Energy:  -309.17214259888863
    Total Energy =                       -309.1721425988883993
  Basis Set: CC-PVTZ
  Basis Set:
  Basis Set: CC-PVTZ
  Basis Set:
  @DF-RHF Final Energy:  -309.17221908728322
    Total Energy =                       -309.1722190872832243
  Basis Set: CC-PVTZ
  Basis Set:
  Basis Set: CC-PVTZ
  Basis Set:
  @DF-RHF Final Energy:  -309.17222503551648
    Total Energy =                       -309.1722250355165897
  Basis Set: CC-PVTZ
  Basis Set:
  Charge       = 0
  Multiplicity = 1
  Basis Set: CC-PVTZ
  Basis Set:

    Orbital Energies (a.u.)
    -----------------------

    Doubly Occupied:

       1A    -20.537080     2A    -11.319393     3A    -11.228836
       4A    -11.228168     5A    -11.227028     6A    -11.222873
       7A    -11.214594     8A     -1.397193     9A     -1.090856
      10A     -1.030139    11A     -0.985021    12A     -0.891449
      13A     -0.808040    14A     -0.735897    15A     -0.663144
      16A     -0.645970    17A     -0.622814    18A     -0.615138
      19A     -0.589758    20A     -0.571586    21A     -0.557398
      22A     -0.534852    23A     -0.514969    24A     -0.505599
      25A     -0.483042    26A     -0.471030    27A     -0.468633
      28A     -0.399050

  @DF-RHF Final Energy:  -309.17222555975729

   => Energetics <=

    Nuclear Repulsion Energy =            302.0858034167483765
    One-Electron Energy =               -1017.3969628296837300
    Two-Electron Energy =                 406.1389338531780595
    DFT Exchange-Correlation Energy =       0.0000000000000000
    Empirical Dispersion Energy =           0.0000000000000000
    PCM Polarization Energy =               0.0000000000000000
    EFP Energy =                            0.0000000000000000
    Total Energy =                       -309.1722255597572939
    Molecular point group: c1
  Basis Set: CC-PVTZ
  Basis Set:

  -Total Gradient:
     Atom            X                  Y                   Z
    ------   -----------------  -----------------  -----------------
       1        0.000038799698     0.000100372725     0.000030760577
       2        0.000007803566    -0.000013463073    -0.000044557522
       3       -0.000033226426    -0.000027681403     0.000028386338
       4       -0.000022542283    -0.000027547057     0.000001753924
       5       -0.001687342281     0.002761415996     0.002922712091
       6       -0.000015221091    -0.000018985124    -0.000013686498
       7        0.000007688548     0.000017537825    -0.000004093343
       8        0.001333540232    -0.002620315018    -0.002174081139
       9        0.001099497367    -0.001794679086    -0.002001331100
      10       -0.000004637476     0.000053437310     0.000001906261
      11       -0.000705586768     0.001578593717     0.001246377511
      12        0.000014693246    -0.000003880365    -0.000033973578
      13       -0.000016509883     0.000045468884     0.000024905300
      14        0.000014251847    -0.000020604827     0.000005058809
      15       -0.000004960739     0.000007831825     0.000009578905
      16       -0.000036955112    -0.000013406062    -0.000011663115
      17        0.000014913493     0.000010492426     0.000008898733
      18       -0.000011755704    -0.000028242649     0.000014643290
      19        0.000007549762    -0.000006346047    -0.000011595445

  **** Optimization is complete! (in 7 steps) ****
    Final optimized geometry and variables:
    Molecular point group: c1

    Geometry (in Angstrom), charge = 0, multiplicity = 1:

    O           -2.069882414425    -1.346532930816    -0.203949047016
    C           -1.627127837849    -0.270755821094     0.036324139899
    C           -0.291773775081    -0.113046337982     0.736179963999
    C           -2.358126416324     0.991621877480    -0.354288717500
    C            0.868216404829    -0.169994797725    -0.264482954582
    H           -0.260579740930     0.825243422088     1.280111123410
    H           -0.196200557142    -0.922984061166     1.448187954006
    C            2.253132084677    -0.067378349787     0.403445079330
    H            0.762079012060     0.615138966983    -1.006996573447
    H            0.794610929499    -1.100190916212    -0.815390211116
    C            3.189647778409     0.916492655304    -0.290941097767
    H            2.134599951247     0.244356540844     1.436433691875
    H            2.713879292760    -1.047839676070     0.439534745656
    H            2.775658433789     1.919208679330    -0.278798302209
    H            3.353695312955     0.640344745452    -1.327352299154
    H            4.155861150355     0.949944449488     0.198942748078
    H           -3.206832500167     0.752325036871    -0.976308294585
    H           -1.695538868774     1.673719312525    -0.874883608909
    H           -2.698807787891     1.497823374160     0.543307041262

  Mulliken Charges: (a.u.)
   Center  Symbol    Alpha    Beta     Spin     Total
       1     O     4.17690  4.17690  0.00000 -0.35379
       2     C     2.85903  2.85903  0.00000  0.28195
       3     C     3.09887  3.09887  0.00000 -0.19774
       4     C     3.15542  3.15542  0.00000 -0.31083
       5     C     3.10267  3.10267  0.00000 -0.20534
       6     H     0.44918  0.44918  0.00000  0.10164
       7     H     0.43831  0.43831  0.00000  0.12339
       8     C     3.08750  3.08750  0.00000 -0.17500
       9     H     0.45179  0.45179  0.00000  0.09641
      10     H     0.43884  0.43884  0.00000  0.12231
      11     C     3.14828  3.14828  0.00000 -0.29655
      12     H     0.45413  0.45413  0.00000  0.09174
      13     H     0.44703  0.44703  0.00000  0.10593
      14     H     0.45612  0.45612  0.00000  0.08776
      15     H     0.45290  0.45290  0.00000  0.09419
      16     H     0.44782  0.44782  0.00000  0.10436
      17     H     0.43597  0.43597  0.00000  0.12806
      18     H     0.45084  0.45084  0.00000  0.09833
      19     H     0.44841  0.44841  0.00000  0.10319

   Total alpha = 28.00000, Total beta = 28.00000, Total charge = -0.00000

*** Psi4 exiting successfully. Buy a developer a beer!
