  ==> Input File <==

--------------------------------------------------------------------------
set {
	reference rhf
	basis 6-31G*
}

set_num_threads( 4 )
memory 2 gb

molecule MOL {
0 1

O	 3.225979	 0.970355	 -0.599647
C	 2.701189	 0.057885	 -0.047330
C	 1.245376	 -0.013843	 0.345420
O	 3.347903	 -1.046386	 0.304773
C	 0.455112	 1.231400	 -0.050772
H	 0.838542	 -0.913825	 -0.103701
H	 1.208210	 -0.175333	 1.419774
C	 -0.998893	 1.219485	 0.433193
H	 0.482531	 1.345121	 -1.130325
H	 0.957290	 2.103070	 0.354729
C	 -1.174103	 1.063775	 1.946522
H	 -1.512013	 0.398484	 -0.062177
H	 -1.498165	 2.129502	 0.103639
C	 -2.640655	 0.947069	 2.366765
H	 -0.633105	 0.179552	 2.280123
H	 -0.726733	 1.909111	 2.464441
C	 -2.828116	 0.796294	 3.877479
H	 -3.092610	 0.094560	 1.862583
H	 -3.184476	 1.826011	 2.024100
C	 -4.295245	 0.676529	 4.288441
H	 -2.284501	 -0.080984	 4.221728
H	 -2.380826	 1.649657	 4.382932
H	 -4.395466	 0.571061	 5.364284
H	 -4.762380	 -0.188660	 3.826459
H	 -4.859476	 1.555076	 3.988319
C	 4.728119	 -1.109107	 -0.004993
H	 4.882018	 -1.033965	 -1.071845
H	 5.068212	 -2.067527	 0.355250
H	 5.265056	 -0.311663	 0.488280

	symmetry c1
}
set optking {
	frozen_dihedral = ("
		11 8 5 9
	")
}

ee = optimize('scf')
oeprop('DIPOLE', 'QUADRUPOLE', 'MULLIKEN_CHARGES')
f=open( 'psi4out.xyz', 'w' )
f.write( "29  " )
f.write( str(ee) + "\n" )
f.write( MOL.save_string_xyz() )
f.close()
--------------------------------------------------------------------------

    Molecular point group: c1
  Charge       = 0
  Multiplicity = 1
  Basis Set: 6-31G*
  Basis Set:
  @DF-RHF Final Energy:  -501.04255536779715
    Total Energy =                       -501.0425553677973767
    Molecular point group: c1
  Basis Set: 6-31G*
  Basis Set:
  Basis Set: 6-31G*
  Basis Set:
  @DF-RHF Final Energy:  -501.04347426346931
    Total Energy =                       -501.0434742634693066
  Basis Set: 6-31G*
  Basis Set:
  Basis Set: 6-31G*
  Basis Set:
  @DF-RHF Final Energy:  -501.04387887005419
    Total Energy =                       -501.0438788700546411
  Basis Set: 6-31G*
  Basis Set:
  Basis Set: 6-31G*
  Basis Set:
  @DF-RHF Final Energy:  -501.04389805878213
    Total Energy =                       -501.0438980587821334
  Basis Set: 6-31G*
  Basis Set:
  Basis Set: 6-31G*
  Basis Set:
  @DF-RHF Final Energy:  -501.04390991331218
    Total Energy =                       -501.0439099133122909
  Basis Set: 6-31G*
  Basis Set:
  Basis Set: 6-31G*
  Basis Set:
  @DF-RHF Final Energy:  -501.04391501796295
    Total Energy =                       -501.0439150179631724
  Basis Set: 6-31G*
  Basis Set:
  Charge       = 0
  Multiplicity = 1
  Basis Set: 6-31G*
  Basis Set:

    Orbital Energies (a.u.)
    -----------------------

    Doubly Occupied:

       1A    -20.603307     2A    -20.545148     3A    -11.371920
       4A    -11.280610     5A    -11.234611     6A    -11.219138
       7A    -11.217648     8A    -11.216142     9A    -11.215937
      10A    -11.214549    11A    -11.209118    12A     -1.469066
      13A     -1.362503    14A     -1.098232    15A     -1.066768
      16A     -1.019354    17A     -0.977209    18A     -0.928678
      19A     -0.862296    20A     -0.799142    21A     -0.790624
      22A     -0.762899    23A     -0.700510    24A     -0.682474
      25A     -0.671963    26A     -0.651896    27A     -0.629117
      28A     -0.604422    29A     -0.594362    30A     -0.580824
      31A     -0.567360    32A     -0.549946    33A     -0.531228
      34A     -0.530119    35A     -0.516620    36A     -0.512439
      37A     -0.496217    38A     -0.478149    39A     -0.469705
      40A     -0.462017    41A     -0.459050    42A     -0.455659
      43A     -0.440911    44A     -0.435747

  @DF-RHF Final Energy:  -501.04391556515714

   => Energetics <=

    Nuclear Repulsion Energy =            610.8429579489724119
    One-Electron Energy =               -1892.8024838617466230
    Two-Electron Energy =                 780.9156103476168482
    DFT Exchange-Correlation Energy =       0.0000000000000000
    Empirical Dispersion Energy =           0.0000000000000000
    PCM Polarization Energy =               0.0000000000000000
    EFP Energy =                            0.0000000000000000
    Total Energy =                       -501.0439155651572491
    Molecular point group: c1
  Basis Set: 6-31G*
  Basis Set:

  -Total Gradient:
     Atom            X                  Y                   Z
    ------   -----------------  -----------------  -----------------
       1       -0.000064792081    -0.000127878162     0.000129435052
       2        0.000072461839     0.000070966035    -0.000059014245
       3       -0.000013749898    -0.000097765548    -0.000049552657
       4       -0.000020760657     0.000061259928    -0.000044036878
       5       -0.000093354464     0.001421131410     0.000147981427
       6        0.000024974385     0.000053971444     0.000054367454
       7        0.000030373190     0.000009630149    -0.000019193515
       8       -0.000064930838     0.001291256676     0.000116492684
       9        0.000048907228    -0.001524351452    -0.000150275537
      10       -0.000030219606    -0.000020315730    -0.000009365967
      11        0.000088163836    -0.001198518340    -0.000094048364
      12        0.000047910956     0.000012286896    -0.000003747978
      13       -0.000008752538    -0.000005478823     0.000003826088
      14       -0.000013219880     0.000047634931    -0.000022138552
      15        0.000018004672    -0.000006904135    -0.000003930474
      16       -0.000016487381    -0.000014081891    -0.000005383287
      17        0.000024631583     0.000026887113    -0.000000315010
      18        0.000002062968     0.000027304496     0.000020745976
      19       -0.000006097472    -0.000011087019     0.000007137076
      20       -0.000016899019    -0.000020531469    -0.000009019897
      21       -0.000004073462     0.000033211114    -0.000007944213
      22       -0.000018794420    -0.000013416868    -0.000014315573
      23       -0.000000444381    -0.000006541188    -0.000020768790
      24        0.000005622138     0.000022585978     0.000010861970
      25        0.000021156534    -0.000028019398     0.000012122274
      26        0.000035438041     0.000019548939    -0.000021520416
      27       -0.000002987004     0.000000268736     0.000060145229
      28       -0.000010361065     0.000023815919    -0.000009167806
      29       -0.000033783211    -0.000046869737    -0.000019376067

  **** Optimization is complete! (in 7 steps) ****
    Final optimized geometry and variables:
    Molecular point group: c1

    Geometry (in Angstrom), charge = 0, multiplicity = 1:

    O            2.802165736880     0.532771724943    -1.912668828830
    C            2.362718264534    -0.345169874972    -1.242610044091
    C            0.958097512510    -0.415732125045    -0.694013394895
    O            3.073064428588    -1.405791371667    -0.879269098294
    C            0.100279054775     0.785345214264    -1.088234665088
    H            0.518502108372    -1.344943720337    -1.047406501891
    H            1.043665484291    -0.518969267224     0.382563931959
    C           -1.366647529800     0.665158802845    -0.661185547372
    H            0.144226009459     0.892780970017    -2.166605028739
    H            0.535448795233     1.688543065328    -0.671809720422
    C           -1.596760647341     0.506102027990     0.844430774221
    H           -1.823019753979    -0.176255798972    -1.180658596237
    H           -1.891588011391     1.552652068158    -1.006599064990
    C           -3.078370782499     0.539879037454     1.224981027584
    H           -1.166692234904    -0.430761661238     1.190356721154
    H           -1.071663756002     1.298931601049     1.375650612407
    C           -3.323004801308     0.365563457390     2.724886149666
    H           -3.607178805897    -0.242188676005     0.682387471039
    H           -3.512586724858     1.483100476009     0.898076969112
    C           -4.805061048243     0.399555928022     3.096399125451
    H           -2.890857083370    -0.577405848296     3.053123922382
    H           -2.796960765038     1.147400466804     3.268571292398
    H           -4.946111780928     0.272154661238     4.165242721325
    H           -5.353528021379    -0.392137102467     2.593815874804
    H           -5.258493072582     1.345301365056     2.813466659634
    C            4.414827742167    -1.464869116512    -1.327591891792
    H            4.455021842217    -1.469014273023    -2.407280267087
    H            4.816905943184    -2.385789802929    -0.934959829881
    H            4.977670502545    -0.621433455313    -0.954534998097

  Mulliken Charges: (a.u.)
   Center  Symbol    Alpha    Beta     Spin     Total
       1     O     4.28594  4.28594  0.00000 -0.57187
       2     C     2.60482  2.60482  0.00000  0.79037
       3     C     3.21060  3.21060  0.00000 -0.42119
       4     O     4.30744  4.30744  0.00000 -0.61487
       5     C     3.15311  3.15311  0.00000 -0.30622
       6     H     0.40141  0.40141  0.00000  0.19718
       7     H     0.39848  0.39848  0.00000  0.20303
       8     C     3.15613  3.15613  0.00000 -0.31226
       9     H     0.40873  0.40873  0.00000  0.18254
      10     H     0.41319  0.41319  0.00000  0.17363
      11     C     3.15602  3.15602  0.00000 -0.31203
      12     H     0.42370  0.42370  0.00000  0.15259
      13     H     0.41820  0.41820  0.00000  0.16360
      14     C     3.15025  3.15025  0.00000 -0.30050
      15     H     0.42298  0.42298  0.00000  0.15403
      16     H     0.42306  0.42306  0.00000  0.15389
      17     C     3.15146  3.15146  0.00000 -0.30292
      18     H     0.42392  0.42392  0.00000  0.15217
      19     H     0.42324  0.42324  0.00000  0.15351
      20     C     3.23936  3.23936  0.00000 -0.47872
      21     H     0.42343  0.42343  0.00000  0.15314
      22     H     0.42286  0.42286  0.00000  0.15428
      23     H     0.41923  0.41923  0.00000  0.16154
      24     H     0.42179  0.42179  0.00000  0.15641
      25     H     0.42153  0.42153  0.00000  0.15693
      26     C     3.09239  3.09239  0.00000 -0.18478
      27     H     0.40912  0.40912  0.00000  0.18175
      28     H     0.40852  0.40852  0.00000  0.18295
      29     H     0.40910  0.40910  0.00000  0.18179

   Total alpha = 44.00000, Total beta = 44.00000, Total charge = -0.00000
