  ==> Input File <==

--------------------------------------------------------------------------
set {
	reference rhf
	basis 6-31G*
}

set_num_threads( 1 )
memory 2 gb

molecule MOL {
0 1

H	 -3.161837	 0.500524	 -0.000234
C	 -2.367097	 -0.232926	 -0.000000
O	 -1.158440	 0.455814	 -0.000122
H	 -2.468853	 -0.861886	 -0.882833
H	 -2.468942	 -0.861421	 0.883154
C	 -0.029776	 -0.365156	 0.000148
C	 -0.271111	 -1.530598	 -0.943337
H	 0.169136	 -0.729534	 1.008891
H	 0.847025	 0.202002	 -0.315224
C	 0.918729	 -2.487227	 -1.006758
H	 -1.160702	 -2.059914	 -0.616055
H	 -0.487505	 -1.134962	 -1.930933
H	 1.136934	 -2.913710	 -0.031605
H	 0.719508	 -3.308390	 -1.687088
H	 1.815236	 -1.981985	 -1.355197

	symmetry c1
}
set optking {
	frozen_dihedral = ("
		6 3 2 4,
		11 7 6 8
	")
}

ee = energy('scf')
oeprop('DIPOLE', 'QUADRUPOLE', 'MULLIKEN_CHARGES')
f=open( 'psi4out.xyz', 'w' )
f.write( "15  " )
f.write( str(ee) + "\n" )
f.write( MOL.save_string_xyz() )
f.close()
--------------------------------------------------------------------------

    Molecular point group: c1

    Geometry (in Angstrom), charge = 0, multiplicity = 1:

       Center              X                  Y                   Z               Mass
    ------------   -----------------  -----------------  -----------------  -----------------
           H         -2.559462258889     1.328790856742     0.382725122994     1.007825032070
           C         -1.764722258889     0.595340856742     0.382959122994    12.000000000000
           O         -0.556065258889     1.284080856742     0.382837122994    15.994914619560
           H         -1.866478258889    -0.033619143258    -0.499873877006     1.007825032070
           H         -1.866567258889    -0.033154143258     1.266113122994     1.007825032070
           C          0.572598741111     0.463110856742     0.383107122994    12.000000000000
           C          0.331263741111    -0.702331143258    -0.560377877006    12.000000000000
           H          0.771510741111     0.098732856742     1.391850122994     1.007825032070
           H          1.449399741111     1.030268856742     0.067735122994     1.007825032070
           C          1.521103741111    -1.658960143258    -0.623798877006    12.000000000000
           H         -0.558327258889    -1.231647143258    -0.233095877006     1.007825032070
           H          0.114869741111    -0.306695143258    -1.547973877006     1.007825032070
           H          1.739308741111    -2.085443143258     0.351354122994     1.007825032070
           H          1.321882741111    -2.480123143258    -1.304128877006     1.007825032070
           H          2.417610741111    -1.153718143258    -0.972237877006     1.007825032070

  Charge       = 0
  Multiplicity = 1
  Basis Set: 6-31G*
  Basis Set:

    Orbital Energies (a.u.)
    -----------------------

    Doubly Occupied:

       1A    -20.551248     2A    -11.267029     3A    -11.261603
       4A    -11.216845     5A    -11.215166     6A     -1.379065
       7A     -1.056666     8A     -0.961001     9A     -0.893558
      10A     -0.798540    11A     -0.675584    12A     -0.664102
      13A     -0.628913    14A     -0.604461    15A     -0.565082
      16A     -0.536215    17A     -0.526696    18A     -0.501180
      19A     -0.487182    20A     -0.444497    21A     -0.406202

  @DF-RHF Final Energy:  -232.12317779733556

   => Energetics <=

    Nuclear Repulsion Energy =            195.2311085350060296
    One-Electron Energy =                -701.4269142138515463
    Two-Electron Energy =                 274.0726278815097885
    DFT Exchange-Correlation Energy =       0.0000000000000000
    Empirical Dispersion Energy =           0.0000000000000000
    PCM Polarization Energy =               0.0000000000000000
    EFP Energy =                            0.0000000000000000
    Total Energy =                       -232.1231777973357566

  Mulliken Charges: (a.u.)
   Center  Symbol    Alpha    Beta     Spin     Total
       1     H     0.41116  0.41116  0.00000  0.17768
       2     C     3.08934  3.08934  0.00000 -0.17867
       3     O     4.30541  4.30541  0.00000 -0.61083
       4     H     0.42349  0.42349  0.00000  0.15302
       5     H     0.43064  0.43064  0.00000  0.13871
       6     C     2.97857  2.97857  0.00000  0.04286
       7     C     3.18425  3.18425  0.00000 -0.36851
       8     H     0.43147  0.43147  0.00000  0.13705
       9     H     0.41664  0.41664  0.00000  0.16672
      10     C     3.24366  3.24366  0.00000 -0.48732
      11     H     0.41458  0.41458  0.00000  0.17084
      12     H     0.41350  0.41350  0.00000  0.17300
      13     H     0.42037  0.42037  0.00000  0.15925
      14     H     0.41670  0.41670  0.00000  0.16660
      15     H     0.42020  0.42020  0.00000  0.15960

   Total alpha = 21.00000, Total beta = 21.00000, Total charge =  0.00000
