  ==> Input File <==

--------------------------------------------------------------------------
set {
	reference rhf
	basis 6-31G*
}

set_num_threads( 1 )
memory 2 gb

molecule MOL {
0 1

O	 -0.682937	 1.318834	 -0.186099
C	 -0.860635	 0.152188	 -0.042321
C	 -2.173363	 -0.477127	 0.338347
O	 0.083258	 -0.765189	 -0.202595
H	 -2.477673	 -1.180929	 -0.427595
H	 -2.923125	 0.290956	 0.455536
H	 -2.058825	 -1.029004	 1.264191
C	 0.862817	 -0.734817	 -1.395978
C	 2.016629	 0.244166	 -1.282150
H	 0.223598	 -0.492477	 -2.231329
H	 1.223503	 -1.746962	 -1.509854
H	 2.633938	 0.189396	 -2.173587
H	 1.653046	 1.259152	 -1.182251
H	 2.635633	 0.006078	 -0.423918

	symmetry c1
}
set optking {
	frozen_dihedral = ("
		10 8 4 2
	")
}

ee = energy('scf')
oeprop('DIPOLE', 'QUADRUPOLE', 'MULLIKEN_CHARGES')
f=open( 'psi4out.xyz', 'w' )
f.write( "14  " )
f.write( str(ee) + "\n" )
f.write( MOL.save_string_xyz() )
f.close()
--------------------------------------------------------------------------

    Molecular point group: c1

    Geometry (in Angstrom), charge = 0, multiplicity = 1:

       Center              X                  Y                   Z               Mass
    ------------   -----------------  -----------------  -----------------  -----------------
           O         -0.563357995288     1.360360653607     0.280440074424    15.994914619560
           C         -0.741055995288     0.193714653607     0.424218074424    12.000000000000
           C         -2.053783995288    -0.435600346393     0.804886074424    12.000000000000
           O          0.202837004712    -0.723662346393     0.263944074424    15.994914619560
           H         -2.358093995288    -1.139402346393     0.038944074424     1.007825032070
           H         -2.803545995288     0.332482653607     0.922075074424     1.007825032070
           H         -1.939245995288    -0.987477346393     1.730730074424     1.007825032070
           C          0.982396004712    -0.693290346393    -0.929438925576    12.000000000000
           C          2.136208004712     0.285692653607    -0.815610925576    12.000000000000
           H          0.343177004712    -0.450950346393    -1.764789925576     1.007825032070
           H          1.343082004712    -1.705435346393    -1.043314925576     1.007825032070
           H          2.753517004712     0.230922653607    -1.707047925576     1.007825032070
           H          1.772625004712     1.300678653607    -0.715711925576     1.007825032070
           H          2.755212004712     0.047604653607     0.042621074424     1.007825032070

  Charge       = 0
  Multiplicity = 1
  Basis Set: 6-31G*
  Basis Set:

    Orbital Energies (a.u.)
    -----------------------

    Doubly Occupied:

       1A    -20.591049     2A    -20.550506     3A    -11.376886
       4A    -11.293175     5A    -11.233537     6A    -11.213012
       7A     -1.464941     8A     -1.364803     9A     -1.052754
      10A     -0.999004    11A     -0.882773    12A     -0.769563
      13A     -0.696296    14A     -0.682236    15A     -0.659314
      16A     -0.607847    17A     -0.586269    18A     -0.573755
      19A     -0.559799    20A     -0.533840    21A     -0.509089
      22A     -0.493767    23A     -0.449267    24A     -0.435412

  @DF-RHF Final Energy:  -305.86308427946562

   => Energetics <=

    Nuclear Repulsion Energy =            248.8422174737457055
    One-Electron Energy =                -910.2528179081531334
    Two-Electron Energy =                 355.5475161549419454
    DFT Exchange-Correlation Energy =       0.0000000000000000
    Empirical Dispersion Energy =           0.0000000000000000
    PCM Polarization Energy =               0.0000000000000000
    EFP Energy =                            0.0000000000000000
    Total Energy =                       -305.8630842794655109

  Mulliken Charges: (a.u.)
   Center  Symbol    Alpha    Beta     Spin     Total
       1     O     4.27043  4.27043  0.00000 -0.54087
       2     C     2.62413  2.62413  0.00000  0.75174
       3     C     3.28182  3.28182  0.00000 -0.56364
       4     O     4.31000  4.31000  0.00000 -0.61999
       5     H     0.40425  0.40425  0.00000  0.19149
       6     H     0.39882  0.39882  0.00000  0.20236
       7     H     0.39899  0.39899  0.00000  0.20202
       8     C     3.00620  3.00620  0.00000 -0.01240
       9     C     3.25157  3.25157  0.00000 -0.50313
      10     H     0.41623  0.41623  0.00000  0.16755
      11     H     0.40756  0.40756  0.00000  0.18487
      12     H     0.42294  0.42294  0.00000  0.15412
      13     H     0.39404  0.39404  0.00000  0.21191
      14     H     0.41302  0.41302  0.00000  0.17396

   Total alpha = 24.00000, Total beta = 24.00000, Total charge =  0.00000
