                              Psi4 1.0.54 Driver

  ==> Input File <==

--------------------------------------------------------------------------
set {
	reference rhf
	basis cc-pvtz
}

set_num_threads( 4 )
memory 2 gb

molecule MOL {
0 1

H	 -0.000105	 1.988529	 0.748933
O	 -0.000098	 1.879786	 -0.188206
C	 -0.000014	 0.545691	 -0.532416
C	 -0.990219	 -0.225435	 0.342019
C	 1.426672	 -0.005516	 -0.509769
H	 -0.351559	 0.465595	 -1.550582
F	 -2.191859	 0.269813	 0.175734
F	 -1.034712	 -1.498359	 0.039703
F	 -0.687112	 -0.117519	 1.617894
F	 2.164074	 0.666157	 -1.359446
F	 1.477142	 -1.269804	 -0.845539
F	 1.971256	 0.124387	 0.680999

	symmetry c1
}
set optking {
	frozen_dihedral = ("
		6 3 2 1
	")
}

ee,wfn = optimize('scf', return_wfn=True)
oeprop( wfn, 'DIPOLE', 'QUADRUPOLE', 'MULLIKEN_CHARGES')
f=open( 'psi4out.xyz', 'w' )
f.write( "12  " )
f.write( str(ee) + "\n" )
f.write( MOL.save_string_xyz() )
f.close()
--------------------------------------------------------------------------

    Molecular point group: c1
  Charge       = 0
  Multiplicity = 1
  Basis Set: CC-PVTZ
  Basis Set:
  @DF-RHF Final Energy:  -786.58863728952531
    Total Energy =                       -786.5886372895256500
    Molecular point group: c1
  Basis Set: CC-PVTZ
  Basis Set:
  Basis Set: CC-PVTZ
  Basis Set:
  @DF-RHF Final Energy:  -786.58872339942388
    Total Energy =                       -786.5887233994239978
  Basis Set: CC-PVTZ
  Basis Set:
  Basis Set: CC-PVTZ
  Basis Set:
  @DF-RHF Final Energy:  -786.58875928355110
    Total Energy =                       -786.5887592835507576
  Basis Set: CC-PVTZ
  Basis Set:
  Basis Set: CC-PVTZ
  Basis Set:
  @DF-RHF Final Energy:  -786.58876358088378
    Total Energy =                       -786.5887635808838922
  Basis Set: CC-PVTZ
  Basis Set:
  Charge       = 0
  Multiplicity = 1
  Basis Set: CC-PVTZ
  Basis Set:

    Orbital Energies (a.u.)
    -----------------------

    Doubly Occupied:

       1A    -26.362314     2A    -26.360661     3A    -26.357260
       4A    -26.354735     5A    -26.354195     6A    -26.350819
       7A    -20.609356     8A    -11.523506     9A    -11.516600
      10A    -11.351683    11A     -1.773831    12A     -1.765051
      13A     -1.669880    14A     -1.665725    15A     -1.661246
      16A     -1.659003    17A     -1.439211    18A     -1.103516
      19A     -1.002244    20A     -0.945280    21A     -0.872323
      22A     -0.869128    23A     -0.860526    24A     -0.851457
      25A     -0.839729    26A     -0.820459    27A     -0.750165
      28A     -0.736308    29A     -0.729718    30A     -0.725501
      31A     -0.697106    32A     -0.694212    33A     -0.690701
      34A     -0.680598    35A     -0.676488    36A     -0.670974
      37A     -0.662184    38A     -0.658063    39A     -0.624766
      40A     -0.553391    41A     -0.509836

  @DF-RHF Final Energy:  -786.58876401182306

   => Energetics <=

    Nuclear Repulsion Energy =            670.8813922675358299
    One-Electron Energy =               -2428.9408175273074448
    Two-Electron Energy =                 971.4706612479487831
    DFT Exchange-Correlation Energy =       0.0000000000000000
    Empirical Dispersion Energy =           0.0000000000000000
    PCM Polarization Energy =               0.0000000000000000
    EFP Energy =                            0.0000000000000000
    Total Energy =                       -786.5887640118228319
    Molecular point group: c1
  Basis Set: CC-PVTZ
  Basis Set:

  -Total Gradient:
     Atom            X                  Y                   Z
    ------   -----------------  -----------------  -----------------
       1       -0.002475183267    -0.000072283171    -0.000077922572
       2        0.002584389271     0.000032472673     0.000276037534
       3        0.001930632169     0.000301495426    -0.000817544398
       4       -0.000004739360     0.000061397132     0.000010225827
       5        0.000027786899     0.000001448722    -0.000043160439
       6       -0.002002979669    -0.000271653467     0.000649445293
       7       -0.000061353043     0.000013886810     0.000013064990
       8        0.000011975326    -0.000063852166     0.000012528587
       9        0.000011492064    -0.000021020246    -0.000040116187
      10        0.000031534809     0.000002024514    -0.000049347425
      11       -0.000018058110     0.000032602970     0.000017489134
      12       -0.000035497084    -0.000016519191     0.000049299652

  **** Optimization is complete! (in 5 steps) ****
    Final optimized geometry and variables:
    Molecular point group: c1

    Geometry (in Angstrom), charge = 0, multiplicity = 1:

    H           -0.309714973650     1.969131859715     0.792337159508
    O           -0.272625317127     1.865334619430    -0.144080625442
    C           -0.215113197570     0.534662612022    -0.500152001564
    C           -1.217722509520    -0.279931494239     0.318840617367
    C            1.226240111914     0.030882686547    -0.413072148015
    H           -0.526684383434     0.447505230154    -1.531049505040
    F           -2.433375165831     0.130981937109     0.048487105848
    F           -1.156639683690    -1.559496205073     0.058036106657
    F           -1.024080776986    -0.114130374440     1.611013850038
    F            1.993721214917     0.781759548181    -1.162896709263
    F            1.339334002021    -1.204819146699    -0.835604954586
    F            1.685427553636     0.086663115288     0.816886087028

  Mulliken Charges: (a.u.)
   Center  Symbol    Alpha    Beta     Spin     Total
       1     H     0.38141  0.38141  0.00000  0.23718
       2     O     4.19007  4.19007  0.00000 -0.38014
       3     C     3.00367  3.00367  0.00000 -0.00733
       4     C     2.68623  2.68623  0.00000  0.62753
       5     C     2.68366  2.68366  0.00000  0.63268
       6     H     0.42641  0.42641  0.00000  0.14718
       7     F     4.60275  4.60275  0.00000 -0.20550
       8     F     4.60008  4.60008  0.00000 -0.20017
       9     F     4.61103  4.61103  0.00000 -0.22206
      10     F     4.60164  4.60164  0.00000 -0.20329
      11     F     4.60435  4.60435  0.00000 -0.20869
      12     F     4.60870  4.60870  0.00000 -0.21739

   Total alpha = 41.00000, Total beta = 41.00000, Total charge =  0.00000

*** Psi4 exiting successfully. Buy a developer a beer!
