  ==> Input File <==

--------------------------------------------------------------------------
set {
	reference rhf
	basis cc-pvtz
}

set_num_threads( 4 )
memory 2 gb

molecule MOL {
0 1

H	 -2.691051	 0.359216	 0.641196
O	 -2.041679	 -0.058866	 0.103463
C	 -0.959304	 0.780994	 -0.094939
C	 0.354905	 0.037902	 -0.006215
H	 -0.985899	 1.279578	 -1.057596
H	 -0.969809	 1.529522	 0.682889
F	 0.412060	 -0.931028	 -0.902708
F	 1.359641	 0.856111	 -0.239961
F	 0.545380	 -0.506387	 1.171682

	symmetry c1
}
set optking {
	frozen_dihedral = ("
		1 2 3 5
	")
}

ee = optimize('scf')
oeprop('DIPOLE', 'QUADRUPOLE', 'MULLIKEN_CHARGES')
f=open( 'psi4out.xyz', 'w' )
f.write( "9  " )
f.write( str(ee) + "\n" )
f.write( MOL.save_string_xyz() )
f.close()
--------------------------------------------------------------------------

    Molecular point group: c1
  Charge       = 0
  Multiplicity = 1
  Basis Set: CC-PVTZ
  Basis Set:
  @DF-RHF Final Energy:  -450.84301126206753
    Total Energy =                       -450.8430112620675345
    Molecular point group: c1
  Basis Set: CC-PVTZ
  Basis Set:
  Basis Set: CC-PVTZ
  Basis Set:
  @DF-RHF Final Energy:  -450.84421072527124
    Total Energy =                       -450.8442107252712958
  Basis Set: CC-PVTZ
  Basis Set:
  Basis Set: CC-PVTZ
  Basis Set:
  @DF-RHF Final Energy:  -450.84442110767179
    Total Energy =                       -450.8444211076715646
  Basis Set: CC-PVTZ
  Basis Set:
  Basis Set: CC-PVTZ
  Basis Set:
  @DF-RHF Final Energy:  -450.84443146528685
    Total Energy =                       -450.8444314652870162
  Basis Set: CC-PVTZ
  Basis Set:
  Basis Set: CC-PVTZ
  Basis Set:
  @DF-RHF Final Energy:  -450.84443309539000
    Total Energy =                       -450.8444330953900590
  Basis Set: CC-PVTZ
  Basis Set:
  Charge       = 0
  Multiplicity = 1
  Basis Set: CC-PVTZ
  Basis Set:

    Orbital Energies (a.u.)
    -----------------------

    Doubly Occupied:

       1A    -26.333710     2A    -26.330721     3A    -26.330108
       4A    -20.582433     5A    -11.489951     6A    -11.310222
       7A     -1.741892     8A     -1.638186     9A     -1.636785
      10A     -1.405925    11A     -1.050505    12A     -0.923928
      13A     -0.833032    14A     -0.831466    15A     -0.790330
      16A     -0.741437    17A     -0.713535    18A     -0.703785
      19A     -0.671044    20A     -0.657836    21A     -0.642584
      22A     -0.640535    23A     -0.600422    24A     -0.533291
      25A     -0.483076

  @DF-RHF Final Energy:  -450.84443322140237

   => Energetics <=

    Nuclear Repulsion Energy =            277.6633322205746026
    One-Electron Energy =               -1177.7820463418695454
    Two-Electron Energy =                 449.2742808998926876
    DFT Exchange-Correlation Energy =       0.0000000000000000
    Empirical Dispersion Energy =           0.0000000000000000
    PCM Polarization Energy =               0.0000000000000000
    EFP Energy =                            0.0000000000000000
    Total Energy =                       -450.8444332214022552
    Molecular point group: c1
  Basis Set: CC-PVTZ
  Basis Set:

  -Total Gradient:
     Atom            X                  Y                   Z
    ------   -----------------  -----------------  -----------------
       1       -0.000049433672     0.000033962742    -0.000092170457
       2        0.000042381886    -0.000025766532     0.000147777018
       3        0.000055217347    -0.000086980179    -0.000102467123
       4        0.000012334069    -0.000018722757    -0.000003096619
       5       -0.000041495072     0.000083654317     0.000039059104
       6       -0.000001018631    -0.000016373963    -0.000000822206
       7       -0.000018138834     0.000006636088     0.000005325867
       8        0.000000421449     0.000005782821     0.000016707596
       9       -0.000000268540     0.000017807456    -0.000010313180

  **** Optimization is complete! (in 6 steps) ****
    Final optimized geometry and variables:
    Molecular point group: c1

    Geometry (in Angstrom), charge = 0, multiplicity = 1:

    H           -2.678975121408     0.311147212527     0.608144422183
    O           -2.004280368619    -0.086081900575     0.091052353204
    C           -0.947052476814     0.792519018379    -0.099321057626
    C            0.351375010305     0.024204539749    -0.024537821982
    H           -0.991354571004     1.264628503797    -1.073737411562
    H           -0.901839602904     1.563867608970     0.659431493912
    F            0.410559448246    -0.933659536276    -0.919321304340
    F            1.362011810187     0.843335209456    -0.246782941362
    F            0.533642012120    -0.519622785363     1.157397021457

  Mulliken Charges: (a.u.)
   Center  Symbol    Alpha    Beta     Spin     Total
       1     H     0.38713  0.38713  0.00000  0.22575
       2     O     4.18913  4.18913  0.00000 -0.37825
       3     C     2.98737  2.98737  0.00000  0.02526
       4     C     2.67662  2.67662  0.00000  0.64677
       5     H     0.46254  0.46254  0.00000  0.07492
       6     H     0.46403  0.46403  0.00000  0.07195
       7     F     4.60820  4.60820  0.00000 -0.21639
       8     F     4.61457  4.61457  0.00000 -0.22913
       9     F     4.61043  4.61043  0.00000 -0.22086

   Total alpha = 25.00000, Total beta = 25.00000, Total charge = -0.00000
