  ==> Input File <==

--------------------------------------------------------------------------
set {
	reference rhf
	basis 6-31G*
}

set_num_threads( 1 )
memory 2 gb

molecule MOL {
0 1

H	 2.772958	 -0.235967	 0.647767
O	 1.930766	 -0.679141	 0.680871
C	 1.050492	 0.053836	 0.000068
C	 -0.318135	 -0.576402	 0.000164
O	 1.351376	 1.074637	 -0.527596
C	 -1.454360	 0.441875	 -0.000474
H	 -0.374042	 -1.230163	 -0.866135
H	 -0.374274	 -1.229227	 0.867154
C	 -2.826123	 -0.230780	 0.000056
H	 -1.357605	 1.085198	 -0.868380
H	 -1.357504	 1.086451	 0.866496
H	 -2.959731	 -0.858053	 -0.876869
H	 -3.619374	 0.509403	 -0.000080
H	 -2.959371	 -0.857318	 0.877556

	symmetry c1
}
set optking {
	frozen_dihedral = ("
		7 4 6 10,
		1 2 3 5
	")
}

ee = energy('scf')
oeprop('DIPOLE', 'QUADRUPOLE', 'MULLIKEN_CHARGES')
f=open( 'psi4out.xyz', 'w' )
f.write( "14  " )
f.write( str(ee) + "\n" )
f.write( MOL.save_string_xyz() )
f.close()
--------------------------------------------------------------------------

    Molecular point group: c1

    Geometry (in Angstrom), charge = 0, multiplicity = 1:

       Center              X                  Y                   Z               Mass
    ------------   -----------------  -----------------  -----------------  -----------------
           H          2.777374865610    -0.245564259122     0.612538394330     1.007825032070
           O          1.935182865610    -0.688738259122     0.645642394330    15.994914619560
           C          1.054908865610     0.044238740878    -0.035160605670    12.000000000000
           C         -0.313718134390    -0.585999259122    -0.035064605670    12.000000000000
           O          1.355792865610     1.065039740878    -0.562824605670    15.994914619560
           C         -1.449943134390     0.432277740878    -0.035702605670    12.000000000000
           H         -0.369625134390    -1.239760259122    -0.901363605670     1.007825032070
           H         -0.369857134390    -1.238824259122     0.831925394330     1.007825032070
           C         -2.821706134390    -0.240377259122    -0.035172605670    12.000000000000
           H         -1.353188134390     1.075600740878    -0.903608605670     1.007825032070
           H         -1.353087134390     1.076853740878     0.831267394330     1.007825032070
           H         -2.955314134390    -0.867650259122    -0.912097605670     1.007825032070
           H         -3.614957134390     0.499805740878    -0.035308605670     1.007825032070
           H         -2.954954134390    -0.866915259122     0.842327394330     1.007825032070

  Charge       = 0
  Multiplicity = 1
  Basis Set: 6-31G*
  Basis Set:

    Orbital Energies (a.u.)
    -----------------------

    Doubly Occupied:

       1A    -20.614012     2A    -20.551142     3A    -11.381646
       4A    -11.240500     5A    -11.228511     6A    -11.218341
       7A     -1.475223     8A     -1.365970     9A     -1.084166
      10A     -0.979990    11A     -0.857320    12A     -0.794942
      13A     -0.701512    14A     -0.687819    15A     -0.660829
      16A     -0.619661    17A     -0.594337    18A     -0.572829
      19A     -0.546279    20A     -0.509013    21A     -0.493991
      22A     -0.483585    23A     -0.476277    24A     -0.442906

  @DF-RHF Final Energy:  -305.87977451909262

   => Energetics <=

    Nuclear Repulsion Energy =            239.8735822744407358
    One-Electron Energy =                -892.3451621739895927
    Two-Electron Energy =                 346.5918053804564352
    DFT Exchange-Correlation Energy =       0.0000000000000000
    Empirical Dispersion Energy =           0.0000000000000000
    PCM Polarization Energy =               0.0000000000000000
    EFP Energy =                            0.0000000000000000
    Total Energy =                       -305.8797745190923933

  Mulliken Charges: (a.u.)
   Center  Symbol    Alpha    Beta     Spin     Total
       1     H     0.26827  0.26827  0.00000  0.46346
       2     O     4.35015  4.35015  0.00000 -0.70031
       3     C     2.62244  2.62244  0.00000  0.75512
       4     C     3.21084  3.21084  0.00000 -0.42169
       5     O     4.27912  4.27912  0.00000 -0.55823
       6     C     3.15616  3.15616  0.00000 -0.31232
       7     H     0.39776  0.39776  0.00000  0.20448
       8     H     0.39931  0.39931  0.00000  0.20137
       9     C     3.24256  3.24256  0.00000 -0.48512
      10     H     0.40450  0.40450  0.00000  0.19099
      11     H     0.41443  0.41443  0.00000  0.17113
      12     H     0.41986  0.41986  0.00000  0.16028
      13     H     0.41438  0.41438  0.00000  0.17125
      14     H     0.42021  0.42021  0.00000  0.15959

   Total alpha = 24.00000, Total beta = 24.00000, Total charge = -0.00000
