  ==> Input File <==

--------------------------------------------------------------------------
set {
	reference rhf
	basis 6-31G*
}

set_num_threads( 4 )
memory 2 gb

molecule MOL {
0 1

H	 -2.574282	 -1.053236	 0.034221
O	 -2.315789	 -0.143634	 -0.024262
C	 -0.945151	 -0.064130	 -0.333158
H	 -0.813375	 -0.223047	 -1.403232
C	 -0.232801	 -1.184051	 0.407206
C	 -0.355424	 1.302939	 0.054523
H	 -0.318824	 -0.992899	 1.473524
H	 -0.742411	 -2.122033	 0.217954
C	 1.248522	 -1.270719	 -0.013048
H	 -0.546144	 2.018388	 -0.742941
H	 -0.890929	 1.656788	 0.930149
C	 1.156425	 1.235120	 0.355905
H	 1.825384	 -1.683246	 0.809111
H	 1.357782	 -1.965923	 -0.840362
C	 1.828244	 0.099899	 -0.419275
H	 1.626109	 2.185622	 0.123525
H	 1.309438	 1.071213	 1.419539
H	 2.901447	 0.112642	 -0.255830
H	 1.681817	 0.263413	 -1.484607

	symmetry c1
}
set optking {
	frozen_dihedral = ("
		1 2 3 4
	")
}

ee = optimize('scf')
oeprop('DIPOLE', 'QUADRUPOLE', 'MULLIKEN_CHARGES')
f=open( 'psi4out.xyz', 'w' )
f.write( "19  " )
f.write( str(ee) + "\n" )
f.write( MOL.save_string_xyz() )
f.close()
--------------------------------------------------------------------------

    Molecular point group: c1
  Charge       = 0
  Multiplicity = 1
  Basis Set: 6-31G*
  Basis Set:
  @DF-RHF Final Energy:  -309.04583101177974
    Total Energy =                       -309.0458310117799670
    Molecular point group: c1
  Basis Set: 6-31G*
  Basis Set:
  Basis Set: 6-31G*
  Basis Set:
  @DF-RHF Final Energy:  -309.04769873149888
    Total Energy =                       -309.0476987314989401
  Basis Set: 6-31G*
  Basis Set:
  Basis Set: 6-31G*
  Basis Set:
  @DF-RHF Final Energy:  -309.04802254393411
    Total Energy =                       -309.0480225439338255
  Basis Set: 6-31G*
  Basis Set:
  Basis Set: 6-31G*
  Basis Set:
  @DF-RHF Final Energy:  -309.04802906011088
    Total Energy =                       -309.0480290601107640
  Basis Set: 6-31G*
  Basis Set:
  Charge       = 0
  Multiplicity = 1
  Basis Set: 6-31G*
  Basis Set:

    Orbital Energies (a.u.)
    -----------------------

    Doubly Occupied:

       1A    -20.549193     2A    -11.268831     3A    -11.220115
       4A    -11.217745     5A    -11.216736     6A    -11.215044
       7A    -11.208083     8A     -1.358437     9A     -1.109656
      10A     -1.003618    11A     -0.988604    12A     -0.850300
      13A     -0.831301    14A     -0.736477    15A     -0.697144
      16A     -0.659033    17A     -0.617135    18A     -0.611258
      19A     -0.571940    20A     -0.545572    21A     -0.529222
      22A     -0.521519    23A     -0.499047    24A     -0.486080
      25A     -0.466679    26A     -0.448917    27A     -0.426791
      28A     -0.413432

  @DF-RHF Final Energy:  -309.04802959425336

   => Energetics <=

    Nuclear Repulsion Energy =            331.4623247046682195
    One-Electron Energy =               -1076.4848906708152754
    Two-Electron Energy =                 435.9745363718939188
    DFT Exchange-Correlation Energy =       0.0000000000000000
    Empirical Dispersion Energy =           0.0000000000000000
    PCM Polarization Energy =               0.0000000000000000
    EFP Energy =                            0.0000000000000000
    Total Energy =                       -309.0480295942531939
    Molecular point group: c1
  Basis Set: 6-31G*
  Basis Set:

  -Total Gradient:
     Atom            X                  Y                   Z
    ------   -----------------  -----------------  -----------------
       1        0.000473211743    -0.000089752151     0.002209326634
       2       -0.000597783458     0.000575816185    -0.002779487182
       3        0.000126653229    -0.002421965683     0.000868642147
       4       -0.000011542539     0.001942025924    -0.000255793147
       5       -0.000013748170     0.000008506682    -0.000037141785
       6        0.000010974601     0.000002767713    -0.000014900681
       7        0.000002665562     0.000000006426    -0.000008771715
       8        0.000003767419     0.000005864145    -0.000001414616
       9        0.000010437133    -0.000002416838     0.000017379952
      10        0.000000694221     0.000007202805    -0.000002452142
      11       -0.000004905126    -0.000018864236    -0.000001990085
      12        0.000017088833     0.000016491357    -0.000013671891
      13        0.000017433671    -0.000005779855     0.000010621333
      14       -0.000001563799    -0.000003752239     0.000009369528
      15       -0.000022741140    -0.000009831140     0.000000259347
      16       -0.000006985180     0.000004627225     0.000004807396
      17        0.000000179725    -0.000004712763    -0.000001890059
      18       -0.000003948776    -0.000019100458    -0.000003905551
      19        0.000000112058     0.000012866902     0.000001012515

  **** Optimization is complete! (in 5 steps) ****
    Final optimized geometry and variables:
    Molecular point group: c1

    Geometry (in Angstrom), charge = 0, multiplicity = 1:

    H           -2.660950787807    -0.932007798365     0.000824767015
    O           -2.323698718972    -0.047883856567    -0.036232721525
    C           -0.947367142679    -0.077513139663    -0.329945628998
    H           -0.820658166362    -0.224955244921    -1.401967506951
    C           -0.214010059831    -1.190514870463     0.409571610816
    C           -0.371080231385     1.293663864269     0.048207097932
    H           -0.295057689309    -1.000620205333     1.476835455792
    H           -0.700338222413    -2.147080066476     0.227602548925
    C            1.265478181243    -1.264112072804    -0.020144837908
    H           -0.572615083654     1.995149099466    -0.755389093171
    H           -0.914353683253     1.649406381603     0.916641140762
    C            1.140211941382     1.238912819527     0.350985170520
    H            1.850671821894    -1.672620177643     0.798021842875
    H            1.375153594238    -1.956705363131    -0.849367429112
    C            1.826479468444     0.114202059489    -0.426561502984
    H            1.599764449908     2.194855900846     0.120857627931
    H            1.296843089902     1.074666817339     1.414448923653
    H            2.899639675045     0.138543131722    -0.264614367116
    H            1.675675787760     0.276336187685    -1.491205330218

  Mulliken Charges: (a.u.)
   Center  Symbol    Alpha    Beta     Spin     Total
       1     H     0.28244  0.28244  0.00000  0.43512
       2     O     4.38162  4.38162  0.00000 -0.76325
       3     C     2.90031  2.90031  0.00000  0.19938
       4     H     0.42930  0.42930  0.00000  0.14139
       5     C     3.18320  3.18320  0.00000 -0.36640
       6     C     3.16311  3.16311  0.00000 -0.32622
       7     H     0.41453  0.41453  0.00000  0.17093
       8     H     0.42380  0.42380  0.00000  0.15240
       9     C     3.15894  3.15894  0.00000 -0.31787
      10     H     0.41590  0.41590  0.00000  0.16819
      11     H     0.40852  0.40852  0.00000  0.18295
      12     C     3.16558  3.16558  0.00000 -0.33116
      13     H     0.41719  0.41719  0.00000  0.16562
      14     H     0.41833  0.41833  0.00000  0.16334
      15     C     3.16401  3.16401  0.00000 -0.32802
      16     H     0.41609  0.41609  0.00000  0.16783
      17     H     0.42027  0.42027  0.00000  0.15945
      18     H     0.41642  0.41642  0.00000  0.16716
      19     H     0.42042  0.42042  0.00000  0.15915

   Total alpha = 28.00000, Total beta = 28.00000, Total charge =  0.00000
