  ==> Input File <==

--------------------------------------------------------------------------
set {
	reference rhf
	basis cc-pvtz
}

set_num_threads( 4 )
memory 2 gb

molecule MOL {
0 1

H	 -3.207633	 0.034171	 -0.260874
C	 -2.905399	 1.041142	 -0.539347
O	 -1.549419	 1.102534	 -0.831051
H	 -3.448030	 1.334129	 -1.426251
H	 -3.171058	 1.716561	 0.271898
C	 -0.718530	 0.758693	 0.228682
C	 0.718529	 0.758687	 -0.228709
H	 -0.829694	 1.474585	 1.042998
H	 -0.971721	 -0.227366	 0.612106
O	 1.401606	 -0.295166	 0.366636
H	 0.748705	 0.673477	 -1.312803
H	 1.176496	 1.708671	 0.046552
C	 2.714315	 -0.441627	 -0.061017
H	 2.765292	 -0.641548	 -1.128869
H	 3.305661	 0.447341	 0.150952
H	 3.143725	 -1.278506	 0.470147

	symmetry c1
}
set optking {
	frozen_dihedral = ("
		3 6 7 11
	")
}

ee = optimize('scf')
oeprop('DIPOLE', 'QUADRUPOLE', 'MULLIKEN_CHARGES')
f=open( 'psi4out.xyz', 'w' )
f.write( "16  " )
f.write( str(ee) + "\n" )
f.write( MOL.save_string_xyz() )
f.close()
--------------------------------------------------------------------------

    Molecular point group: c1
  Charge       = 0
  Multiplicity = 1
  Basis Set: CC-PVTZ
  Basis Set:
  @DF-RHF Final Energy:  -307.09485074509473
    Total Energy =                       -307.0948507450944476
    Molecular point group: c1
  Basis Set: CC-PVTZ
  Basis Set:
  Basis Set: CC-PVTZ
  Basis Set:
  @DF-RHF Final Energy:  -307.09561978074544
    Total Energy =                       -307.0956197807453236
  Basis Set: CC-PVTZ
  Basis Set:
  Basis Set: CC-PVTZ
  Basis Set:
  @DF-RHF Final Energy:  -307.09566643949404
    Total Energy =                       -307.0956664394943800
  Basis Set: CC-PVTZ
  Basis Set:
  Charge       = 0
  Multiplicity = 1
  Basis Set: CC-PVTZ
  Basis Set:

    Orbital Energies (a.u.)
    -----------------------

    Doubly Occupied:

       1A    -20.552541     2A    -20.551877     3A    -11.266213
       4A    -11.265572     5A    -11.264282     6A    -11.263997
       7A     -1.391728     8A     -1.380280     9A     -1.029489
      10A     -0.941515    11A     -0.884884    12A     -0.832345
      13A     -0.690887    14A     -0.677946    15A     -0.660496
      16A     -0.648078    17A     -0.626388    18A     -0.600939
      19A     -0.565935    20A     -0.522536    21A     -0.509331
      22A     -0.484616    23A     -0.468106    24A     -0.422778
      25A     -0.416707

  @DF-RHF Final Energy:  -307.09567002111100

   => Energetics <=

    Nuclear Repulsion Energy =            255.0145641755694612
    One-Electron Energy =                -924.3815211275120873
    Two-Electron Energy =                 362.2712869308313657
    DFT Exchange-Correlation Energy =       0.0000000000000000
    Empirical Dispersion Energy =           0.0000000000000000
    PCM Polarization Energy =               0.0000000000000000
    EFP Energy =                            0.0000000000000000
    Total Energy =                       -307.0956700211112320
    Molecular point group: c1
  Basis Set: CC-PVTZ
  Basis Set:

  -Total Gradient:
     Atom            X                  Y                   Z
    ------   -----------------  -----------------  -----------------
       1       -0.000013947297     0.000010016203     0.000002789765
       2       -0.000037026442    -0.000029769442    -0.000017292534
       3       -0.000213178043    -0.002913477366    -0.000659004895
       4       -0.000004530936     0.000011749430     0.000008349339
       5       -0.000007658346     0.000010953007    -0.000000128944
       6        0.000235474965     0.004696380313     0.000797955187
       7        0.000029117447    -0.005525111590     0.000114641828
       8       -0.000009087943     0.000013707762    -0.000019482864
       9        0.000020031818    -0.000007119325    -0.000017098039
      10        0.000075177925    -0.000010356573     0.000002666184
      11       -0.000142825349     0.003816112301    -0.000259351255
      12        0.000016056739    -0.000054811635     0.000035634920
      13       -0.000018968765    -0.000025857708     0.000000088815
      14        0.000013813931     0.000001044403     0.000004716835
      15        0.000026411865     0.000004858047     0.000003925127
      16        0.000031138426     0.000001682169     0.000001590528

  **** Optimization is complete! (in 4 steps) ****
    Final optimized geometry and variables:
    Molecular point group: c1

    Geometry (in Angstrom), charge = 0, multiplicity = 1:

    H           -3.218677297442    -0.322066189938     0.052094994222
    C           -2.857278909610     0.635226081419    -0.316861233096
    O           -1.511402027966     0.573305336687    -0.655205684134
    H           -3.410567403579     0.896802797912    -1.207038651625
    H           -3.043059601434     1.389167750809     0.444966960150
    C           -0.670855018049     0.228407754078     0.401057387657
    C            0.768362104245     0.241671067722    -0.092706150664
    H           -0.805400598107     0.914583458233     1.233893480924
    H           -0.900507609215    -0.772749301754     0.755327339520
    O            1.463456832699    -0.805704723006     0.503854740988
    H            0.764144850598     0.161016567326    -1.175903599915
    H            1.245608017249     1.189580156409     0.150135128445
    C            2.810347013306    -0.862267777287     0.167842103628
    H            2.947704775093    -0.988876155119    -0.903586781390
    H            3.336472746754     0.037994007066     0.477734978264
    H            3.243017040258    -1.710907604241     0.677285343701

  Mulliken Charges: (a.u.)
   Center  Symbol    Alpha    Beta     Spin     Total
       1     H     0.47098  0.47098  0.00000  0.05804
       2     C     3.02925  3.02925  0.00000 -0.05849
       3     O     4.17461  4.17461  0.00000 -0.34923
       4     H     0.44672  0.44672  0.00000  0.10657
       5     H     0.47146  0.47146  0.00000  0.05709
       6     C     2.96585  2.96585  0.00000  0.06830
       7     C     2.96562  2.96562  0.00000  0.06876
       8     H     0.47379  0.47379  0.00000  0.05241
       9     H     0.46755  0.46755  0.00000  0.06490
      10     O     4.17401  4.17401  0.00000 -0.34802
      11     H     0.46664  0.46664  0.00000  0.06671
      12     H     0.47550  0.47550  0.00000  0.04900
      13     C     3.02949  3.02949  0.00000 -0.05898
      14     H     0.47056  0.47056  0.00000  0.05889
      15     H     0.47136  0.47136  0.00000  0.05729
      16     H     0.44661  0.44661  0.00000  0.10677

   Total alpha = 25.00000, Total beta = 25.00000, Total charge = -0.00000
