  ==> Input File <==

--------------------------------------------------------------------------
set {
	reference rhf
	basis 6-31G*
}

set_num_threads( 1 )
memory 2 gb

molecule MOL {
0 1

H	 2.418971	 -2.397923	 0.278524
O	 3.160323	 -2.179108	 -0.266992
C	 2.849053	 -2.433392	 -1.613285
C	 1.875163	 -1.421349	 -2.206609
H	 3.790296	 -2.390657	 -2.146116
H	 2.457431	 -3.443276	 -1.729674
C	 0.491044	 -1.432591	 -1.553191
H	 2.312086	 -0.429995	 -2.118956
H	 1.774659	 -1.630862	 -3.270268
C	 -0.479274	 -0.444353	 -2.206404
H	 0.592659	 -1.197175	 -0.497435
H	 0.071178	 -2.436898	 -1.611672
C	 -1.905653	 -0.476270	 -1.645364
H	 -0.079081	 0.563773	 -2.114891
H	 -0.523903	 -0.656635	 -3.272539
C	 -2.037799	 -0.007733	 -0.193645
H	 -2.533352	 0.154303	 -2.271614
H	 -2.305259	 -1.485142	 -1.736625
C	 -3.489788	 0.042957	 0.286558
H	 -1.592661	 0.981187	 -0.093646
H	 -1.473180	 -0.663944	 0.464304
C	 -4.216917	 1.317354	 -0.141063
H	 -4.025645	 -0.823308	 -0.095450
H	 -3.513059	 -0.038752	 1.371301
H	 -4.239342	 1.411634	 -1.223113
H	 -5.243387	 1.322503	 0.212445
H	 -3.726170	 2.201406	 0.256408

	symmetry c1
}
set optking {
	frozen_dihedral = ("
		14 10 7 4,
		14 10 13 16,
		10 7 4 8,
		8 4 3 2,
		10 13 16 20,
		4 3 2 1
	")
}

ee = energy('scf')
oeprop('DIPOLE', 'QUADRUPOLE', 'MULLIKEN_CHARGES')
f=open( 'psi4out.xyz', 'w' )
f.write( "27  " )
f.write( str(ee) + "\n" )
f.write( MOL.save_string_xyz() )
f.close()
--------------------------------------------------------------------------

    Molecular point group: c1

    Geometry (in Angstrom), charge = 0, multiplicity = 1:

       Center              X                  Y                   Z               Mass
    ------------   -----------------  -----------------  -----------------  -----------------
           H          2.790756921754    -1.597492067500     1.318199218999     1.007825032070
           O          3.532108921754    -1.378677067500     0.772683218999    15.994914619560
           C          3.220838921754    -1.632961067500    -0.573609781001    12.000000000000
           C          2.246948921754    -0.620918067500    -1.166933781001    12.000000000000
           H          4.162081921754    -1.590226067500    -1.106440781001     1.007825032070
           H          2.829216921754    -2.642845067500    -0.689998781001     1.007825032070
           C          0.862829921754    -0.632160067500    -0.513515781001    12.000000000000
           H          2.683871921754     0.370435932500    -1.079280781001     1.007825032070
           H          2.146444921754    -0.830431067500    -2.230592781001     1.007825032070
           C         -0.107488078246     0.356077932500    -1.166728781001    12.000000000000
           H          0.964444921754    -0.396744067500     0.542240218999     1.007825032070
           H          0.442963921754    -1.636467067500    -0.571996781001     1.007825032070
           C         -1.533867078246     0.324160932500    -0.605688781001    12.000000000000
           H          0.292704921754     1.364203932500    -1.075215781001     1.007825032070
           H         -0.152117078246     0.143795932500    -2.232863781001     1.007825032070
           C         -1.666013078246     0.792697932500     0.846030218999    12.000000000000
           H         -2.161566078246     0.954733932500    -1.231938781001     1.007825032070
           H         -1.933473078246    -0.684711067500    -0.696949781001     1.007825032070
           C         -3.118002078246     0.843387932500     1.326233218999    12.000000000000
           H         -1.220875078246     1.781617932500     0.946029218999     1.007825032070
           H         -1.101394078246     0.136486932500     1.503979218999     1.007825032070
           C         -3.845131078246     2.117784932500     0.898612218999    12.000000000000
           H         -3.653859078246    -0.022877067500     0.944225218999     1.007825032070
           H         -3.141273078246     0.761678932500     2.410976218999     1.007825032070
           H         -3.867556078246     2.212064932500    -0.183437781001     1.007825032070
           H         -4.871601078246     2.122933932500     1.252120218999     1.007825032070
           H         -3.354384078246     3.001836932500     1.296083218999     1.007825032070

  Charge       = 0
  Multiplicity = 1
  Basis Set: 6-31G*
  Basis Set:

    Orbital Energies (a.u.)
    -----------------------

    Doubly Occupied:

       1A    -20.552254     2A    -11.267024     3A    -11.219726
       4A    -11.217154     5A    -11.215647     6A    -11.215556
       7A    -11.215180     8A    -11.213777     9A    -11.209040
      10A     -1.359003    11A     -1.095727    12A     -1.061896
      13A     -1.009855    14A     -0.946693    15A     -0.891578
      16A     -0.825416    17A     -0.798823    18A     -0.774232
      19A     -0.693696    20A     -0.646457    21A     -0.632899
      22A     -0.618160    23A     -0.607130    24A     -0.588933
      25A     -0.578926    26A     -0.553612    27A     -0.539334
      28A     -0.528060    29A     -0.507190    30A     -0.493654
      31A     -0.486725    32A     -0.474634    33A     -0.468975
      34A     -0.461834    35A     -0.448101    36A     -0.440361
      37A     -0.423081

  @DF-RHF Final Energy:  -388.27915793893402

   => Energetics <=

    Nuclear Repulsion Energy =            461.4915706851058417
    One-Electron Energy =               -1440.9809479576001650
    Two-Electron Energy =                 591.2102193335599623
    DFT Exchange-Correlation Energy =       0.0000000000000000
    Empirical Dispersion Energy =           0.0000000000000000
    PCM Polarization Energy =               0.0000000000000000
    EFP Energy =                            0.0000000000000000
    Total Energy =                       -388.2791579389343042

  Mulliken Charges: (a.u.)
   Center  Symbol    Alpha    Beta     Spin     Total
       1     H     0.27991  0.27991  0.00000  0.44019
       2     O     4.37095  4.37095  0.00000 -0.74191
       3     C     2.99736  2.99736  0.00000  0.00529
       4     C     3.16090  3.16090  0.00000 -0.32179
       5     H     0.41445  0.41445  0.00000  0.17111
       6     H     0.43205  0.43205  0.00000  0.13589
       7     C     3.16324  3.16324  0.00000 -0.32647
       8     H     0.41497  0.41497  0.00000  0.17006
       9     H     0.42434  0.42434  0.00000  0.15132
      10     C     3.15178  3.15178  0.00000 -0.30357
      11     H     0.42294  0.42294  0.00000  0.15412
      12     H     0.42548  0.42548  0.00000  0.14903
      13     C     3.15519  3.15519  0.00000 -0.31038
      14     H     0.42160  0.42160  0.00000  0.15679
      15     H     0.42164  0.42164  0.00000  0.15672
      16     C     3.15488  3.15488  0.00000 -0.30977
      17     H     0.42022  0.42022  0.00000  0.15956
      18     H     0.42403  0.42403  0.00000  0.15195
      19     C     3.15386  3.15386  0.00000 -0.30771
      20     H     0.42303  0.42303  0.00000  0.15393
      21     H     0.42165  0.42165  0.00000  0.15671
      22     C     3.24049  3.24049  0.00000 -0.48097
      23     H     0.42264  0.42264  0.00000  0.15473
      24     H     0.42059  0.42059  0.00000  0.15882
      25     H     0.42120  0.42120  0.00000  0.15761
      26     H     0.41929  0.41929  0.00000  0.16143
      27     H     0.42134  0.42134  0.00000  0.15731

   Total alpha = 37.00000, Total beta = 37.00000, Total charge = -0.00000
