  ==> Input File <==

--------------------------------------------------------------------------
set {
	reference rhf
	basis 6-31G*
}

set_num_threads( 4 )
memory 2 gb

molecule MOL {
0 1

O	 -1.480647	 -1.571840	 -1.726104
C	 -0.631609	 -1.381414	 -0.915785
C	 0.645287	 -2.177144	 -0.786880
O	 -0.698257	 -0.426125	 0.001050
C	 0.763905	 -3.288373	 -1.822287
H	 0.680874	 -2.573053	 0.223682
H	 1.472894	 -1.477953	 -0.860782
H	 -0.054602	 -3.992374	 -1.734011
H	 1.695206	 -3.827930	 -1.686745
H	 0.744904	 -2.887354	 -2.828342
C	 -1.853104	 0.406779	 0.000512
C	 -3.066105	 -0.499277	 -0.000959
H	 -1.828410	 1.043074	 -0.873618
H	 -1.829857	 1.042383	 0.875188
H	 -3.071820	 -1.133106	 -0.880383
H	 -3.972708	 0.097145	 -0.001528
H	 -3.073405	 -1.133813	 0.877999

	symmetry c1
}
set optking {
	frozen_dihedral = ("
		2 4 11 13
	")
}

ee = optimize('scf')
oeprop('DIPOLE', 'QUADRUPOLE', 'MULLIKEN_CHARGES')
f=open( 'psi4out.xyz', 'w' )
f.write( "17  " )
f.write( str(ee) + "\n" )
f.write( MOL.save_string_xyz() )
f.close()
--------------------------------------------------------------------------

    Molecular point group: c1
  Charge       = 0
  Multiplicity = 1
  Basis Set: 6-31G*
  Basis Set:
  @DF-RHF Final Energy:  -344.89320060518247
    Total Energy =                       -344.8932006051827557
    Molecular point group: c1
  Basis Set: 6-31G*
  Basis Set:
  Basis Set: 6-31G*
  Basis Set:
  @DF-RHF Final Energy:  -344.90573063575613
    Total Energy =                       -344.9057306357560151
  Basis Set: 6-31G*
  Basis Set:
  Basis Set: 6-31G*
  Basis Set:
  @DF-RHF Final Energy:  -344.90768465563508
    Total Energy =                       -344.9076846556353644
  Basis Set: 6-31G*
  Basis Set:
  Basis Set: 6-31G*
  Basis Set:
  @DF-RHF Final Energy:  -344.90371739415508
    Total Energy =                       -344.9037173941545689
  Basis Set: 6-31G*
  Basis Set:
  @DF-RHF Final Energy:  -344.90810432042196
    Total Energy =                       -344.9081043204221828
  Basis Set: 6-31G*
  Basis Set:
  @DF-RHF Final Energy:  -344.90820064979545
    Total Energy =                       -344.9082006497955604
  Basis Set: 6-31G*
  Basis Set:
  Basis Set: 6-31G*
  Basis Set:
  @DF-RHF Final Energy:  -344.90821064000653
    Total Energy =                       -344.9082106400064731
  Basis Set: 6-31G*
  Basis Set:
  Basis Set: 6-31G*
  Basis Set:
  @DF-RHF Final Energy:  -344.90821223099351
    Total Energy =                       -344.9082122309934562
  Basis Set: 6-31G*
  Basis Set:
  Charge       = 0
  Multiplicity = 1
  Basis Set: 6-31G*
  Basis Set:

    Orbital Energies (a.u.)
    -----------------------

    Doubly Occupied:

       1A    -20.600030     2A    -20.543877     3A    -11.372074
       4A    -11.287524     5A    -11.236822     6A    -11.216513
       7A    -11.215356     8A     -1.465208     9A     -1.362030
      10A     -1.068348    11A     -1.027853    12A     -0.917874
      13A     -0.856485    14A     -0.750712    15A     -0.700766
      16A     -0.679868    17A     -0.661155    18A     -0.624045
      19A     -0.610061    20A     -0.567065    21A     -0.546425
      22A     -0.530927    23A     -0.520918    24A     -0.516646
      25A     -0.495320    26A     -0.489930    27A     -0.451029
      28A     -0.432123

  @DF-RHF Final Energy:  -344.90821251482589

   => Energetics <=

    Nuclear Repulsion Energy =            319.3974696491959548
    One-Electron Energy =               -1103.1173948824070976
    Two-Electron Energy =                 438.8117127183850243
    DFT Exchange-Correlation Energy =       0.0000000000000000
    Empirical Dispersion Energy =           0.0000000000000000
    PCM Polarization Energy =               0.0000000000000000
    EFP Energy =                            0.0000000000000000
    Total Energy =                       -344.9082125148261184
    Molecular point group: c1
  Basis Set: 6-31G*
  Basis Set:

  -Total Gradient:
     Atom            X                  Y                   Z
    ------   -----------------  -----------------  -----------------
       1        0.000028095069    -0.000000293814    -0.000033801817
       2       -0.002074302743    -0.003248669569     0.003198115373
       3       -0.000013339915    -0.000042966409     0.000026877920
       4        0.003731684401     0.005772635941    -0.004026492193
       5        0.000007970167     0.000015424686    -0.000008906012
       6        0.000010687204     0.000014571118    -0.000008369996
       7        0.000007283330     0.000013081131    -0.000013572090
       8       -0.000003832329    -0.000007357564    -0.000000422015
       9       -0.000002713095    -0.000001002490     0.000002469222
      10       -0.000002562539    -0.000002902353     0.000003152321
      11       -0.004436522261    -0.006460376923    -0.001975099690
      12       -0.000027797944    -0.000000550833    -0.000010763883
      13        0.002806365247     0.003926009873     0.002811299277
      14       -0.000011753659    -0.000004976388     0.000007862480
      15       -0.000013177238     0.000013843123     0.000018064436
      16       -0.000009040934     0.000006639376     0.000003570819
      17        0.000002957239     0.000006891095     0.000006015852

  **** Optimization is complete! (in 9 steps) ****
    Final optimized geometry and variables:
    Molecular point group: c1

    Geometry (in Angstrom), charge = 0, multiplicity = 1:

    O           -0.454676414795    -0.300587509308    -1.110408439398
    C            0.310772087977    -0.120198659472    -0.218450270613
    C            1.560903140415    -0.931927498882     0.027269863553
    O            0.186651760173     0.843078425643     0.683296472701
    C            1.786946066513    -2.014444831162    -1.020569309387
    H            1.479973400775    -1.357530260472     1.023230778606
    H            2.396183703741    -0.239548038348     0.068064437039
    H            0.958412835530    -2.711677422142    -1.045977427096
    H            2.692948058045    -2.567699688031    -0.797117033042
    H            1.884852928782    -1.584729006350    -2.010141274284
    C           -0.995969760045     1.639991326976     0.723887294250
    C           -2.283760214371     0.859998605257     0.921011233293
    H           -1.016881244925     2.279838291007    -0.148775128701
    H           -0.826856700516     2.280151334304     1.578667144442
    H           -2.543497758649     0.274105186352     0.052936887165
    H           -3.087648429854     1.562128929017     1.120993407063
    H           -2.195135066170     0.201419740962     1.779266379552

  Mulliken Charges: (a.u.)
   Center  Symbol    Alpha    Beta     Spin     Total
       1     O     4.28734  4.28734  0.00000 -0.57468
       2     C     2.60352  2.60352  0.00000  0.79296
       3     C     3.20493  3.20493  0.00000 -0.40985
       4     O     4.31690  4.31690  0.00000 -0.63380
       5     C     3.23874  3.23874  0.00000 -0.47748
       6     H     0.40152  0.40152  0.00000  0.19696
       7     H     0.40024  0.40024  0.00000  0.19952
       8     H     0.41010  0.41010  0.00000  0.17979
       9     H     0.41834  0.41834  0.00000  0.16331
      10     H     0.41029  0.41029  0.00000  0.17942
      11     C     2.99835  2.99835  0.00000  0.00331
      12     C     3.26372  3.26372  0.00000 -0.52744
      13     H     0.41078  0.41078  0.00000  0.17843
      14     H     0.41012  0.41012  0.00000  0.17976
      15     H     0.39159  0.39159  0.00000  0.21683
      16     H     0.41757  0.41757  0.00000  0.16486
      17     H     0.41595  0.41595  0.00000  0.16810

   Total alpha = 28.00000, Total beta = 28.00000, Total charge =  0.00000
