  ==> Input File <==

--------------------------------------------------------------------------
set {
	reference rhf
	basis cc-pvtz
}

set_num_threads( 4 )
memory 2 gb

molecule MOL {
0 1

H	 -3.868578	 -1.843293	 0.814714
C	 -2.800452	 -1.742260	 0.847511
C	 -2.089950	 -2.268111	 1.911610
C	 -2.138945	 -1.087016	 -0.173786
H	 -2.604078	 -2.776576	 2.703971
C	 -0.717427	 -2.137886	 1.953051
H	 -2.690859	 -0.679569	 -0.998559
C	 -0.764653	 -0.955807	 -0.133725
H	 -0.151799	 -2.538948	 2.769306
C	 -0.049721	 -1.481387	 0.930769
H	 -0.249294	 -0.448937	 -0.923040
C	 1.434027	 -1.367148	 1.022218
O	 1.968286	 -0.725612	 -0.000027
O	 2.075146	 -1.804974	 1.918015
C	 3.373556	 -0.568203	 0.000011
H	 3.695416	 -0.031588	 -0.879663
H	 3.782700	 -1.565294	 -0.000152
H	 3.695405	 -0.031851	 0.879862

	symmetry c1
}
set optking {
	frozen_dihedral = ("
		12 13 15 16
	")
}

ee = optimize('scf')
oeprop('DIPOLE', 'QUADRUPOLE', 'MULLIKEN_CHARGES')
f=open( 'psi4out.xyz', 'w' )
f.write( "18  " )
f.write( str(ee) + "\n" )
f.write( MOL.save_string_xyz() )
f.close()
--------------------------------------------------------------------------

    Molecular point group: c1
  Charge       = 0
  Multiplicity = 1
  Basis Set: CC-PVTZ
  Basis Set:
  @DF-RHF Final Energy:  -457.50865864093237
    Total Energy =                       -457.5086586409320262
    Molecular point group: c1
  Basis Set: CC-PVTZ
  Basis Set:
  Basis Set: CC-PVTZ
  Basis Set:
  @DF-RHF Final Energy:  -457.50990052465363
    Total Energy =                       -457.5099005246535171
  Basis Set: CC-PVTZ
  Basis Set:
  Basis Set: CC-PVTZ
  Basis Set:
  @DF-RHF Final Energy:  -457.51000960753862
    Total Energy =                       -457.5100096075386773
  Basis Set: CC-PVTZ
  Basis Set:
  Basis Set: CC-PVTZ
  Basis Set:
  @DF-RHF Final Energy:  -457.51005282890270
    Total Energy =                       -457.5100528289027579
  Basis Set: CC-PVTZ
  Basis Set:
  Basis Set: CC-PVTZ
  Basis Set:
  @DF-RHF Final Energy:  -457.51021006726222
    Total Energy =                       -457.5102100672623919
  Basis Set: CC-PVTZ
  Basis Set:
  Basis Set: CC-PVTZ
  Basis Set:
  @DF-RHF Final Energy:  -457.51024303750074
    Total Energy =                       -457.5102430375010272
  Basis Set: CC-PVTZ
  Basis Set:
  Charge       = 0
  Multiplicity = 1
  Basis Set: CC-PVTZ
  Basis Set:

    Orbital Energies (a.u.)
    -----------------------

    Doubly Occupied:

       1A    -20.601028     2A    -20.534505     3A    -11.371767
       4A    -11.281261     5A    -11.245017     6A    -11.243535
       7A    -11.242739     8A    -11.240094     9A    -11.236103
      10A    -11.235345    11A     -1.477085    12A     -1.368493
      13A     -1.170839    14A     -1.051896    15A     -1.029101
      16A     -0.980538    17A     -0.863268    18A     -0.838517
      19A     -0.781305    20A     -0.745081    21A     -0.687880
      22A     -0.681825    23A     -0.676434    24A     -0.634117
      25A     -0.630115    26A     -0.601345    27A     -0.587570
      28A     -0.564981    29A     -0.531968    30A     -0.520368
      31A     -0.509508    32A     -0.502294    33A     -0.464219
      34A     -0.449514    35A     -0.350251    36A     -0.346297

  @DF-RHF Final Energy:  -457.51024325550856

   => Energetics <=

    Nuclear Repulsion Energy =            494.0462869698019972
    One-Electron Energy =               -1602.5606512504587045
    Two-Electron Energy =                 651.0041210251488337
    DFT Exchange-Correlation Energy =       0.0000000000000000
    Empirical Dispersion Energy =           0.0000000000000000
    PCM Polarization Energy =               0.0000000000000000
    EFP Energy =                            0.0000000000000000
    Total Energy =                       -457.5102432555079304
    Molecular point group: c1
  Basis Set: CC-PVTZ
  Basis Set:

  -Total Gradient:
     Atom            X                  Y                   Z
    ------   -----------------  -----------------  -----------------
       1        0.000000496769     0.000000399973    -0.000000384087
       2        0.000000092961     0.000001716740     0.000006211490
       3        0.000001635018    -0.000019165304    -0.000013263167
       4        0.000006689692     0.000011841412     0.000003135741
       5        0.000002524133     0.000000440124     0.000001085610
       6        0.000009987257     0.000023104088     0.000014568192
       7        0.000002479106    -0.000002703378    -0.000002355450
       8        0.000008339019    -0.000003981042    -0.000000391982
       9        0.000000760825    -0.000003454565     0.000001356432
      10        0.000015652775     0.000009692241     0.000006262955
      11        0.000006219434     0.000002560342    -0.000006057429
      12        0.000007755971    -0.000011374509    -0.000026620228
      13       -0.000046837516    -0.000015012869    -0.000075786377
      14       -0.000024912308    -0.000028317828     0.000048905688
      15        0.000003647631     0.000044129546     0.000054442438
      16       -0.000023176852    -0.000015168360     0.000008762967
      17       -0.000015026774     0.000011890267    -0.000003553825
      18        0.000043672858    -0.000006596879    -0.000016318965

  **** Optimization is complete! (in 7 steps) ****
    Final optimized geometry and variables:
    Molecular point group: c1

    Geometry (in Angstrom), charge = 0, multiplicity = 1:

    H           -4.026182119512    -0.437020868708    -0.008299412087
    C           -2.957765132853    -0.339129442303     0.025635415633
    C           -2.249860568684    -0.868057969594     1.090084639261
    C           -2.293215062312     0.314992535393    -0.994351383788
    H           -2.766322785975    -1.375701782972     1.881525545040
    C           -0.877051189348    -0.741830150001     1.133127232289
    H           -2.842893558984     0.724801018986    -1.819484898402
    C           -0.918440536486     0.442023216264    -0.952790667889
    H           -0.313525364202    -1.145309617978     1.949718838856
    C           -0.206340098729    -0.086516473716     0.111969745686
    H           -0.400867467749     0.947993512922    -1.741320315542
    C            1.277877813534     0.023027533368     0.205226482228
    O            1.815173781391     0.663814735715    -0.815705243536
    O            1.916576540399    -0.417570483744     1.101383674349
    C            3.220540264175     0.817806413105    -0.813735208980
    H            3.460369237471     1.357700549610    -1.715186552305
    H            3.708053478577    -0.145448569939    -0.813989574487
    H            3.540584057654     1.376343208184     0.052964390349

  Mulliken Charges: (a.u.)
   Center  Symbol    Alpha    Beta     Spin     Total
       1     H     0.42028  0.42028  0.00000  0.15944
       2     C     3.06975  3.06975  0.00000 -0.13949
       3     C     3.07550  3.07550  0.00000 -0.15100
       4     C     3.07493  3.07493  0.00000 -0.14986
       5     H     0.42038  0.42038  0.00000  0.15925
       6     C     3.07590  3.07590  0.00000 -0.15180
       7     H     0.42188  0.42188  0.00000  0.15624
       8     C     3.08211  3.08211  0.00000 -0.16423
       9     H     0.40667  0.40667  0.00000  0.18665
      10     C     3.01232  3.01232  0.00000 -0.02464
      11     H     0.41103  0.41103  0.00000  0.17794
      12     C     2.78239  2.78239  0.00000  0.43522
      13     O     4.14836  4.14836  0.00000 -0.29672
      14     O     4.21125  4.21125  0.00000 -0.42251
      15     C     3.03659  3.03659  0.00000 -0.07318
      16     H     0.44530  0.44530  0.00000  0.10939
      17     H     0.45267  0.45267  0.00000  0.09466
      18     H     0.45268  0.45268  0.00000  0.09463

   Total alpha = 36.00000, Total beta = 36.00000, Total charge =  0.00000
