                              Psi4 1.0.54 Driver

  ==> Input File <==

--------------------------------------------------------------------------
set {
	reference rhf
	basis cc-pvtz
}

set_num_threads( 4 )
memory 2 gb

molecule MOL {
0 1

H	 2.253433	 -1.280794	 -0.146189
O	 1.675515	 -0.612943	 -0.465627
C	 1.135873	 0.113391	 0.608264
C	 0.027642	 1.012027	 0.090274
H	 1.902972	 0.727968	 1.072615
H	 0.756163	 -0.561896	 1.370018
C	 -1.138737	 0.285728	 -0.581921
H	 0.464661	 1.708096	 -0.618252
H	 -0.340737	 1.603071	 0.925246
C	 -1.933983	 -0.631436	 0.343653
H	 -0.763151	 -0.285569	 -1.422081
H	 -1.808359	 1.035291	 -0.992333
H	 -2.789188	 -1.049673	 -0.174718
H	 -1.335629	 -1.461368	 0.700418
H	 -2.305435	 -0.092167	 1.209725

	symmetry c1
}
set optking {
	frozen_dihedral = ("
		1 2 3 4
	")
}

ee,wfn = optimize('scf', return_wfn=True)
oeprop( wfn, 'DIPOLE', 'QUADRUPOLE', 'MULLIKEN_CHARGES')
f=open( 'psi4out.xyz', 'w' )
f.write( "15  " )
f.write( str(ee) + "\n" )
f.write( MOL.save_string_xyz() )
f.close()
--------------------------------------------------------------------------

    Molecular point group: c1
  Charge       = 0
  Multiplicity = 1
  Basis Set: CC-PVTZ
  Basis Set:
  @DF-RHF Final Energy:  -232.23753388652781
    Total Energy =                       -232.2375338865277854
    Molecular point group: c1
  Basis Set: CC-PVTZ
  Basis Set:
  Basis Set: CC-PVTZ
  Basis Set:
  @DF-RHF Final Energy:  -232.23753757987319
    Total Energy =                       -232.2375375798733330
  Basis Set: CC-PVTZ
  Basis Set:
  Charge       = 0
  Multiplicity = 1
  Basis Set: CC-PVTZ
  Basis Set:

    Orbital Energies (a.u.)
    -----------------------

    Doubly Occupied:

       1A    -20.546495     2A    -11.265426     3A    -11.210980
       4A    -11.207669     5A    -11.203826     6A     -1.364263
       7A     -1.065620     8A     -0.972019     9A     -0.869817
      10A     -0.775560    11A     -0.707454    12A     -0.650157
      13A     -0.609071    14A     -0.576449    15A     -0.565441
      16A     -0.533917    17A     -0.510847    18A     -0.476090
      19A     -0.468188    20A     -0.453566    21A     -0.433337

  @DF-RHF Final Energy:  -232.23753807541274

   => Energetics <=

    Nuclear Repulsion Energy =            191.8212066120123325
    One-Electron Energy =                -695.1851073211385028
    Two-Electron Energy =                 271.1263626337134838
    DFT Exchange-Correlation Energy =       0.0000000000000000
    Empirical Dispersion Energy =           0.0000000000000000
    PCM Polarization Energy =               0.0000000000000000
    EFP Energy =                            0.0000000000000000
    Total Energy =                       -232.2375380754126581
    Molecular point group: c1
  Basis Set: CC-PVTZ
  Basis Set:

  -Total Gradient:
     Atom            X                  Y                   Z
    ------   -----------------  -----------------  -----------------
       1       -0.000553778014    -0.000440586752     0.000011677430
       2        0.000581052690     0.000410709267    -0.000000589870
       3        0.000304284504     0.000397086867    -0.000084220149
       4       -0.000338971345    -0.000384371645     0.000111449078
       5        0.000036573492    -0.000015431876     0.000013792877
       6       -0.000007013477     0.000057646387    -0.000031541843
       7        0.000023838057    -0.000022775510    -0.000021782158
       8       -0.000012791907     0.000006789670     0.000002812851
       9        0.000016588358    -0.000009199048     0.000020657676
      10       -0.000030287838    -0.000007698491    -0.000004255174
      11       -0.000003929294    -0.000033546205     0.000005635260
      12        0.000009800679     0.000020141999    -0.000015623626
      13       -0.000006114917     0.000013419342     0.000005057823
      14       -0.000007262182     0.000005093347    -0.000031254302
      15       -0.000011988802     0.000002722647     0.000018184125

  **** Optimization is complete! (in 3 steps) ****
    Final optimized geometry and variables:
    Molecular point group: c1

    Geometry (in Angstrom), charge = 0, multiplicity = 1:

    H            2.271098853739    -1.267211185936    -0.156494311888
    O            1.690386527915    -0.600031022846    -0.471549877380
    C            1.137926975331     0.110610542427     0.606518984396
    C            0.026327038775     1.007297019861     0.092224662375
    H            1.898874347457     0.722796053419     1.083922863667
    H            0.756000340531    -0.575319227955     1.357229022950
    C           -1.139276026949     0.280442368267    -0.580343886035
    H            0.460970669390     1.706113686069    -0.615179617418
    H           -0.341694168935     1.596366865939     0.928742289236
    C           -1.943344809351    -0.626534567120     0.347696825740
    H           -0.761696114384    -0.298224978920    -1.414516815701
    H           -1.804044244848     1.029444810012    -0.999501590155
    H           -2.796973094837    -1.045858091491    -0.172334522204
    H           -1.350596650491    -1.455977860538     0.715018765755
    H           -2.317935714562    -0.079075614123     1.207220459873

  Mulliken Charges: (a.u.)
   Center  Symbol    Alpha    Beta     Spin     Total
       1     H     0.39535  0.39535  0.00000  0.20929
       2     O     4.19978  4.19978  0.00000 -0.39955
       3     C     2.97597  2.97597  0.00000  0.04806
       4     C     3.09496  3.09496  0.00000 -0.18992
       5     H     0.46280  0.46280  0.00000  0.07439
       6     H     0.47232  0.47232  0.00000  0.05537
       7     C     3.08660  3.08660  0.00000 -0.17319
       8     H     0.44786  0.44786  0.00000  0.10428
       9     H     0.45443  0.45443  0.00000  0.09114
      10     C     3.15478  3.15478  0.00000 -0.30956
      11     H     0.44637  0.44637  0.00000  0.10725
      12     H     0.45083  0.45083  0.00000  0.09834
      13     H     0.44657  0.44657  0.00000  0.10687
      14     H     0.45459  0.45459  0.00000  0.09081
      15     H     0.45679  0.45679  0.00000  0.08642

   Total alpha = 21.00000, Total beta = 21.00000, Total charge = -0.00000

*** Psi4 exiting successfully. Buy a developer a beer!
