                              Psi4 1.0.54 Driver

  ==> Input File <==

--------------------------------------------------------------------------
set {
	reference rhf
	basis cc-pvtz
}

set_num_threads( 4 )
memory 2 gb

molecule MOL {
0 1

H	 -1.082183	 -0.917592	 0.035151
N	 -0.712187	 0.000026	 -0.093397
C	 0.734067	 -0.000020	 0.038424
H	 -1.133232	 0.585938	 0.595712
H	 1.140372	 -0.872115	 -0.458226
H	 1.140363	 0.872301	 -0.457869
H	 1.095085	 -0.000244	 1.065614

	symmetry c1
}
set optking {
	frozen_dihedral = ("
		1 2 3 7
	")
}

ee,wfn = optimize('scf', return_wfn=True)
oeprop( wfn, 'DIPOLE', 'QUADRUPOLE', 'MULLIKEN_CHARGES')
f=open( 'psi4out.xyz', 'w' )
f.write( "7  " )
f.write( str(ee) + "\n" )
f.write( MOL.save_string_xyz() )
f.close()
--------------------------------------------------------------------------

    Molecular point group: c1
  Charge       = 0
  Multiplicity = 1
  Basis Set: CC-PVTZ
  Basis Set:
  @DF-RHF Final Energy:   -95.25285927943972
    Total Energy =                        -95.2528592794397042
    Molecular point group: c1
  Basis Set: CC-PVTZ
  Basis Set:
  Basis Set: CC-PVTZ
  Basis Set:
  @DF-RHF Final Energy:   -95.25293284199860
    Total Energy =                        -95.2529328419986712
  Basis Set: CC-PVTZ
  Basis Set:
  Basis Set: CC-PVTZ
  Basis Set:
  @DF-RHF Final Energy:   -95.25294482888873
    Total Energy =                        -95.2529448288887437
  Basis Set: CC-PVTZ
  Basis Set:
  Charge       = 0
  Multiplicity = 1
  Basis Set: CC-PVTZ
  Basis Set:

    Orbital Energies (a.u.)
    -----------------------

    Doubly Occupied:

       1A    -15.527151     2A    -11.235425     3A     -1.170802
       4A     -0.897205     5A     -0.667448     6A     -0.601536
       7A     -0.559568     8A     -0.518588     9A     -0.383802

  @DF-RHF Final Energy:   -95.25294518091572

   => Energetics <=

    Nuclear Repulsion Energy =             42.3795778859313401
    One-Electron Energy =                -212.1419949448792295
    Two-Electron Energy =                  74.5094718780322012
    DFT Exchange-Correlation Energy =       0.0000000000000000
    Empirical Dispersion Energy =           0.0000000000000000
    PCM Polarization Energy =               0.0000000000000000
    EFP Energy =                            0.0000000000000000
    Total Energy =                        -95.2529451809157024
    Molecular point group: c1
  Basis Set: CC-PVTZ
  Basis Set:

  -Total Gradient:
     Atom            X                  Y                   Z
    ------   -----------------  -----------------  -----------------
       1        0.000221778490    -0.000395095875    -0.002338050833
       2       -0.000353216181     0.001219930863     0.002925806010
       3        0.000180617107    -0.003067500251    -0.000566728189
       4        0.000013120247    -0.000013203213    -0.000014371163
       5       -0.000017209771     0.000014024092    -0.000004524474
       6       -0.000022916688     0.000002012582     0.000000781580
       7       -0.000022173205     0.002239831803    -0.000002912931

  **** Optimization is complete! (in 4 steps) ****
    Final optimized geometry and variables:
    Molecular point group: c1

    Geometry (in Angstrom), charge = 0, multiplicity = 1:

    H           -1.086770558079    -0.907043705124     0.042344706179
    N           -0.712614876024     0.007497145069    -0.085306380956
    C            0.734764285891     0.011686185947     0.035743580114
    H           -1.142699961897     0.614986140494     0.577179988882
    H            1.143057140452    -0.852832874041    -0.471088869125
    H            1.140361631800     0.891424486396    -0.450129210772
    H            1.098659966621     0.010152578633     1.061377436998

  Mulliken Charges: (a.u.)
   Center  Symbol    Alpha    Beta     Spin     Total
       1     H     0.42690  0.42690  0.00000  0.14620
       2     N     3.68937  3.68937  0.00000 -0.37875
       3     C     3.06981  3.06981  0.00000 -0.13962
       4     H     0.42772  0.42772  0.00000  0.14457
       5     H     0.45710  0.45710  0.00000  0.08581
       6     H     0.45771  0.45771  0.00000  0.08458
       7     H     0.47139  0.47139  0.00000  0.05722

   Total alpha =  9.00000, Total beta =  9.00000, Total charge = -0.00000

*** Psi4 exiting successfully. Buy a developer a beer!
