                              Psi4 1.0.54 Driver

  ==> Input File <==

--------------------------------------------------------------------------
set {
	reference rhf
	basis cc-pvtz
}

set_num_threads( 4 )
memory 2 gb

molecule MOL {
0 1

H	 0.970104	 1.011877	 -1.897296
O	 1.211962	 1.401222	 -1.076098
C	 0.706474	 0.636793	 -0.025501
C	 -0.793473	 0.591216	 0.050087
H	 1.096386	 1.073134	 0.886573
H	 1.087262	 -0.381940	 -0.068906
C	 -1.534243	 -0.493009	 -0.013340
H	 -1.266611	 1.552628	 0.164437
H	 -1.101195	 -1.466332	 -0.144046
H	 -2.604242	 -0.437780	 0.050785

	symmetry c1
}
set optking {
	frozen_dihedral = ("
		5 3 4 7
	")
}

ee,wfn = optimize('scf', return_wfn=True)
oeprop( wfn, 'DIPOLE', 'QUADRUPOLE', 'MULLIKEN_CHARGES')
f=open( 'psi4out.xyz', 'w' )
f.write( "10  " )
f.write( str(ee) + "\n" )
f.write( MOL.save_string_xyz() )
f.close()
--------------------------------------------------------------------------

    Molecular point group: c1
  Charge       = 0
  Multiplicity = 1
  Basis Set: CC-PVTZ
  Basis Set:
  @DF-RHF Final Energy:  -191.99852562375094
    Total Energy =                       -191.9985256237509077
    Molecular point group: c1
  Basis Set: CC-PVTZ
  Basis Set:
  Basis Set: CC-PVTZ
  Basis Set:
  @DF-RHF Final Energy:  -191.99905764343430
    Total Energy =                       -191.9990576434342415
  Basis Set: CC-PVTZ
  Basis Set:
  Basis Set: CC-PVTZ
  Basis Set:
  @DF-RHF Final Energy:  -191.99911997247136
    Total Energy =                       -191.9991199724712772
  Basis Set: CC-PVTZ
  Basis Set:
  Basis Set: CC-PVTZ
  Basis Set:
  @DF-RHF Final Energy:  -191.99912579683615
    Total Energy =                       -191.9991257968360969
  Basis Set: CC-PVTZ
  Basis Set:
  Charge       = 0
  Multiplicity = 1
  Basis Set: CC-PVTZ
  Basis Set:

    Orbital Energies (a.u.)
    -----------------------

    Doubly Occupied:

       1A    -20.551648     2A    -11.275694     3A    -11.231421
       4A    -11.225653     5A     -1.370071     6A     -1.068333
       7A     -0.925053     8A     -0.778663     9A     -0.707822
      10A     -0.626509    11A     -0.619627    12A     -0.609065
      13A     -0.532428    14A     -0.492686    15A     -0.449196
      16A     -0.379029

  @DF-RHF Final Energy:  -191.99912631334200

   => Energetics <=

    Nuclear Repulsion Energy =            117.7650158717605109
    One-Electron Energy =                -493.8424859363621522
    Two-Electron Energy =                 184.0783437512595526
    DFT Exchange-Correlation Energy =       0.0000000000000000
    Empirical Dispersion Energy =           0.0000000000000000
    PCM Polarization Energy =               0.0000000000000000
    EFP Energy =                            0.0000000000000000
    Total Energy =                       -191.9991263133420887
    Molecular point group: c1
  Basis Set: CC-PVTZ
  Basis Set:

  -Total Gradient:
     Atom            X                  Y                   Z
    ------   -----------------  -----------------  -----------------
       1        0.000009217885     0.000008849347     0.000042506009
       2        0.000020970807     0.000036581755    -0.000034042558
       3        0.000006887298    -0.000368258268    -0.000014095499
       4       -0.000034416956     0.000030908078     0.000429227527
       5       -0.000022943762     0.000263405313    -0.000174891723
       6       -0.000003562984    -0.000008443124     0.000031804725
       7        0.000009967169     0.000049385136    -0.000251349534
       8        0.000004959651    -0.000005656126    -0.000000706062
       9       -0.000005348396     0.000001689483    -0.000003046209
      10        0.000014269287    -0.000008461593    -0.000025406677

  **** Optimization is complete! (in 5 steps) ****
    Final optimized geometry and variables:
    Molecular point group: c1

    Geometry (in Angstrom), charge = 0, multiplicity = 1:

    H            0.887972988890     0.449019649780    -1.602732089674
    O            1.222899272807     0.810996126174    -0.801991477232
    C            0.748131635346     0.064007547131     0.285775960013
    C           -0.751021094399     0.054048613522     0.355704067749
    H            1.155596971520     0.542227058186     1.167095804250
    H            1.126112072279    -0.953558849196     0.257430870275
    C           -1.487969096358    -1.035539640774     0.349885291582
    H           -1.221257087948     1.021827433015     0.399594355819
    H           -1.045909156526    -2.014674972103     0.299319852657
    H           -2.559417272899    -0.991618749536     0.403460920837

  Mulliken Charges: (a.u.)
   Center  Symbol    Alpha    Beta     Spin     Total
       1     H     0.39395  0.39395  0.00000  0.21210
       2     O     4.20017  4.20017  0.00000 -0.40034
       3     C     2.94916  2.94916  0.00000  0.10167
       4     C     3.08230  3.08230  0.00000 -0.16461
       5     H     0.45937  0.45937  0.00000  0.08127
       6     H     0.46977  0.46977  0.00000  0.06047
       7     C     3.17187  3.17187  0.00000 -0.34375
       8     H     0.41818  0.41818  0.00000  0.16364
       9     H     0.42907  0.42907  0.00000  0.14186
      10     H     0.42615  0.42615  0.00000  0.14769

   Total alpha = 16.00000, Total beta = 16.00000, Total charge = -0.00000

*** Psi4 exiting successfully. Buy a developer a beer!
