  ==> Input File <==

--------------------------------------------------------------------------
set {
	reference rhf
	basis 6-31G*
}

set_num_threads( 1 )
memory 2 gb

molecule MOL {
0 1

H	 -4.058955	 1.011149	 -0.973379
O	 -3.452007	 0.283848	 -0.965577
C	 -3.181085	 -0.079926	 0.364119
C	 -1.765924	 0.277073	 0.805136
H	 -3.327791	 -1.152017	 0.410903
H	 -3.905698	 0.375695	 1.036898
C	 -0.677594	 -0.417312	 -0.014550
H	 -1.637766	 1.358238	 0.744969
H	 -1.659588	 0.017670	 1.857098
C	 0.738335	 -0.034840	 0.421385
H	 -0.814977	 -0.178223	 -1.064632
H	 -0.802730	 -1.495410	 0.071702
C	 1.822265	 -0.738362	 -0.399735
H	 0.853533	 1.043532	 0.342250
H	 0.871597	 -0.279636	 1.474438
C	 3.258060	 -0.455774	 0.057203
H	 1.718003	 -0.459167	 -1.447053
H	 1.651028	 -1.811884	 -0.354513
C	 3.709143	 0.994797	 -0.123830
H	 3.930637	 -1.101717	 -0.501982
H	 3.365259	 -0.739518	 1.102287
H	 3.601178	 1.310569	 -1.158127
H	 4.753787	 1.110486	 0.148516
H	 3.135362	 1.678896	 0.492569

	symmetry c1
}
set optking {
	frozen_dihedral = ("
		20 16 13 17,
		17 13 10 7,
		13 10 7 11,
		11 7 4 3,
		7 4 3 2
	")
}

ee = energy('scf')
oeprop('DIPOLE', 'QUADRUPOLE', 'MULLIKEN_CHARGES')
f=open( 'psi4out.xyz', 'w' )
f.write( "24  " )
f.write( str(ee) + "\n" )
f.write( MOL.save_string_xyz() )
f.close()
--------------------------------------------------------------------------

    Molecular point group: c1

    Geometry (in Angstrom), charge = 0, multiplicity = 1:

       Center              X                  Y                   Z               Mass
    ------------   -----------------  -----------------  -----------------  -----------------
           H         -4.053415583284     1.013025950128    -0.973994157056     1.007825032070
           O         -3.446467583284     0.285724950128    -0.966192157056    15.994914619560
           C         -3.175545583284    -0.078049049872     0.363503842944    12.000000000000
           C         -1.760384583284     0.278949950128     0.804520842944    12.000000000000
           H         -3.322251583284    -1.150140049872     0.410287842944     1.007825032070
           H         -3.900158583284     0.377571950128     1.036282842944     1.007825032070
           C         -0.672054583284    -0.415435049872    -0.015165157056    12.000000000000
           H         -1.632226583284     1.360114950128     0.744353842944     1.007825032070
           H         -1.654048583284     0.019546950128     1.856482842944     1.007825032070
           C          0.743874416716    -0.032963049872     0.420769842944    12.000000000000
           H         -0.809437583284    -0.176346049872    -1.065247157056     1.007825032070
           H         -0.797190583284    -1.493533049872     0.071086842944     1.007825032070
           C          1.827804416716    -0.736485049872    -0.400350157056    12.000000000000
           H          0.859072416716     1.045408950128     0.341634842944     1.007825032070
           H          0.877136416716    -0.277759049872     1.473822842944     1.007825032070
           C          3.263599416716    -0.453897049872     0.056587842944    12.000000000000
           H          1.723542416716    -0.457290049872    -1.447668157056     1.007825032070
           H          1.656567416716    -1.810007049872    -0.355128157056     1.007825032070
           C          3.714682416716     0.996673950128    -0.124445157056    12.000000000000
           H          3.936176416716    -1.099840049872    -0.502597157056     1.007825032070
           H          3.370798416716    -0.737641049872     1.101671842944     1.007825032070
           H          3.606717416716     1.312445950128    -1.158742157056     1.007825032070
           H          4.759326416716     1.112362950128     0.147900842944     1.007825032070
           H          3.140901416716     1.680772950128     0.491953842944     1.007825032070

  Charge       = 0
  Multiplicity = 1
  Basis Set: 6-31G*
  Basis Set:

    Orbital Energies (a.u.)
    -----------------------

    Doubly Occupied:

       1A    -20.552110     2A    -11.267613     3A    -11.212950
       4A    -11.211995     5A    -11.209407     6A    -11.208825
       7A    -11.207159     8A    -11.205365     9A     -1.359363
      10A     -1.085515    11A     -1.045799    12A     -0.983583
      13A     -0.912390    14A     -0.845819    15A     -0.794375
      16A     -0.773644    17A     -0.694668    18A     -0.650060
      19A     -0.624082    20A     -0.612664    21A     -0.585054
      22A     -0.580486    23A     -0.557000    24A     -0.536935
      25A     -0.519804    26A     -0.503777    27A     -0.494092
      28A     -0.478299    29A     -0.467168    30A     -0.454253
      31A     -0.451616    32A     -0.440433    33A     -0.419881

  @DF-RHF Final Energy:  -349.24551898892736

   => Energetics <=

    Nuclear Repulsion Energy =            383.9349909802866136
    One-Electron Energy =               -1234.4684256147240831
    Two-Electron Energy =                 501.2879156455097700
    DFT Exchange-Correlation Energy =       0.0000000000000000
    Empirical Dispersion Energy =           0.0000000000000000
    PCM Polarization Energy =               0.0000000000000000
    EFP Energy =                            0.0000000000000000
    Total Energy =                       -349.2455189889277563

  Mulliken Charges: (a.u.)
   Center  Symbol    Alpha    Beta     Spin     Total
       1     H     0.28006  0.28006  0.00000  0.43989
       2     O     4.37068  4.37068  0.00000 -0.74136
       3     C     3.00065  3.00065  0.00000 -0.00130
       4     C     3.15826  3.15826  0.00000 -0.31652
       5     H     0.42125  0.42125  0.00000  0.15750
       6     H     0.42961  0.42961  0.00000  0.14078
       7     C     3.15437  3.15437  0.00000 -0.30873
       8     H     0.42430  0.42430  0.00000  0.15139
       9     H     0.42532  0.42532  0.00000  0.14937
      10     C     3.15368  3.15368  0.00000 -0.30737
      11     H     0.40877  0.40877  0.00000  0.18246
      12     H     0.42518  0.42518  0.00000  0.14964
      13     C     3.15221  3.15221  0.00000 -0.30442
      14     H     0.42214  0.42214  0.00000  0.15572
      15     H     0.42624  0.42624  0.00000  0.14752
      16     C     3.15219  3.15219  0.00000 -0.30438
      17     H     0.42339  0.42339  0.00000  0.15321
      18     H     0.42259  0.42259  0.00000  0.15483
      19     C     3.24094  3.24094  0.00000 -0.48187
      20     H     0.42149  0.42149  0.00000  0.15703
      21     H     0.42410  0.42410  0.00000  0.15181
      22     H     0.42218  0.42218  0.00000  0.15564
      23     H     0.42001  0.42001  0.00000  0.15998
      24     H     0.42040  0.42040  0.00000  0.15920

   Total alpha = 33.00000, Total beta = 33.00000, Total charge =  0.00000
