  ==> Input File <==

--------------------------------------------------------------------------
set {
	reference rhf
	basis cc-pvtz
}

set_num_threads( 4 )
memory 2 gb

molecule MOL {
0 1

O	 0.218938	 1.039514	 -0.662366
C	 0.029490	 0.077183	 0.000078
C	 -1.232113	 -0.748027	 0.000015
O	 0.922671	 -0.408686	 0.845886
C	 -2.501422	 0.088592	 -0.000052
H	 -1.188777	 -1.400384	 -0.865133
H	 -1.188857	 -1.400312	 0.865225
H	 -2.548170	 0.725504	 -0.873205
H	 -3.371613	 -0.556398	 -0.000040
H	 -2.548215	 0.725571	 0.873047
C	 2.157685	 0.271151	 0.946899
H	 2.667916	 0.278186	 -0.004863
H	 2.737422	 -0.271195	 1.676002
H	 2.006591	 1.289436	 1.273257

	symmetry c1
}
set optking {
	frozen_dihedral = ("
		4 2 3 6
	")
}

ee = optimize('scf')
oeprop('DIPOLE', 'QUADRUPOLE', 'MULLIKEN_CHARGES')
f=open( 'psi4out.xyz', 'w' )
f.write( "14  " )
f.write( str(ee) + "\n" )
f.write( MOL.save_string_xyz() )
f.close()
--------------------------------------------------------------------------

    Molecular point group: c1
  Charge       = 0
  Multiplicity = 1
  Basis Set: CC-PVTZ
  Basis Set:
  @DF-RHF Final Energy:  -305.98602037819694
    Total Energy =                       -305.9860203781970540
    Molecular point group: c1
  Basis Set: CC-PVTZ
  Basis Set:
  Basis Set: CC-PVTZ
  Basis Set:
  @DF-RHF Final Energy:  -305.98640063597895
    Total Energy =                       -305.9864006359788959
  Basis Set: CC-PVTZ
  Basis Set:
  Basis Set: CC-PVTZ
  Basis Set:
  @DF-RHF Final Energy:  -305.98644872272848
    Total Energy =                       -305.9864487227287668
  Basis Set: CC-PVTZ
  Basis Set:
  Basis Set: CC-PVTZ
  Basis Set:
  @DF-RHF Final Energy:  -305.98650838656556
    Total Energy =                       -305.9865083865654469
  Basis Set: CC-PVTZ
  Basis Set:
  Basis Set: CC-PVTZ
  Basis Set:
  @DF-RHF Final Energy:  -305.98652251074907
    Total Energy =                       -305.9865225107489550
  Basis Set: CC-PVTZ
  Basis Set:
  Charge       = 0
  Multiplicity = 1
  Basis Set: CC-PVTZ
  Basis Set:

    Orbital Energies (a.u.)
    -----------------------

    Doubly Occupied:

       1A    -20.599250     2A    -20.532904     3A    -11.365239
       4A    -11.279270     5A    -11.236511     6A    -11.218174
       7A     -1.473662     8A     -1.366029     9A     -1.065258
      10A     -0.981265    11A     -0.879924    12A     -0.773197
      13A     -0.701819    14A     -0.685016    15A     -0.675673
      16A     -0.620451    17A     -0.603440    18A     -0.556197
      19A     -0.539601    20A     -0.519269    21A     -0.514510
      22A     -0.498260    23A     -0.460741    24A     -0.440892

  @DF-RHF Final Energy:  -305.98652315781464

   => Energetics <=

    Nuclear Repulsion Energy =            247.6106633405433683
    One-Electron Energy =                -908.0212680121849189
    Two-Electron Energy =                 354.4240815138268772
    DFT Exchange-Correlation Energy =       0.0000000000000000
    Empirical Dispersion Energy =           0.0000000000000000
    PCM Polarization Energy =               0.0000000000000000
    EFP Energy =                            0.0000000000000000
    Total Energy =                       -305.9865231578146449
    Molecular point group: c1
  Basis Set: CC-PVTZ
  Basis Set:

  -Total Gradient:
     Atom            X                  Y                   Z
    ------   -----------------  -----------------  -----------------
       1        0.000082439485    -0.000047335931     0.000085388913
       2        0.000253565394    -0.000434396182    -0.001096493327
       3        0.000433150214    -0.000731697762     0.000894149565
       4       -0.000304725244     0.000554664762     0.000710483081
       5        0.000036075003    -0.000023733741    -0.000000946815
       6       -0.000517962130     0.000747481883    -0.000526342469
       7        0.000003466762    -0.000035403773     0.000010878958
       8       -0.000015627835     0.000030727263    -0.000019969041
       9        0.000015355632    -0.000013624705    -0.000002240460
      10        0.000021655625    -0.000013822563    -0.000009251311
      11       -0.000013827039    -0.000052134122    -0.000052100207
      12        0.000029445948     0.000013578786     0.000000798009
      13        0.000005142338     0.000008121472     0.000002956946
      14       -0.000028154153    -0.000002425384     0.000002688157

  **** Optimization is complete! (in 6 steps) ****
    Final optimized geometry and variables:
    Molecular point group: c1

    Geometry (in Angstrom), charge = 0, multiplicity = 1:

    O            0.228928434756     0.980393261912    -0.824093263117
    C            0.065341170744     0.009510713362    -0.165953422511
    C           -1.190568846358    -0.827012470891    -0.175998957284
    O            0.982749252980    -0.471395087521     0.654336712430
    C           -2.455078487480     0.023430623600    -0.234332239903
    H           -1.130809518709    -1.450334039840    -1.062826341857
    H           -1.189822986590    -1.483311131990     0.682056181893
    H           -2.439406701691     0.676099516983    -1.095476993843
    H           -3.328985315114    -0.612819069394    -0.297689389053
    H           -2.552341331631     0.639468344264     0.651759758255
    C            2.220555040776     0.209587168531     0.711601680163
    H            2.699142711077     0.212257515557    -0.256435985945
    H            2.823649308549    -0.329324082892     1.424080151989
    H            2.078693302798     1.229142993220     1.037495210325

  Mulliken Charges: (a.u.)
   Center  Symbol    Alpha    Beta     Spin     Total
       1     O     4.20163  4.20163  0.00000 -0.40326
       2     C     2.80637  2.80637  0.00000  0.38727
       3     C     3.08782  3.08782  0.00000 -0.17565
       4     O     4.14393  4.14393  0.00000 -0.28786
       5     C     3.14310  3.14310  0.00000 -0.28620
       6     H     0.44630  0.44630  0.00000  0.10739
       7     H     0.43824  0.43824  0.00000  0.12351
       8     H     0.44176  0.44176  0.00000  0.11648
       9     H     0.44984  0.44984  0.00000  0.10033
      10     H     0.45337  0.45337  0.00000  0.09326
      11     C     3.03403  3.03403  0.00000 -0.06806
      12     H     0.45439  0.45439  0.00000  0.09123
      13     H     0.44520  0.44520  0.00000  0.10959
      14     H     0.45402  0.45402  0.00000  0.09197

   Total alpha = 24.00000, Total beta = 24.00000, Total charge = -0.00000
