                              Psi4 1.0.54 Driver

  ==> Input File <==

--------------------------------------------------------------------------
set {
	reference rhf
	basis cc-pvtz
}

set_num_threads( 4 )
memory 2 gb

molecule MOL {
0 1

H	 -2.090593	 0.067670	 -0.368260
C	 -1.189514	 -0.484952	 -0.209524
C	 -1.182031	 -1.865052	 -0.208236
C	 0.000000	 0.179985	 0.000046
H	 -2.096652	 -2.400793	 -0.369374
C	 0.000001	 -2.552036	 -0.000013
N	 0.000000	 1.644631	 0.000076
C	 1.189514	 -0.484961	 0.209590
H	 0.000000	 -3.625035	 -0.000032
C	 1.182032	 -1.865061	 0.208242
O	 1.050559	 2.194174	 -0.000073
O	 -1.050559	 2.194174	 -0.000074
H	 2.090595	 0.067655	 0.368340
H	 2.096652	 -2.400808	 0.369362

	symmetry c1
}
set optking {
	frozen_dihedral = ("
		2 4 7 11
	")
}

ee,wfn = optimize('scf', return_wfn=True)
oeprop( wfn, 'DIPOLE', 'QUADRUPOLE', 'MULLIKEN_CHARGES')
f=open( 'psi4out.xyz', 'w' )
f.write( "14  " )
f.write( str(ee) + "\n" )
f.write( MOL.save_string_xyz() )
f.close()
--------------------------------------------------------------------------

    Molecular point group: c1
  Charge       = 0
  Multiplicity = 1
  Basis Set: CC-PVTZ
  Basis Set:
  @DF-RHF Final Energy:  -434.32992158283338
    Total Energy =                       -434.3299215828334354
    Molecular point group: c1
  Basis Set: CC-PVTZ
  Basis Set:
  Basis Set: CC-PVTZ
  Basis Set:
  @DF-RHF Final Energy:  -434.32846994407805
    Total Energy =                       -434.3284699440782788
  Basis Set: CC-PVTZ
  Basis Set:
  Basis Set: CC-PVTZ
  Basis Set:
  @DF-RHF Final Energy:  -434.32986781619900
    Total Energy =                       -434.3298678161986572
  Basis Set: CC-PVTZ
  Basis Set:
  Basis Set: CC-PVTZ
  Basis Set:
  @DF-RHF Final Energy:  -434.32993548931518
    Total Energy =                       -434.3299354893154032
  Basis Set: CC-PVTZ
  Basis Set:
  Charge       = 0
  Multiplicity = 1
  Basis Set: CC-PVTZ
  Basis Set:

    Orbital Energies (a.u.)
    -----------------------

    Doubly Occupied:

       1A    -20.591861     2A    -20.591789     3A    -15.847753
       4A    -11.302532     5A    -11.267262     6A    -11.267221
       7A    -11.264741     8A    -11.258275     9A    -11.258138
      10A     -1.641188    11A     -1.423563    12A     -1.204589
      13A     -1.095734    14A     -1.055088    15A     -0.959471
      16A     -0.867262    17A     -0.829011    18A     -0.789367
      19A     -0.740724    20A     -0.735304    21A     -0.711728
      22A     -0.659643    23A     -0.651977    24A     -0.626421
      25A     -0.555428    26A     -0.541041    27A     -0.531376
      28A     -0.492386    29A     -0.491619    30A     -0.457581
      31A     -0.377592    32A     -0.369335

  @DF-RHF Final Energy:  -434.32993625650425

   => Energetics <=

    Nuclear Repulsion Energy =            418.2109849338491472
    One-Electron Energy =               -1420.1678416128986555
    Two-Electron Energy =                 567.6269204225452540
    DFT Exchange-Correlation Energy =       0.0000000000000000
    Empirical Dispersion Energy =           0.0000000000000000
    PCM Polarization Energy =               0.0000000000000000
    EFP Energy =                            0.0000000000000000
    Total Energy =                       -434.3299362565041974
    Molecular point group: c1
  Basis Set: CC-PVTZ
  Basis Set:

  -Total Gradient:
     Atom            X                  Y                   Z
    ------   -----------------  -----------------  -----------------
       1        0.000007389408    -0.000007902420     0.000015504876
       2        0.000147772667    -0.000037798954    -0.000845521218
       3       -0.000019622149    -0.000000412649     0.000117272229
       4       -0.000133032394     0.000021818023     0.000674503066
       5        0.000003402843    -0.000005719975    -0.000011974483
       6        0.000018279745    -0.000003494577    -0.000033331580
       7        0.000092494753    -0.000034001562     0.000953789203
       8       -0.000014858783    -0.000030697855     0.000133535189
       9       -0.000002306674    -0.000001362940     0.000004678006
      10        0.000014745136    -0.000031133900    -0.000067962612
      11        0.000000016367     0.000008091770    -0.000917073862
      12       -0.000096124023     0.000141474570    -0.000012795579
      13       -0.000015272561    -0.000009880603    -0.000017144706
      14       -0.000002884338    -0.000008978929     0.000006521470

  **** Optimization is complete! (in 5 steps) ****
    Final optimized geometry and variables:
    Molecular point group: c1

    Geometry (in Angstrom), charge = 0, multiplicity = 1:

    H           -2.089157272163     0.068451423817    -0.374599136394
    C           -1.189504726783    -0.484417511545    -0.208280643753
    C           -1.183248260561    -1.864505690415    -0.199633146838
    C           -0.000641150078     0.180018328623     0.004773653627
    H           -2.096672826833    -2.400426230861    -0.366768955610
    C           -0.003836635773    -2.551298552172     0.023125776349
    N            0.002568751844     1.644120019463    -0.014612354910
    C            1.187416332173    -0.484351538462     0.222730833326
    H           -0.005227812784    -3.624236137200     0.030915246190
    C            1.177497886682    -1.864369021727     0.235179126333
    O            1.054715894652     2.190766203307    -0.011173155182
    O           -1.046962509502     2.195442186518    -0.039225829096
    H            2.089073145599     0.068555119135     0.377631934387
    H            2.089892881977    -2.400166872245     0.408228989899

  Mulliken Charges: (a.u.)
   Center  Symbol    Alpha    Beta     Spin     Total
       1     H     0.39943  0.39943  0.00000  0.20113
       2     C     3.07749  3.07749  0.00000 -0.15498
       3     C     3.07218  3.07218  0.00000 -0.14436
       4     C     2.97883  2.97883  0.00000  0.04234
       5     H     0.41694  0.41694  0.00000  0.16612
       6     C     3.06467  3.06467  0.00000 -0.12934
       7     N     3.25410  3.25410  0.00000  0.49180
       8     C     3.07729  3.07729  0.00000 -0.15458
       9     H     0.41709  0.41709  0.00000  0.16582
      10     C     3.07215  3.07215  0.00000 -0.14431
      11     O     4.17660  4.17660  0.00000 -0.35321
      12     O     4.17675  4.17675  0.00000 -0.35350
      13     H     0.39953  0.39953  0.00000  0.20095
      14     H     0.41694  0.41694  0.00000  0.16611

   Total alpha = 32.00000, Total beta = 32.00000, Total charge =  0.00000

*** Psi4 exiting successfully. Buy a developer a beer!
