  ==> Input File <==

--------------------------------------------------------------------------
set {
	reference rhf
	basis 6-31G*
}

set_num_threads( 4 )
memory 2 gb

molecule MOL {
0 1

O	 -0.966305	 -2.829703	 -0.733647
C	 -0.780536	 -1.832268	 -1.362175
C	 -0.889235	 -0.467034	 -0.705952
C	 -0.398384	 -1.875192	 -2.824875
C	 0.379448	 -0.143569	 0.099626
H	 -1.744880	 -0.489510	 -0.039866
H	 -1.061635	 0.303198	 -1.452307
C	 1.631333	 -0.777471	 -0.511575
H	 0.482768	 0.934507	 0.149241
H	 0.263088	 -0.495696	 1.123449
C	 2.915987	 -0.544314	 0.291766
H	 1.766672	 -0.399098	 -1.523130
H	 1.471257	 -1.849544	 -0.605828
C	 3.373361	 0.914346	 0.347591
H	 3.708709	 -1.142521	 -0.150311
H	 2.780642	 -0.921148	 1.303579
H	 3.506512	 1.320010	 -0.651625
H	 4.322697	 0.999599	 0.867103
H	 2.660624	 1.545032	 0.868198
H	 -1.198159	 -1.447863	 -3.424053
H	 -0.226017	 -2.897112	 -3.132694
H	 0.491456	 -1.279640	 -3.007376

	symmetry c1
}
set optking {
	frozen_dihedral = ("
		6 3 5 8
	")
}

ee = optimize('scf')
oeprop('DIPOLE', 'QUADRUPOLE', 'MULLIKEN_CHARGES')
f=open( 'psi4out.xyz', 'w' )
f.write( "22  " )
f.write( str(ee) + "\n" )
f.write( MOL.save_string_xyz() )
f.close()
--------------------------------------------------------------------------

    Molecular point group: c1
  Charge       = 0
  Multiplicity = 1
  Basis Set: 6-31G*
  Basis Set:
  @DF-RHF Final Energy:  -348.08937591246303
    Total Energy =                       -348.0893759124631970
    Molecular point group: c1
  Basis Set: 6-31G*
  Basis Set:
  Basis Set: 6-31G*
  Basis Set:
  @DF-RHF Final Energy:  -348.09223960920178
    Total Energy =                       -348.0922396092020108
  Basis Set: 6-31G*
  Basis Set:
  Basis Set: 6-31G*
  Basis Set:
  @DF-RHF Final Energy:  -348.09107144142121
    Total Energy =                       -348.0910714414213203
  Basis Set: 6-31G*
  Basis Set:
  Basis Set: 6-31G*
  Basis Set:
  @DF-RHF Final Energy:  -348.09275609192292
    Total Energy =                       -348.0927560919229791
  Basis Set: 6-31G*
  Basis Set:
  @DF-RHF Final Energy:  -348.09284700922115
    Total Energy =                       -348.0928470092209182
  @DF-RHF Final Energy:  -348.09288731248120
    Total Energy =                       -348.0928873124812526
  @DF-RHF Final Energy:  -348.09294264946271
    Total Energy =                       -348.0929426494631116
  @DF-RHF Final Energy:  -348.09301552409659
    Total Energy =                       -348.0930155240965860
  @DF-RHF Final Energy:  -348.09303985295463
    Total Energy =                       -348.0930398529545755
  @DF-RHF Final Energy:  -348.09305264576267
    Total Energy =                       -348.0930526457625547
  @DF-RHF Final Energy:  -348.09305624060079
    Total Energy =                       -348.0930562406007880
  @DF-RHF Final Energy:  -348.09306155957790
    Total Energy =                       -348.0930615595776771
  Basis Set: 6-31G*
  Basis Set:
  @DF-RHF Final Energy:  -348.09307105814793
    Total Energy =                       -348.0930710581480980
  Basis Set: 6-31G*
  Basis Set:
  Basis Set: 6-31G*
  Basis Set:
  @DF-RHF Final Energy:  -348.09307561468029
    Total Energy =                       -348.0930756146799467
  Basis Set: 6-31G*
  Basis Set:
  Basis Set: 6-31G*
  Basis Set:
  @DF-RHF Final Energy:  -348.09307663928575
    Total Energy =                       -348.0930766392856412
  Basis Set: 6-31G*
  Basis Set:
  Charge       = 0
  Multiplicity = 1
  Basis Set: 6-31G*
  Basis Set:

    Orbital Energies (a.u.)
    -----------------------

    Doubly Occupied:

       1A    -20.547166     2A    -11.326016     3A    -11.231341
       4A    -11.228432     5A    -11.224461     6A    -11.215792
       7A    -11.213604     8A    -11.209378     9A     -1.394032
      10A     -1.088397    11A     -1.041049    12A     -0.999518
      13A     -0.936369    14A     -0.856548    15A     -0.786612
      16A     -0.723280    17A     -0.661793    18A     -0.634234
      19A     -0.625234    20A     -0.617038    21A     -0.601729
      22A     -0.582691    23A     -0.561474    24A     -0.546939
      25A     -0.527396    26A     -0.525569    27A     -0.493884
      28A     -0.481269    29A     -0.462484    30A     -0.460997
      31A     -0.451992    32A     -0.396253

  @DF-RHF Final Energy:  -348.09307630087972

   => Energetics <=

    Nuclear Repulsion Energy =            380.5160615608389207
    One-Electron Energy =               -1225.9123337271762466
    Two-Electron Energy =                 497.3031958654576101
    DFT Exchange-Correlation Energy =       0.0000000000000000
    Empirical Dispersion Energy =           0.0000000000000000
    PCM Polarization Energy =               0.0000000000000000
    EFP Energy =                            0.0000000000000000
    Total Energy =                       -348.0930763008797157
    Molecular point group: c1
  Basis Set: 6-31G*
  Basis Set:

  -Total Gradient:
     Atom            X                  Y                   Z
    ------   -----------------  -----------------  -----------------
       1        0.000007081661     0.000150666713    -0.000006202921
       2        0.000204036915    -0.000044982973     0.000032044058
       3       -0.001933846320     0.006410937406     0.000036003830
       4        0.000047152585     0.000006522653    -0.000042749828
       5        0.002032424378     0.005532480412    -0.004218287141
       6        0.000954374217    -0.006811650441     0.001163758322
       7       -0.000027909509    -0.000135965255    -0.000134911345
       8       -0.001195241207    -0.004715946697     0.002910810909
       9       -0.000042475526    -0.000034491542     0.000379436432
      10       -0.000029601601    -0.000321906783    -0.000156587127
      11       -0.000021400648    -0.000010795247    -0.000019194891
      12        0.000005859934     0.000007511988     0.000012761186
      13        0.000045995950     0.000013975317     0.000036384705
      14       -0.000013561278    -0.000007488093    -0.000009615848
      15       -0.000011253729     0.000004556800    -0.000004894244
      16       -0.000012093265    -0.000005944617    -0.000012002955
      17       -0.000007842032    -0.000002224153     0.000005444866
      18        0.000011556448     0.000000549570     0.000000712403
      19        0.000013405646    -0.000003276003    -0.000001368372
      20        0.000022597699    -0.000009479348     0.000013825671
      21       -0.000001202535    -0.000003186485    -0.000003557691
      22       -0.000048057777    -0.000019863218     0.000018189982

  **** Optimization is complete! (in 16 steps) ****
    Final optimized geometry and variables:
    Molecular point group: c1

    Geometry (in Angstrom), charge = 0, multiplicity = 1:

    O           -1.278456420835    -1.916166064763    -0.184021697517
    C           -1.437903093708    -0.923849624563    -0.828090590963
    C           -1.451817647616     0.448247177293    -0.165889666787
    C           -1.681981794385    -0.979578619931    -2.319137717535
    C           -0.251647543663     0.734160129041     0.765098027420
    H           -2.357950143313     0.422986046128     0.434639134680
    H           -1.559508061796     1.223827139015    -0.915960779070
    C            1.090286364966     0.135025937029     0.328026876663
    H           -0.174056080370     1.809563628438     0.881117531058
    H           -0.481245976914     0.335745850412     1.748576654058
    C            2.260810580534     0.514589850603     1.243326027421
    H            1.324394772543     0.447409724175    -0.690682283475
    H            1.001548613477    -0.943426627132     0.311153793273
    C            2.671282072701     1.987139713912     1.183969079327
    H            3.118061772368    -0.095367100500     0.970238796282
    H            2.014707644133     0.246801005225     2.268783529985
    H            2.920492445592     2.281436518174     0.167886241132
    H            3.545078553106     2.168191370327     1.802350851433
    H            1.884537773897     2.646414320269     1.535630823142
    H           -2.619605126414    -0.489364773881    -2.566240240458
    H           -1.708868165968    -2.007908376711    -2.651624468308
    H           -0.894189030176    -0.445685998334    -2.843621525899

  Mulliken Charges: (a.u.)
   Center  Symbol    Alpha    Beta     Spin     Total
       1     O     4.26518  4.26518  0.00000 -0.53035
       2     C     2.73588  2.73588  0.00000  0.52824
       3     C     3.20706  3.20706  0.00000 -0.41412
       4     C     3.28964  3.28964  0.00000 -0.57928
       5     C     3.14944  3.14944  0.00000 -0.29889
       6     H     0.40033  0.40033  0.00000  0.19935
       7     H     0.41478  0.41478  0.00000  0.17043
       8     C     3.16669  3.16669  0.00000 -0.33338
       9     H     0.41653  0.41653  0.00000  0.16694
      10     H     0.41254  0.41254  0.00000  0.17491
      11     C     3.15396  3.15396  0.00000 -0.30791
      12     H     0.42970  0.42970  0.00000  0.14060
      13     H     0.40045  0.40045  0.00000  0.19909
      14     C     3.24108  3.24108  0.00000 -0.48215
      15     H     0.41921  0.41921  0.00000  0.16157
      16     H     0.42121  0.42121  0.00000  0.15758
      17     H     0.42286  0.42286  0.00000  0.15428
      18     H     0.41848  0.41848  0.00000  0.16304
      19     H     0.42146  0.42146  0.00000  0.15707
      20     H     0.40843  0.40843  0.00000  0.18314
      21     H     0.39735  0.39735  0.00000  0.20530
      22     H     0.40774  0.40774  0.00000  0.18452

   Total alpha = 32.00000, Total beta = 32.00000, Total charge = -0.00000
