  ==> Input File <==

--------------------------------------------------------------------------
set {
	reference rhf
	basis 6-31G*
}

set_num_threads( 4 )
memory 2 gb

molecule MOL {
0 1

H	 3.083879	 -1.346558	 -0.395444
O	 2.172668	 -1.603300	 -0.415122
C	 1.365383	 -0.540424	 -0.207814
C	 1.860358	 0.740366	 0.001662
C	 -0.000652	 -0.762636	 -0.208979
H	 2.923783	 0.911136	 0.002183
C	 0.989896	 1.797112	 0.209638
H	 -0.384298	 -1.751448	 -0.370661
C	 -0.865228	 0.300799	 0.000000
H	 1.384723	 2.783807	 0.370644
C	 -0.376775	 1.584170	 0.210105
C	 -2.333960	 0.069074	 0.000000
H	 -1.054717	 2.403541	 0.371447
O	 -2.847347	 -1.003763	 0.000000
H	 -2.943845	 0.977528	 0.000000

	symmetry c1
}
set optking {
	frozen_dihedral = ("
		11 9 12 14
	")
}

ee = optimize('scf')
oeprop('DIPOLE', 'QUADRUPOLE', 'MULLIKEN_CHARGES')
f=open( 'psi4out.xyz', 'w' )
f.write( "15  " )
f.write( str(ee) + "\n" )
f.write( MOL.save_string_xyz() )
f.close()
--------------------------------------------------------------------------

    Molecular point group: c1
  Charge       = 0
  Multiplicity = 1
  Basis Set: 6-31G*
  Basis Set:
  @DF-RHF Final Energy:  -418.28583341068213
    Total Energy =                       -418.2858334106816756
    Molecular point group: c1
  Basis Set: 6-31G*
  Basis Set:
  Basis Set: 6-31G*
  Basis Set:
  @DF-RHF Final Energy:  -418.28536785341936
    Total Energy =                       -418.2853678534188475
  Basis Set: 6-31G*
  Basis Set:
  Basis Set: 6-31G*
  Basis Set:
  @DF-RHF Final Energy:  -418.28587053393483
    Total Energy =                       -418.2858705339349399
  Basis Set: 6-31G*
  Basis Set:
  Basis Set: 6-31G*
  Basis Set:
  @DF-RHF Final Energy:  -418.28588840871402
    Total Energy =                       -418.2858884087140723
  Basis Set: 6-31G*
  Basis Set:
  Charge       = 0
  Multiplicity = 1
  Basis Set: 6-31G*
  Basis Set:

    Orbital Energies (a.u.)
    -----------------------

    Doubly Occupied:

       1A    -20.601712     2A    -20.564585     3A    -11.332489
       4A    -11.312855     5A    -11.253253     6A    -11.251925
       7A    -11.249848     8A    -11.246117     9A    -11.239505
      10A     -1.421441    11A     -1.405083    12A     -1.169579
      13A     -1.048697    14A     -1.027108    15A     -0.900076
      16A     -0.845762    17A     -0.813467    18A     -0.735945
      19A     -0.702162    20A     -0.685612    21A     -0.639756
      22A     -0.635864    23A     -0.611358    24A     -0.601571
      25A     -0.574674    26A     -0.549941    27A     -0.542758
      28A     -0.513239    29A     -0.486353    30A     -0.423552
      31A     -0.353527    32A     -0.325772

  @DF-RHF Final Energy:  -418.28588854678679

   => Energetics <=

    Nuclear Repulsion Energy =            403.1599415397603821
    One-Electron Energy =               -1368.7604909563224282
    Two-Electron Energy =                 547.3146608697752526
    DFT Exchange-Correlation Energy =       0.0000000000000000
    Empirical Dispersion Energy =           0.0000000000000000
    PCM Polarization Energy =               0.0000000000000000
    EFP Energy =                            0.0000000000000000
    Total Energy =                       -418.2858885467867367
    Molecular point group: c1
  Basis Set: 6-31G*
  Basis Set:

  -Total Gradient:
     Atom            X                  Y                   Z
    ------   -----------------  -----------------  -----------------
       1       -0.000000188487     0.000003026872    -0.000014788510
       2       -0.000002580953     0.000000413982     0.000002176770
       3        0.000010105660    -0.000003124394     0.000044716490
       4       -0.000000245990     0.000001732954    -0.000059236715
       5       -0.000008869411     0.000000390104     0.000014279277
       6       -0.000000525172    -0.000000284740     0.000006044630
       7       -0.000006942621    -0.000007844146     0.000046289176
       8       -0.000000300003     0.000002036456    -0.000010774820
       9       -0.000080953943     0.000373132333    -0.001294309342
      10        0.000000599617     0.000001898121    -0.000008034523
      11        0.000063248414    -0.000263198441     0.001449243880
      12       -0.000009472984    -0.000088342812    -0.001995944365
      13       -0.000000469306    -0.000000186033    -0.000004216976
      14        0.000032191217    -0.000022762153     0.001828284679
      15        0.000004403970     0.000003111895    -0.000003729653

  **** Optimization is complete! (in 5 steps) ****
    Final optimized geometry and variables:
    Molecular point group: c1

    Geometry (in Angstrom), charge = 0, multiplicity = 1:

    H            3.084528745339    -1.353098633072    -0.330340778304
    O            2.173097358642    -1.608340694760    -0.357714805106
    C            1.365835054293    -0.545076508877    -0.152143783410
    C            1.860978034524     0.734918442956     0.061867554316
    C           -0.000293264093    -0.766578084194    -0.157712480952
    H            2.924569472852     0.904678284803     0.068322190189
    C            0.990298231440     1.791904275628     0.267663907345
    H           -0.383549905111    -1.756385862125    -0.314195916795
    C           -0.865194386141     0.298682156451     0.040213009842
    H            1.385165136660     2.777393994349     0.435444818330
    C           -0.376657133088     1.581130344675     0.255719535045
    C           -2.333495007775     0.064037229942     0.057738386247
    H           -1.054687787244     2.401418881745     0.412006168742
    O           -2.844041526462    -1.010200112793     0.054621168098
    H           -2.945546430180     0.970251751354     0.093711095803

  Mulliken Charges: (a.u.)
   Center  Symbol    Alpha    Beta     Spin     Total
       1     H     0.27063  0.27063  0.00000  0.45873
       2     O     4.37597  4.37597  0.00000 -0.75195
       3     C     2.79461  2.79461  0.00000  0.41078
       4     C     3.13455  3.13455  0.00000 -0.26911
       5     C     3.11358  3.11358  0.00000 -0.22716
       6     H     0.39901  0.39901  0.00000  0.20199
       7     C     3.09479  3.09479  0.00000 -0.18959
       8     H     0.37060  0.37060  0.00000  0.25881
       9     C     3.04494  3.04494  0.00000 -0.08989
      10     H     0.39302  0.39302  0.00000  0.21397
      11     C     3.11549  3.11549  0.00000 -0.23098
      12     C     2.83351  2.83351  0.00000  0.33298
      13     H     0.39334  0.39334  0.00000  0.21332
      14     O     4.24400  4.24400  0.00000 -0.48800
      15     H     0.42195  0.42195  0.00000  0.15610

   Total alpha = 32.00000, Total beta = 32.00000, Total charge = -0.00000
