  ==> Input File <==

--------------------------------------------------------------------------
set {
	reference rhf
	basis cc-pvtz
}

set_num_threads( 4 )
memory 2 gb

molecule MOL {
0 1

H	 -0.762179	 -2.102586	 -4.293561
C	 -0.229810	 -1.784141	 -3.418752
C	 -0.525495	 -2.328426	 -2.176916
C	 0.756852	 -0.830047	 -3.508635
H	 -1.292447	 -3.074268	 -2.087268
C	 0.154112	 -1.923323	 -1.053507
H	 0.999716	 -0.397426	 -4.460762
C	 1.453083	 -0.409448	 -2.384016
H	 -0.066614	 -2.337503	 -0.089450
C	 1.150790	 -0.958067	 -1.151249
H	 2.215251	 0.334780	 -2.487391
O	 1.760432	 -0.625184	 0.000000
C	 2.773565	 0.334879	 0.000000
H	 2.728295	 0.960928	 -0.884150
H	 3.706387	 -0.206610	 0.000000
H	 2.728295	 0.960928	 0.884150

	symmetry c1
}
set optking {
	frozen_dihedral = ("
		10 12 13 14
	")
}

ee = optimize('scf')
oeprop('DIPOLE', 'QUADRUPOLE', 'MULLIKEN_CHARGES')
f=open( 'psi4out.xyz', 'w' )
f.write( "16  " )
f.write( str(ee) + "\n" )
f.write( MOL.save_string_xyz() )
f.close()
--------------------------------------------------------------------------

    Molecular point group: c1
  Charge       = 0
  Multiplicity = 1
  Basis Set: CC-PVTZ
  Basis Set:
  @DF-RHF Final Energy:  -344.69696183567027
    Total Energy =                       -344.6969618356706633
    Molecular point group: c1
  Basis Set: CC-PVTZ
  Basis Set:
  Basis Set: CC-PVTZ
  Basis Set:
  @DF-RHF Final Energy:  -344.69745424559392
    Total Energy =                       -344.6974542455939172
  Basis Set: CC-PVTZ
  Basis Set:
  Basis Set: CC-PVTZ
  Basis Set:
  @DF-RHF Final Energy:  -344.69987432915104
    Total Energy =                       -344.6998743291511573
  Basis Set: CC-PVTZ
  Basis Set:
  Basis Set: CC-PVTZ
  Basis Set:
  @DF-RHF Final Energy:  -344.70030165101491
    Total Energy =                       -344.7003016510148541
  Basis Set: CC-PVTZ
  Basis Set:
  Basis Set: CC-PVTZ
  Basis Set:
  @DF-RHF Final Energy:  -344.70070990445532
    Total Energy =                       -344.7007099044552660
  Basis Set: CC-PVTZ
  Basis Set:
  Basis Set: CC-PVTZ
  Basis Set:
  @DF-RHF Final Energy:  -344.70075239618978
    Total Energy =                       -344.7007523961895572
  Basis Set: CC-PVTZ
  Basis Set:
  Basis Set: CC-PVTZ
  Basis Set:
  @DF-RHF Final Energy:  -344.70075857349946
    Total Energy =                       -344.7007585734999111
  Basis Set: CC-PVTZ
  Basis Set:
  Charge       = 0
  Multiplicity = 1
  Basis Set: CC-PVTZ
  Basis Set:

    Orbital Energies (a.u.)
    -----------------------

    Doubly Occupied:

       1A    -20.575435     2A    -11.292516     3A    -11.277512
       4A    -11.231474     5A    -11.230085     6A    -11.222425
       7A    -11.218387     8A    -11.218024     9A     -1.414296
      10A     -1.151157    11A     -1.024512    12A     -1.017042
      13A     -0.942508    14A     -0.835507    15A     -0.808638
      16A     -0.724033    17A     -0.667477    18A     -0.666704
      19A     -0.654718    20A     -0.618264    21A     -0.592326
      22A     -0.583195    23A     -0.527899    24A     -0.519732
      25A     -0.511894    26A     -0.483125    27A     -0.458582
      28A     -0.339595    29A     -0.312041

  @DF-RHF Final Energy:  -344.70075949794125

   => Energetics <=

    Nuclear Repulsion Energy =            348.5189327488558320
    One-Electron Energy =               -1158.2011682988384109
    Two-Electron Energy =                 464.9814760520414438
    DFT Exchange-Correlation Energy =       0.0000000000000000
    Empirical Dispersion Energy =           0.0000000000000000
    PCM Polarization Energy =               0.0000000000000000
    EFP Energy =                            0.0000000000000000
    Total Energy =                       -344.7007594979411351
    Molecular point group: c1
  Basis Set: CC-PVTZ
  Basis Set:

  -Total Gradient:
     Atom            X                  Y                   Z
    ------   -----------------  -----------------  -----------------
       1       -0.000011098377    -0.000012785994     0.000003371864
       2        0.000096840186     0.000081982834    -0.000069864435
       3        0.000016421510    -0.000021460968     0.000133477274
       4       -0.000114432750    -0.000034648221    -0.000057214246
       5        0.000001833047     0.000008899494    -0.000013889267
       6       -0.000088341844     0.000013690828    -0.000020469168
       7        0.000010057586    -0.000001940424     0.000007509572
       8       -0.000005333701    -0.000010598010     0.000119504754
       9        0.000005202370    -0.000001170661     0.000010481252
      10       -0.002037772487     0.000985709764     0.000924070046
      11        0.000004791955     0.000016558421     0.000006717936
      12        0.003694946051    -0.001870492236    -0.002260566921
      13       -0.003472356005     0.001719499859     0.003350041054
      14        0.001922412352    -0.000868259773    -0.002161268233
      15       -0.000027281634    -0.000029981592     0.000011226869
      16        0.000004111744     0.000024996679     0.000016871654

  **** Optimization is complete! (in 8 steps) ****
    Final optimized geometry and variables:
    Molecular point group: c1

    Geometry (in Angstrom), charge = 0, multiplicity = 1:

    H           -1.914731655846    -0.919370990663    -2.582371979939
    C           -1.308526423372    -0.665415262168    -1.734824527605
    C           -1.604895956126    -1.175174547622    -0.480989826963
    C           -0.221104013518     0.168654056960    -1.877291804711
    H           -2.447581670509    -1.827870179400    -0.353086185322
    C           -0.832295266558    -0.848419983152     0.610755738830
    H            0.028534666288     0.564847087585    -2.843378597361
    C            0.569642318249     0.500309563852    -0.789135356491
    H           -1.054441931446    -1.235175933718     1.585796860916
    C            0.258639619718    -0.003642122929     0.461387768580
    H            1.423442114168     1.132984917367    -0.927089575098
    O            0.987471320678     0.241578215846     1.567405257770
    C            1.683719294453     1.449387328845     1.708161501595
    H            1.292881292429     2.217594873200     1.055159300895
    H            2.734031250532     1.307905334402     1.479384750959
    H            1.588277076618     1.763166514357     2.737124436215

  Mulliken Charges: (a.u.)
   Center  Symbol    Alpha    Beta     Spin     Total
       1     H     0.42429  0.42429  0.00000  0.15142
       2     C     3.09840  3.09840  0.00000 -0.19681
       3     C     3.05963  3.05963  0.00000 -0.11926
       4     C     3.06397  3.06397  0.00000 -0.12793
       5     H     0.42285  0.42285  0.00000  0.15430
       6     C     3.11009  3.11009  0.00000 -0.22018
       7     H     0.42297  0.42297  0.00000  0.15406
       8     C     3.13285  3.13285  0.00000 -0.26569
       9     H     0.41965  0.41965  0.00000  0.16069
      10     C     2.85615  2.85615  0.00000  0.28769
      11     H     0.42343  0.42343  0.00000  0.15314
      12     O     4.16006  4.16006  0.00000 -0.32013
      13     C     3.04089  3.04089  0.00000 -0.08178
      14     H     0.46397  0.46397  0.00000  0.07206
      15     H     0.45662  0.45662  0.00000  0.08676
      16     H     0.44418  0.44418  0.00000  0.11164

   Total alpha = 29.00000, Total beta = 29.00000, Total charge = -0.00000
