                              Psi4 1.0.54 Driver

  ==> Input File <==

--------------------------------------------------------------------------
set {
	reference rhf
	basis cc-pvtz
}

set_num_threads( 4 )
memory 2 gb

molecule MOL {
0 1

H	 2.614283	 2.028610	 0.296620
O	 3.358864	 1.662087	 -0.142800
C	 3.565468	 0.338079	 0.273842
C	 2.533667	 -0.637565	 -0.272227
H	 4.548038	 0.064914	 -0.086598
H	 3.593945	 0.282242	 1.360360
C	 1.612656	 -1.235539	 0.788912
H	 1.940932	 -0.127585	 -1.025714
H	 3.066642	 -1.438720	 -0.778672
C	 0.612564	 -2.234479	 0.208592
H	 1.076076	 -0.436489	 1.289516
H	 2.213529	 -1.732883	 1.548444
C	 -0.287131	 -2.920512	 1.238234
H	 -0.006522	 -1.731398	 -0.530237
H	 1.163290	 -3.000424	 -0.330385
C	 -1.284859	 -2.000762	 1.939903
H	 -0.839418	 -3.710006	 0.736032
H	 0.332621	 -3.414026	 1.983557
C	 -2.224866	 -2.747643	 2.882753
H	 -1.873428	 -1.474139	 1.191756
H	 -0.756972	 -1.237811	 2.504034
C	 -3.219879	 -1.831821	 3.587815
H	 -2.767024	 -3.504913	 2.323124
H	 -1.638054	 -3.281191	 3.625747
H	 -3.844264	 -1.307416	 2.872007
H	 -3.872648	 -2.393400	 4.246321
H	 -2.708814	 -1.085557	 4.187193

	symmetry c1
}
set optking {
	frozen_dihedral = ("
		8 4 3 2
	")
}

ee,wfn = optimize('scf', return_wfn=True)
oeprop( wfn, 'DIPOLE', 'QUADRUPOLE', 'MULLIKEN_CHARGES')
f=open( 'psi4out.xyz', 'w' )
f.write( "27  " )
f.write( str(ee) + "\n" )
f.write( MOL.save_string_xyz() )
f.close()
--------------------------------------------------------------------------

    Molecular point group: c1
  Charge       = 0
  Multiplicity = 1
  Basis Set: CC-PVTZ
  Basis Set:
  @DF-RHF Final Energy:  -388.42198103697268
    Total Energy =                       -388.4219810369725110
    Molecular point group: c1
  Basis Set: CC-PVTZ
  Basis Set:
  Basis Set: CC-PVTZ
  Basis Set:
  @DF-RHF Final Energy:  -388.42236380493620
    Total Energy =                       -388.4223638049352303
  Basis Set: CC-PVTZ
  Basis Set:
  Basis Set: CC-PVTZ
  Basis Set:
  @DF-RHF Final Energy:  -388.42246281611449
    Total Energy =                       -388.4224628161147166
  Basis Set: CC-PVTZ
  Basis Set:
  Basis Set: CC-PVTZ
  Basis Set:
  @DF-RHF Final Energy:  -388.42246713434662
    Total Energy =                       -388.4224671343466753
  Basis Set: CC-PVTZ
  Basis Set:
  Basis Set: CC-PVTZ
  Basis Set:
  @DF-RHF Final Energy:  -388.42246701454053
    Total Energy =                       -388.4224670145406435
  Basis Set: CC-PVTZ
  Basis Set:
  Basis Set: CC-PVTZ
  Basis Set:
  @DF-RHF Final Energy:  -388.42246824115438
    Total Energy =                       -388.4224682411540925
  Basis Set: CC-PVTZ
  Basis Set:
  Charge       = 0
  Multiplicity = 1
  Basis Set: CC-PVTZ
  Basis Set:

    Orbital Energies (a.u.)
    -----------------------

    Doubly Occupied:

       1A    -20.544923     2A    -11.264720     3A    -11.216777
       4A    -11.214441     5A    -11.214174     6A    -11.213309
       7A    -11.213035     8A    -11.212201     9A    -11.207717
      10A     -1.362128    11A     -1.096290    12A     -1.062428
      13A     -1.011369    14A     -0.946760    15A     -0.886512
      16A     -0.823435    17A     -0.804615    18A     -0.779182
      19A     -0.689780    20A     -0.654757    21A     -0.643436
      22A     -0.609832    23A     -0.602915    24A     -0.585353
      25A     -0.576044    26A     -0.554050    27A     -0.543073
      28A     -0.529763    29A     -0.508585    30A     -0.500858
      31A     -0.484274    32A     -0.474592    33A     -0.465193
      34A     -0.460504    35A     -0.451883    36A     -0.441977
      37A     -0.425202

  @DF-RHF Final Energy:  -388.42246846680968

   => Energetics <=

    Nuclear Repulsion Energy =            456.2846115351570120
    One-Electron Energy =               -1430.8619935752358288
    Two-Electron Energy =                 586.1549135732693685
    DFT Exchange-Correlation Energy =       0.0000000000000000
    Empirical Dispersion Energy =           0.0000000000000000
    PCM Polarization Energy =               0.0000000000000000
    EFP Energy =                            0.0000000000000000
    Total Energy =                       -388.4224684668095051
    Molecular point group: c1
  Basis Set: CC-PVTZ
  Basis Set:

  -Total Gradient:
     Atom            X                  Y                   Z
    ------   -----------------  -----------------  -----------------
       1       -0.000023527410     0.000017828202     0.000004517867
       2        0.001243770223    -0.000303988925    -0.001651083563
       3       -0.002071897152     0.000556980328     0.002624413457
       4        0.002582294133    -0.000964123581    -0.002768958445
       5        0.000003801610    -0.000020828859    -0.000004979647
       6       -0.000005154689    -0.000008870622     0.000004005612
       7       -0.000017799991     0.000014933796     0.000017956049
       8       -0.001740708379     0.000695889967     0.001790279650
       9        0.000014897612     0.000001805910    -0.000009383021
      10        0.000005061457     0.000012468629    -0.000007802521
      11        0.000000731250    -0.000005523857     0.000001923013
      12       -0.000003501672    -0.000004881508    -0.000009631958
      13        0.000008425261     0.000007674669     0.000009331469
      14       -0.000001548551     0.000004969827    -0.000001968523
      15        0.000003138686    -0.000000032183    -0.000004253990
      16        0.000002637260    -0.000000188326     0.000003309881
      17        0.000004796141     0.000002893863    -0.000003927801
      18       -0.000002664683    -0.000001369937     0.000006314323
      19       -0.000000125231     0.000001493882     0.000000599846
      20        0.000002577473    -0.000001126983     0.000000437070
      21       -0.000001529014    -0.000002638486    -0.000000420194
      22       -0.000001878750    -0.000003506813    -0.000001550859
      23       -0.000000844178    -0.000001221978     0.000000822790
      24       -0.000001050952     0.000001921090     0.000000935258
      25        0.000000256250    -0.000000015707    -0.000000192123
      26       -0.000001013751     0.000000732696    -0.000000132969
      27        0.000000857055    -0.000001275090    -0.000000560674

  **** Optimization is complete! (in 7 steps) ****
    Final optimized geometry and variables:
    Molecular point group: c1

    Geometry (in Angstrom), charge = 0, multiplicity = 1:

    H            1.940998446208     3.210299872844    -0.948442537466
    O            2.759290772955     2.905244414321    -1.296183378106
    C            3.008094885116     1.592308940815    -0.864212230063
    C            2.015433067158     0.563541857818    -1.428010758851
    H            4.010439978991     1.370624106135    -1.202124626224
    H            3.021430768945     1.549379172885     0.221780873859
    C            1.071910500803    -0.021699892088    -0.376921459295
    H            1.427071861515     1.057132069435    -2.194075651157
    H            2.553268569792    -0.243209362655    -1.914426075671
    C            0.060553475122    -1.002926095944    -0.965333197323
    H            0.553194607554     0.791057360376     0.124258652542
    H            1.655846965160    -0.526659765250     0.389293990652
    C           -0.845202588573    -1.690366138138     0.058082385388
    H           -0.554050999334    -0.487020435422    -1.699411175971
    H            0.602835346661    -1.768979464942    -1.512844106590
    C           -1.825147875376    -0.765520524964     0.777724237847
    H           -1.411862847751    -2.463959579716    -0.452668193111
    H           -0.229769107126    -2.203692397883     0.793351167451
    C           -2.772315024058    -1.510802724866     1.714546825276
    H           -2.409296294795    -0.219550873233     0.039897825375
    H           -1.282392694128    -0.019206264304     1.349875661979
    C           -3.749390258635    -0.589730234134     2.437501788922
    H           -3.328944525705    -2.251526790583     1.147091414753
    H           -2.190331709167    -2.063748257237     2.446945534408
    H           -4.369491659499    -0.046081252408     1.732384249442
    H           -4.407273376797    -1.150190592473     3.091773178268
    H           -3.223728506326     0.140203144067     3.044275513978

  Mulliken Charges: (a.u.)
   Center  Symbol    Alpha    Beta     Spin     Total
       1     H     0.39506  0.39506  0.00000  0.20987
       2     O     4.20195  4.20195  0.00000 -0.40390
       3     C     2.97278  2.97278  0.00000  0.05444
       4     C     3.10539  3.10539  0.00000 -0.21079
       5     H     0.45241  0.45241  0.00000  0.09518
       6     H     0.47001  0.47001  0.00000  0.05997
       7     C     3.09512  3.09512  0.00000 -0.19025
       8     H     0.44812  0.44812  0.00000  0.10375
       9     H     0.45073  0.45073  0.00000  0.09855
      10     C     3.10024  3.10024  0.00000 -0.20047
      11     H     0.45677  0.45677  0.00000  0.08646
      12     H     0.45350  0.45350  0.00000  0.09300
      13     C     3.09781  3.09781  0.00000 -0.19563
      14     H     0.45257  0.45257  0.00000  0.09486
      15     H     0.44745  0.44745  0.00000  0.10510
      16     C     3.08798  3.08798  0.00000 -0.17597
      17     H     0.44803  0.44803  0.00000  0.10394
      18     H     0.45350  0.45350  0.00000  0.09299
      19     C     3.08404  3.08404  0.00000 -0.16808
      20     H     0.45518  0.45518  0.00000  0.08964
      21     H     0.45432  0.45432  0.00000  0.09135
      22     C     3.14976  3.14976  0.00000 -0.29951
      23     H     0.45376  0.45376  0.00000  0.09247
      24     H     0.45445  0.45445  0.00000  0.09109
      25     H     0.45520  0.45520  0.00000  0.08961
      26     H     0.44816  0.44816  0.00000  0.10369
      27     H     0.45569  0.45569  0.00000  0.08862

   Total alpha = 37.00000, Total beta = 37.00000, Total charge = -0.00000

*** Psi4 exiting successfully. Buy a developer a beer!
