  ==> Input File <==

--------------------------------------------------------------------------
set {
	reference rhf
	basis cc-pvtz
}

set_num_threads( 4 )
memory 2 gb

molecule MOL {
0 1

H	 1.113071	 -0.529509	 0.439840
C	 0.848385	 0.440008	 0.000011
C	 -0.623497	 0.751021	 0.000090
O	 1.692432	 1.148794	 -0.427133
C	 -1.523725	 -0.474323	 -0.000013
H	 -0.813143	 1.382932	 -0.864897
H	 -0.813071	 1.382716	 0.865253
H	 -1.342980	 -1.087348	 -0.873016
H	 -2.565269	 -0.177464	 0.000070
H	 -1.342898	 -1.087564	 0.872820

	symmetry c1
}
set optking {
	frozen_dihedral = ("
		4 2 3 6
	")
}

ee = optimize('scf')
oeprop('DIPOLE', 'QUADRUPOLE', 'MULLIKEN_CHARGES')
f=open( 'psi4out.xyz', 'w' )
f.write( "10  " )
f.write( str(ee) + "\n" )
f.write( MOL.save_string_xyz() )
f.close()
--------------------------------------------------------------------------

    Molecular point group: c1
  Charge       = 0
  Multiplicity = 1
  Basis Set: CC-PVTZ
  Basis Set:
  @DF-RHF Final Energy:  -192.02226950764430
    Total Energy =                       -192.0222695076442960
    Molecular point group: c1
  Basis Set: CC-PVTZ
  Basis Set:
  Basis Set: CC-PVTZ
  Basis Set:
  @DF-RHF Final Energy:  -192.02206059351869
    Total Energy =                       -192.0220605935186882
  Basis Set: CC-PVTZ
  Basis Set:
  Basis Set: CC-PVTZ
  Basis Set:
  @DF-RHF Final Energy:  -192.02224913754199
    Total Energy =                       -192.0222491375420475
  Basis Set: CC-PVTZ
  Basis Set:
  Basis Set: CC-PVTZ
  Basis Set:
  @DF-RHF Final Energy:  -192.02262522747634
    Total Energy =                       -192.0226252274764249
  Basis Set: CC-PVTZ
  Basis Set:
  Charge       = 0
  Multiplicity = 1
  Basis Set: CC-PVTZ
  Basis Set:

    Orbital Energies (a.u.)
    -----------------------

    Doubly Occupied:

       1A    -20.553010     2A    -11.323457     3A    -11.238413
       4A    -11.230852     5A     -1.408594     6A     -1.068059
       7A     -0.903487     8A     -0.797755     9A     -0.667935
      10A     -0.643852    11A     -0.631992    12A     -0.558690
      13A     -0.546467    14A     -0.523348    15A     -0.494695
      16A     -0.415133

  @DF-RHF Final Energy:  -192.02262661502263

   => Energetics <=

    Nuclear Repulsion Energy =            117.2242698938381693
    One-Electron Energy =                -492.4823151703830035
    Two-Electron Energy =                 183.2354186615221465
    DFT Exchange-Correlation Energy =       0.0000000000000000
    Empirical Dispersion Energy =           0.0000000000000000
    PCM Polarization Energy =               0.0000000000000000
    EFP Energy =                            0.0000000000000000
    Total Energy =                       -192.0226266150227161
    Molecular point group: c1
  Basis Set: CC-PVTZ
  Basis Set:

  -Total Gradient:
     Atom            X                  Y                   Z
    ------   -----------------  -----------------  -----------------
       1       -0.000028615638    -0.000006955305    -0.000006820804
       2       -0.000223567923    -0.000978908066    -0.001579175744
       3        0.000263407375     0.001179056382     0.001160417773
       4        0.000081874447     0.000579759145     0.001014300585
       5        0.000072162130     0.000090243461    -0.000006179782
       6       -0.000176654571    -0.000894189941    -0.000605528237
       7        0.000021974024     0.000032590422     0.000020879429
       8       -0.000006025910    -0.000009606609    -0.000003312918
       9       -0.000008001121     0.000008352686     0.000000895325
      10        0.000003447190    -0.000000342175     0.000004524374

  **** Optimization is complete! (in 5 steps) ****
    Final optimized geometry and variables:
    Molecular point group: c1

    Geometry (in Angstrom), charge = 0, multiplicity = 1:

    H            1.018003747864    -0.983569449437     0.585533333894
    C            0.749367922283    -0.028965479361     0.114064346473
    C           -0.722294745962     0.302441548550     0.102000752183
    O            1.593275067125     0.676479066665    -0.317747280120
    C           -1.617157374664    -0.932440228336     0.110807446100
    H           -0.916535406540     0.927332304187    -0.759905839938
    H           -0.910118496245     0.906676215807     0.985877275320
    H           -1.455524397392    -1.541985987917    -0.771228401314
    H           -2.661122795687    -0.647896097184     0.129092105889
    H           -1.428274036190    -1.550597330538     0.981496053359

  Mulliken Charges: (a.u.)
   Center  Symbol    Alpha    Beta     Spin     Total
       1     H     0.46543  0.46543  0.00000  0.06913
       2     C     2.90307  2.90307  0.00000  0.19387
       3     C     3.08169  3.08169  0.00000 -0.16338
       4     O     4.16411  4.16411  0.00000 -0.32821
       5     C     3.15307  3.15307  0.00000 -0.30613
       6     H     0.43976  0.43976  0.00000  0.12047
       7     H     0.44543  0.44543  0.00000  0.10915
       8     H     0.44965  0.44965  0.00000  0.10071
       9     H     0.44415  0.44415  0.00000  0.11170
      10     H     0.45366  0.45366  0.00000  0.09269

   Total alpha = 16.00000, Total beta = 16.00000, Total charge = -0.00000
