  ==> Input File <==

--------------------------------------------------------------------------
set {
	reference rhf
	basis cc-pvtz
}

set_num_threads( 4 )
memory 2 gb

molecule MOL {
0 1

H	 -3.556121	 0.399419	 0.386883
O	 -3.096687	 -0.299633	 -0.042771
C	 -1.770286	 -0.103384	 -0.012028
C	 -1.202985	 1.011388	 0.592860
C	 -0.967645	 -1.060151	 -0.610815
H	 -1.832260	 1.749332	 1.055329
C	 0.163225	 1.163557	 0.595842
H	 -1.425321	 -1.912284	 -1.071708
C	 0.398705	 -0.892886	 -0.599177
H	 0.613174	 2.019113	 1.059177
C	 0.981121	 0.213562	 0.000000
H	 1.022362	 -1.634535	 -1.063425
C	 2.447402	 0.371303	 0.000000
O	 3.227427	 -0.521847	 0.000000
H	 2.796538	 1.409525	 0.000000

	symmetry c1
}
set optking {
	frozen_dihedral = ("
		7 11 13 14
	")
}

ee = optimize('scf')
oeprop('DIPOLE', 'QUADRUPOLE', 'MULLIKEN_CHARGES')
f=open( 'psi4out.xyz', 'w' )
f.write( "15  " )
f.write( str(ee) + "\n" )
f.write( MOL.save_string_xyz() )
f.close()
--------------------------------------------------------------------------

    Molecular point group: c1
  Charge       = 0
  Multiplicity = 1
  Basis Set: CC-PVTZ
  Basis Set:
  @DF-RHF Final Energy:  -418.43859187317685
    Total Energy =                       -418.4385918731770744
    Molecular point group: c1
  Basis Set: CC-PVTZ
  Basis Set:
  Basis Set: CC-PVTZ
  Basis Set:
  @DF-RHF Final Energy:  -418.43796084936258
    Total Energy =                       -418.4379608493627529
  Basis Set: CC-PVTZ
  Basis Set:
  Basis Set: CC-PVTZ
  Basis Set:
  @DF-RHF Final Energy:  -418.43918941271653
    Total Energy =                       -418.4391894127165870
  Basis Set: CC-PVTZ
  Basis Set:
  Basis Set: CC-PVTZ
  Basis Set:
  @DF-RHF Final Energy:  -418.43944181811531
    Total Energy =                       -418.4394418181148012
  Basis Set: CC-PVTZ
  Basis Set:
  Basis Set: CC-PVTZ
  Basis Set:
  @DF-RHF Final Energy:  -418.43944974125060
    Total Energy =                       -418.4394497412505416
  Basis Set: CC-PVTZ
  Basis Set:
  Charge       = 0
  Multiplicity = 1
  Basis Set: CC-PVTZ
  Basis Set:

    Orbital Energies (a.u.)
    -----------------------

    Doubly Occupied:

       1A    -20.603522     2A    -20.548440     3A    -11.324075
       4A    -11.320746     5A    -11.259613     6A    -11.251670
       7A    -11.242057     8A    -11.237845     9A    -11.235753
      10A     -1.436474    11A     -1.404294    12A     -1.174757
      13A     -1.045922    14A     -1.039871    15A     -0.896442
      16A     -0.861477    17A     -0.806082    18A     -0.760850
      19A     -0.699913    20A     -0.690683    21A     -0.644252
      22A     -0.630302    23A     -0.614023    24A     -0.610999
      25A     -0.590159    26A     -0.562329    27A     -0.550073
      28A     -0.508784    29A     -0.491399    30A     -0.422507
      31A     -0.361078    32A     -0.331273

  @DF-RHF Final Energy:  -418.43945208777200

   => Energetics <=

    Nuclear Repulsion Energy =            402.3002029314534411
    One-Electron Energy =               -1367.1639792748574109
    Two-Electron Energy =                 546.4243242556319728
    DFT Exchange-Correlation Energy =       0.0000000000000000
    Empirical Dispersion Energy =           0.0000000000000000
    PCM Polarization Energy =               0.0000000000000000
    EFP Energy =                            0.0000000000000000
    Total Energy =                       -418.4394520877719970
    Molecular point group: c1
  Basis Set: CC-PVTZ
  Basis Set:

  -Total Gradient:
     Atom            X                  Y                   Z
    ------   -----------------  -----------------  -----------------
       1       -0.000019104959     0.000000637059    -0.000000933835
       2       -0.000009114217     0.000050700769     0.000000325170
       3        0.000048131117    -0.000128636011     0.000034256356
       4        0.000032785010     0.000018221157     0.000021665948
       5       -0.000068249933     0.000079959996    -0.000016137751
       6       -0.000018356339    -0.000008143915    -0.000014031024
       7        0.000001643680    -0.002689309524     0.004233878361
       8        0.000011018454     0.000004447305     0.000004456138
       9        0.000036242416     0.000084463433     0.000006954859
      10       -0.000000292344    -0.000014453312     0.000001325482
      11       -0.000124340111     0.003695307745    -0.003449085368
      12        0.000000744840    -0.000000892204     0.000017139972
      13        0.000424542839    -0.000812138130    -0.007066509521
      14       -0.000297363360    -0.000278123761     0.006227768484
      15       -0.000018287082    -0.000002040605    -0.000001073273

  **** Optimization is complete! (in 6 steps) ****
    Final optimized geometry and variables:
    Molecular point group: c1

    Geometry (in Angstrom), charge = 0, multiplicity = 1:

    H           -3.555857016701     0.403413129372     0.438536338473
    O           -3.096123672397    -0.290902836740     0.001415392111
    C           -1.771024735021    -0.079744097785     0.010112208532
    C           -1.202121828457     1.034866530828     0.598036084055
    C           -0.969240497948    -1.037260624494    -0.601739009239
    H           -1.822035872385     1.768377107927     1.079423263421
    C            0.169553681160     1.196133055911     0.559510366721
    H           -1.433001870536    -1.895056665691    -1.046367442328
    C            0.392113079451    -0.873727520405    -0.612100563166
    H            0.608357498090     2.066257684107     1.012317338645
    C            0.978239265015     0.256699772578    -0.049141283413
    H            1.021760669909    -1.618593936547    -1.057527267576
    C            2.448347396979     0.393945230794     0.024341376143
    O            3.211023411364    -0.512620002913     0.015520075369
    H            2.811111448637     1.420152555280     0.149996078626

  Mulliken Charges: (a.u.)
   Center  Symbol    Alpha    Beta     Spin     Total
       1     H     0.38587  0.38587  0.00000  0.22826
       2     O     4.16660  4.16660  0.00000 -0.33321
       3     C     2.84619  2.84619  0.00000  0.30763
       4     C     3.13435  3.13435  0.00000 -0.26870
       5     C     3.10385  3.10385  0.00000 -0.20770
       6     H     0.43216  0.43216  0.00000  0.13568
       7     C     3.07617  3.07617  0.00000 -0.15234
       8     H     0.41585  0.41585  0.00000  0.16831
       9     C     3.06318  3.06318  0.00000 -0.12636
      10     H     0.42161  0.42161  0.00000  0.15678
      11     C     2.99193  2.99193  0.00000  0.01614
      12     H     0.41014  0.41014  0.00000  0.17972
      13     C     2.91888  2.91888  0.00000  0.16223
      14     O     4.17278  4.17278  0.00000 -0.34556
      15     H     0.46044  0.46044  0.00000  0.07913

   Total alpha = 32.00000, Total beta = 32.00000, Total charge = -0.00000
