  ==> Input File <==

--------------------------------------------------------------------------
set {
	reference rhf
	basis 6-31G*
}

set_num_threads( 1 )
memory 2 gb

molecule MOL {
0 1

H	 2.531385	 -0.978070	 -0.171963
O	 1.847485	 -0.401961	 -0.481912
C	 1.135793	 0.118896	 0.612333
C	 0.031547	 1.023609	 0.088541
H	 1.796724	 0.696146	 1.256415
H	 0.719321	 -0.685541	 1.214440
C	 -1.134819	 0.293262	 -0.585751
H	 0.474374	 1.714721	 -0.623187
H	 -0.338529	 1.620940	 0.920081
C	 -1.917817	 -0.639439	 0.339494
H	 -0.758119	 -0.268455	 -1.433105
H	 -1.813832	 1.041889	 -0.986690
H	 -2.777680	 -1.057197	 -0.174994
H	 -1.310268	 -1.471279	 0.680599
H	 -2.283753	 -0.111424	 1.216626

	symmetry c1
}
set optking {
	frozen_dihedral = ("
		8 4 7 11,
		1 2 3 4
	")
}

ee = energy('scf')
oeprop('DIPOLE', 'QUADRUPOLE', 'MULLIKEN_CHARGES')
f=open( 'psi4out.xyz', 'w' )
f.write( "15  " )
f.write( str(ee) + "\n" )
f.write( MOL.save_string_xyz() )
f.close()
--------------------------------------------------------------------------

    Molecular point group: c1

    Geometry (in Angstrom), charge = 0, multiplicity = 1:

       Center              X                  Y                   Z               Mass
    ------------   -----------------  -----------------  -----------------  -----------------
           H          2.489034834892    -1.027106114238    -0.167377511498     1.007825032070
           O          1.805134834892    -0.450997114238    -0.477326511498    15.994914619560
           C          1.093442834892     0.069859885762     0.616918488502    12.000000000000
           C         -0.010803165108     0.974572885762     0.093126488502    12.000000000000
           H          1.754373834892     0.647109885762     1.261000488502     1.007825032070
           H          0.676970834892    -0.734577114238     1.219025488502     1.007825032070
           C         -1.177169165108     0.244225885762    -0.581165511498    12.000000000000
           H          0.432023834892     1.665684885762    -0.618601511498     1.007825032070
           H         -0.380879165108     1.571903885762     0.924666488502     1.007825032070
           C         -1.960167165108    -0.688475114238     0.344079488502    12.000000000000
           H         -0.800469165108    -0.317491114238    -1.428519511498     1.007825032070
           H         -1.856182165108     0.992852885762    -0.982104511498     1.007825032070
           H         -2.820030165108    -1.106233114238    -0.170408511498     1.007825032070
           H         -1.352618165108    -1.520315114238     0.685184488502     1.007825032070
           H         -2.326103165108    -0.160460114238     1.221211488502     1.007825032070

  Charge       = 0
  Multiplicity = 1
  Basis Set: 6-31G*
  Basis Set:

    Orbital Energies (a.u.)
    -----------------------

    Doubly Occupied:

       1A    -20.552642     2A    -11.266925     3A    -11.212233
       4A    -11.210285     5A    -11.206440     6A     -1.359252
       7A     -1.065134     8A     -0.970178     9A     -0.869333
      10A     -0.775392    11A     -0.704015    12A     -0.647909
      13A     -0.607736    14A     -0.575346    15A     -0.562572
      16A     -0.532562    17A     -0.510892    18A     -0.474041
      19A     -0.468841    20A     -0.452272    21A     -0.429948

  @DF-RHF Final Energy:  -232.14306934602754

   => Energetics <=

    Nuclear Repulsion Energy =            191.0370092781234632
    One-Electron Energy =                -693.4522876088617522
    Two-Electron Energy =                 270.2722089847101756
    DFT Exchange-Correlation Energy =       0.0000000000000000
    Empirical Dispersion Energy =           0.0000000000000000
    PCM Polarization Energy =               0.0000000000000000
    EFP Energy =                            0.0000000000000000
    Total Energy =                       -232.1430693460280850

  Mulliken Charges: (a.u.)
   Center  Symbol    Alpha    Beta     Spin     Total
       1     H     0.28091  0.28091  0.00000  0.43818
       2     O     4.37000  4.37000  0.00000 -0.73999
       3     C     2.99890  2.99890  0.00000  0.00220
       4     C     3.16080  3.16080  0.00000 -0.32159
       5     H     0.42975  0.42975  0.00000  0.14049
       6     H     0.43032  0.43032  0.00000  0.13937
       7     C     3.15493  3.15493  0.00000 -0.30987
       8     H     0.41151  0.41151  0.00000  0.17698
       9     H     0.42473  0.42473  0.00000  0.15054
      10     C     3.24326  3.24326  0.00000 -0.48652
      11     H     0.40994  0.40994  0.00000  0.18012
      12     H     0.42177  0.42177  0.00000  0.15646
      13     H     0.41846  0.41846  0.00000  0.16309
      14     H     0.42068  0.42068  0.00000  0.15864
      15     H     0.42405  0.42405  0.00000  0.15191

   Total alpha = 21.00000, Total beta = 21.00000, Total charge =  0.00000
