                              Psi4 1.0.54 Driver

  ==> Input File <==

--------------------------------------------------------------------------
set {
	reference rhf
	basis cc-pvtz
}

set_num_threads( 4 )
memory 2 gb

molecule MOL {
0 1

O	 1.319898	 0.668686	 -0.975648
C	 1.704209	 0.119472	 -0.000093
C	 1.128503	 0.286034	 1.382824
O	 2.715427	 -0.733672	 0.000025
C	 -0.040875	 1.257982	 1.447586
H	 0.839562	 -0.700277	 1.730895
H	 1.938771	 0.602143	 2.031656
C	 -0.598195	 1.402339	 2.860588
H	 -0.822605	 0.921699	 0.775957
H	 0.277824	 2.225582	 1.076815
C	 -1.771817	 2.373855	 2.945658
H	 -0.913661	 0.428095	 3.227440
H	 0.191563	 1.736770	 3.529674
C	 -2.329183	 2.517799	 4.357760
H	 -2.561604	 2.040273	 2.278488
H	 -1.457415	 3.347688	 2.581021
H	 -2.684126	 1.565516	 4.737770
H	 -3.159974	 3.213430	 4.382625
H	 -1.571320	 2.883647	 5.042621
C	 4.020999	 -0.192556	 0.000019
H	 4.182809	 0.412891	 -0.879449
H	 4.692590	 -1.035653	 0.000152
H	 4.182726	 0.413087	 0.879368

	symmetry c1
}
set optking {
	frozen_dihedral = ("
		1 2 4 20
	")
}

ee,wfn = optimize('scf', return_wfn=True)
oeprop( wfn, 'DIPOLE', 'QUADRUPOLE', 'MULLIKEN_CHARGES')
f=open( 'psi4out.xyz', 'w' )
f.write( "23  " )
f.write( str(ee) + "\n" )
f.write( MOL.save_string_xyz() )
f.close()
--------------------------------------------------------------------------

    Molecular point group: c1
  Charge       = 0
  Multiplicity = 1
  Basis Set: CC-PVTZ
  Basis Set:
  @DF-RHF Final Energy:  -423.11178030264261
    Total Energy =                       -423.1117803026421598
    Molecular point group: c1
  Basis Set: CC-PVTZ
  Basis Set:
  Basis Set: CC-PVTZ
  Basis Set:
  @DF-RHF Final Energy:  -423.03506750516107
    Total Energy =                       -423.0350675051604412
  Basis Set: CC-PVTZ
  Basis Set:
  Basis Set: CC-PVTZ
  Basis Set:
  @DF-RHF Final Energy:  -423.10400496581019
    Total Energy =                       -423.1040049658099633
  Basis Set: CC-PVTZ
  Basis Set:
  Basis Set: CC-PVTZ
  Basis Set:
  @DF-RHF Final Energy:  -423.11215587660706
    Total Energy =                       -423.1121558766067210
  Basis Set: CC-PVTZ
  Basis Set:
  @DF-RHF Final Energy:  -423.10614068009340
    Total Energy =                       -423.1061406800940858
  @DF-RHF Final Energy:  -423.11194982429510
    Total Energy =                       -423.1119498242951522
  Basis Set: CC-PVTZ
  Basis Set:
  @DF-RHF Final Energy:  -423.11306156965230
    Total Energy =                       -423.1130615696524728
  Basis Set: CC-PVTZ
  Basis Set:
  Basis Set: CC-PVTZ
  Basis Set:
  @DF-RHF Final Energy:  -423.11307917502216
    Total Energy =                       -423.1130791750217668
  Basis Set: CC-PVTZ
  Basis Set:
  Basis Set: CC-PVTZ
  Basis Set:
  @DF-RHF Final Energy:  -423.11308129628117
    Total Energy =                       -423.1130812962812797
  Basis Set: CC-PVTZ
  Basis Set:
  Charge       = 0
  Multiplicity = 1
  Basis Set: CC-PVTZ
  Basis Set:

    Orbital Energies (a.u.)
    -----------------------

    Doubly Occupied:

       1A    -20.578025     2A    -20.545468     3A    -11.367591
       4A    -11.287544     5A    -11.237635     6A    -11.219851
       7A    -11.218158     8A    -11.216314     9A    -11.209250
      10A     -1.461922    11A     -1.369224    12A     -1.096215
      13A     -1.043400    14A     -0.981592    15A     -0.941367
      16A     -0.850389    17A     -0.797745    18A     -0.766330
      19A     -0.698083    20A     -0.681266    21A     -0.676224
      22A     -0.650454    23A     -0.617777    24A     -0.608022
      25A     -0.579904    26A     -0.569323    27A     -0.555953
      28A     -0.535205    29A     -0.510940    30A     -0.502135
      31A     -0.487940    32A     -0.479719    33A     -0.470880
      34A     -0.468119    35A     -0.452949    36A     -0.434268

  @DF-RHF Final Energy:  -423.11308149170486

   => Energetics <=

    Nuclear Repulsion Energy =            453.0499882590573861
    One-Electron Energy =               -1473.9917801901019629
    Two-Electron Energy =                 597.8287104393393747
    DFT Exchange-Correlation Energy =       0.0000000000000000
    Empirical Dispersion Energy =           0.0000000000000000
    PCM Polarization Energy =               0.0000000000000000
    EFP Energy =                            0.0000000000000000
    Total Energy =                       -423.1130814917052021
    Molecular point group: c1
  Basis Set: CC-PVTZ
  Basis Set:

  -Total Gradient:
     Atom            X                  Y                   Z
    ------   -----------------  -----------------  -----------------
       1       -0.002980527420    -0.003689424169    -0.001580140369
       2        0.004421704857     0.005089907534     0.004091504528
       3       -0.000048322278    -0.000026164084    -0.000013017260
       4       -0.001574551411    -0.000617240433    -0.006376221579
       5        0.000012298976    -0.000006381384     0.000000628896
       6        0.000008809440    -0.000008589771     0.000011884994
       7        0.000000890839     0.000007522997     0.000012494451
       8        0.000001918049     0.000000027169    -0.000004398738
       9       -0.000006259810     0.000001960918    -0.000004206807
      10        0.000001506167     0.000005193609    -0.000000770237
      11        0.000010140568    -0.000001740372    -0.000004020666
      12        0.000003683446    -0.000006365775     0.000003202119
      13        0.000001036656     0.000001061243    -0.000000244543
      14       -0.000005346501     0.000003188027     0.000000688422
      15       -0.000001934290     0.000003356797    -0.000001495747
      16       -0.000000873376     0.000004806469     0.000000716042
      17        0.000000092486    -0.000004513994     0.000002507023
      18       -0.000001299061    -0.000002557121     0.000000270959
      19       -0.000000132551     0.000000711218    -0.000000528312
      20        0.000146366935    -0.000765019431     0.003858784468
      21        0.000002740170     0.000005779029    -0.000015617638
      22        0.000009247542    -0.000002147474    -0.000007395617
      23       -0.000001189434     0.000006628997     0.000025375623

  **** Optimization is complete! (in 10 steps) ****
    Final optimized geometry and variables:
    Molecular point group: c1

    Geometry (in Angstrom), charge = 0, multiplicity = 1:

    O            0.661612489983     0.367001421867    -2.239241294593
    C            1.086796135582    -0.319060102112    -1.383215829088
    C            0.458550998851    -0.507178450811    -0.027689849023
    O            2.173529184087    -1.098427891511    -1.569675681513
    C           -0.791662155551     0.328175388304     0.205100657727
    H            0.250717799798    -1.568140373573     0.071501946631
    H            1.220277128218    -0.291135178745     0.716550342688
    C           -1.398692285258     0.097239701745     1.585798722971
    H           -1.521421792381     0.096032355828    -0.562069539727
    H           -0.548754873486     1.377754845517     0.080677535748
    C           -2.655510628710     0.926128901212     1.834289144667
    H           -1.636833916546    -0.957345517252     1.704986466120
    H           -0.660723040839     0.329611474253     2.350588927317
    C           -3.262688579227     0.694467205193     3.213785228800
    H           -3.393535351326     0.694001917065     1.071765246032
    H           -2.418490707438     1.979816848974     1.716856341765
    H           -3.542308012729    -0.345092853223     3.349096060142
    H           -4.152245987189     1.296835624195     3.356922222611
    H           -2.559796710226     0.951308605429     3.999444533454
    C            3.429740166246    -0.464307079630    -1.482494863906
    H            3.511607288402     0.328213897387    -2.214516658255
    H            4.173866496175    -1.218120707538    -1.682079826743
    H            3.591532893012    -0.060671127743    -0.488711420056

  Mulliken Charges: (a.u.)
   Center  Symbol    Alpha    Beta     Spin     Total
       1     O     4.17142  4.17142  0.00000 -0.34284
       2     C     2.78690  2.78690  0.00000  0.42620
       3     C     3.11687  3.11687  0.00000 -0.23374
       4     O     4.17031  4.17031  0.00000 -0.34062
       5     C     3.08462  3.08462  0.00000 -0.16925
       6     H     0.43696  0.43696  0.00000  0.12608
       7     H     0.44428  0.44428  0.00000  0.11144
       8     C     3.08865  3.08865  0.00000 -0.17730
       9     H     0.44417  0.44417  0.00000  0.11165
      10     H     0.44732  0.44732  0.00000  0.10537
      11     C     3.08426  3.08426  0.00000 -0.16852
      12     H     0.45497  0.45497  0.00000  0.09007
      13     H     0.45616  0.45616  0.00000  0.08769
      14     C     3.15034  3.15034  0.00000 -0.30068
      15     H     0.45268  0.45268  0.00000  0.09464
      16     H     0.45336  0.45336  0.00000  0.09328
      17     H     0.45504  0.45504  0.00000  0.08993
      18     H     0.44745  0.44745  0.00000  0.10509
      19     H     0.45552  0.45552  0.00000  0.08896
      20     C     3.03529  3.03529  0.00000 -0.07058
      21     H     0.45206  0.45206  0.00000  0.09589
      22     H     0.44365  0.44365  0.00000  0.11270
      23     H     0.46774  0.46774  0.00000  0.06453

   Total alpha = 36.00000, Total beta = 36.00000, Total charge = -0.00000

*** Psi4 exiting successfully. Buy a developer a beer!
