  ==> Input File <==

--------------------------------------------------------------------------
set {
	reference rhf
	basis 6-31G*
}

set_num_threads( 1 )
memory 2 gb

molecule MOL {
0 1

O	 -2.042549	 -1.228399	 -0.269030
C	 -1.653912	 -0.146171	 0.050137
C	 -0.332303	 0.024011	 0.778412
C	 -2.438579	 1.106236	 -0.272369
C	 0.845713	 -0.001731	 -0.208243
H	 -0.323783	 0.953829	 1.340327
H	 -0.235459	 -0.796807	 1.480410
C	 1.074923	 1.349453	 -0.887063
H	 0.671679	 -0.760280	 -0.969425
H	 1.740910	 -0.299918	 0.329203
C	 2.251409	 1.329153	 -1.862088
H	 0.171702	 1.646422	 -1.415670
H	 1.248227	 2.107059	 -0.126426
H	 2.091937	 0.603979	 -2.655023
H	 3.175448	 1.066882	 -1.355324
H	 2.392149	 2.300340	 -2.325785
H	 -3.277823	 0.863061	 -0.908988
H	 -1.806773	 1.843019	 -0.759671
H	 -2.802853	 1.554979	 0.648059

	symmetry c1
}
set optking {
	frozen_dihedral = ("
		11 8 5 9,
		5 3 2 4
	")
}

ee = energy('scf')
oeprop('DIPOLE', 'QUADRUPOLE', 'MULLIKEN_CHARGES')
f=open( 'psi4out.xyz', 'w' )
f.write( "19  " )
f.write( str(ee) + "\n" )
f.write( MOL.save_string_xyz() )
f.close()
--------------------------------------------------------------------------

    Molecular point group: c1

    Geometry (in Angstrom), charge = 0, multiplicity = 1:

       Center              X                  Y                   Z               Mass
    ------------   -----------------  -----------------  -----------------  -----------------
           O         -1.716496645275    -1.582610020494     0.129501683016    15.994914619560
           C         -1.327859645275    -0.500382020494     0.448668683016    12.000000000000
           C         -0.006250645275    -0.330200020494     1.176943683016    12.000000000000
           C         -2.112526645275     0.752024979506     0.126162683016    12.000000000000
           C          1.171765354725    -0.355942020494     0.190288683016    12.000000000000
           H          0.002269354725     0.599617979506     1.738858683016     1.007825032070
           H          0.090593354725    -1.151018020494     1.878941683016     1.007825032070
           C          1.400975354725     0.995241979506    -0.488531316984    12.000000000000
           H          0.997731354725    -1.114491020494    -0.570893316984     1.007825032070
           H          2.066962354725    -0.654129020494     0.727734683016     1.007825032070
           C          2.577461354725     0.974941979506    -1.463556316984    12.000000000000
           H          0.497754354725     1.292210979506    -1.017138316984     1.007825032070
           H          1.574279354725     1.752847979506     0.272105683016     1.007825032070
           H          2.417989354725     0.249767979506    -2.256491316984     1.007825032070
           H          3.501500354725     0.712670979506    -0.956792316984     1.007825032070
           H          2.718201354725     1.946128979506    -1.927253316984     1.007825032070
           H         -2.951770645275     0.508849979506    -0.510456316984     1.007825032070
           H         -1.480720645275     1.488807979506    -0.361139316984     1.007825032070
           H         -2.476800645275     1.200767979506     1.046590683016     1.007825032070

  Charge       = 0
  Multiplicity = 1
  Basis Set: 6-31G*
  Basis Set:

    Orbital Energies (a.u.)
    -----------------------

    Doubly Occupied:

       1A    -20.547431     2A    -11.324401     3A    -11.229902
       4A    -11.228935     5A    -11.227400     6A    -11.226733
       7A    -11.216127     8A     -1.393260     9A     -1.093767
      10A     -1.027017    11A     -0.985711    12A     -0.890625
      13A     -0.810439    14A     -0.733180    15A     -0.665491
      16A     -0.640071    17A     -0.623637    18A     -0.610118
      19A     -0.584381    20A     -0.574318    21A     -0.564038
      22A     -0.527959    23A     -0.521798    24A     -0.507058
      25A     -0.480229    26A     -0.474431    27A     -0.460064
      28A     -0.397822

  @DF-RHF Final Energy:  -309.06102831947425

   => Energetics <=

    Nuclear Repulsion Energy =            307.9111824072097647
    One-Electron Energy =               -1028.8115831309924033
    Two-Electron Energy =                 411.8393724043083921
    DFT Exchange-Correlation Energy =       0.0000000000000000
    Empirical Dispersion Energy =           0.0000000000000000
    PCM Polarization Energy =               0.0000000000000000
    EFP Energy =                            0.0000000000000000
    Total Energy =                       -309.0610283194743033

  Mulliken Charges: (a.u.)
   Center  Symbol    Alpha    Beta     Spin     Total
       1     O     4.26246  4.26246  0.00000 -0.52492
       2     C     2.73803  2.73803  0.00000  0.52393
       3     C     3.20183  3.20183  0.00000 -0.40365
       4     C     3.29079  3.29079  0.00000 -0.58158
       5     C     3.16269  3.16269  0.00000 -0.32537
       6     H     0.41620  0.41620  0.00000  0.16761
       7     H     0.39875  0.39875  0.00000  0.20251
       8     C     3.15655  3.15655  0.00000 -0.31311
       9     H     0.40658  0.40658  0.00000  0.18683
      10     H     0.41395  0.41395  0.00000  0.17210
      11     C     3.23968  3.23968  0.00000 -0.47937
      12     H     0.42241  0.42241  0.00000  0.15517
      13     H     0.42158  0.42158  0.00000  0.15685
      14     H     0.41863  0.41863  0.00000  0.16275
      15     H     0.41994  0.41994  0.00000  0.16011
      16     H     0.41779  0.41779  0.00000  0.16442
      17     H     0.39752  0.39752  0.00000  0.20496
      18     H     0.40776  0.40776  0.00000  0.18448
      19     H     0.40686  0.40686  0.00000  0.18629

   Total alpha = 28.00000, Total beta = 28.00000, Total charge = -0.00000
