                              Psi4 1.0.54 Driver

  ==> Input File <==

--------------------------------------------------------------------------
set {
	reference rhf
	basis cc-pvtz
}

set_num_threads( 4 )
memory 2 gb

molecule MOL {
0 1

H	 -3.105914	 0.247538	 -0.052757
O	 -2.346257	 -0.289210	 0.080372
C	 -1.183935	 0.486039	 -0.009831
C	 0.062853	 -0.375310	 0.027457
H	 -1.178881	 1.094526	 -0.908634
H	 -1.184406	 1.155156	 0.838676
O	 1.172093	 0.457955	 -0.054438
H	 0.052476	 -1.081302	 -0.804627
H	 0.076323	 -0.955658	 0.947560
C	 2.395478	 -0.199028	 -0.000366
H	 2.505946	 -0.901710	 -0.823354
H	 3.174616	 0.545641	 -0.071768
H	 2.513730	 -0.742241	 0.934223

	symmetry c1
}
set optking {
	frozen_dihedral = ("
		1 2 3 5
	")
}

ee,wfn = optimize('scf', return_wfn=True)
oeprop( wfn, 'DIPOLE', 'QUADRUPOLE', 'MULLIKEN_CHARGES')
f=open( 'psi4out.xyz', 'w' )
f.write( "13  " )
f.write( str(ee) + "\n" )
f.write( MOL.save_string_xyz() )
f.close()
--------------------------------------------------------------------------

    Molecular point group: c1
  Charge       = 0
  Multiplicity = 1
  Basis Set: CC-PVTZ
  Basis Set:
  @DF-RHF Final Energy:  -268.06124479771586
    Total Energy =                       -268.0612447977159150
    Molecular point group: c1
  Basis Set: CC-PVTZ
  Basis Set:
  Basis Set: CC-PVTZ
  Basis Set:
  @DF-RHF Final Energy:  -268.06244983160155
    Total Energy =                       -268.0624498316013273
  Basis Set: CC-PVTZ
  Basis Set:
  Basis Set: CC-PVTZ
  Basis Set:
  @DF-RHF Final Energy:  -268.06273398213079
    Total Energy =                       -268.0627339821307942
  Basis Set: CC-PVTZ
  Basis Set:
  Basis Set: CC-PVTZ
  Basis Set:
  @DF-RHF Final Energy:  -268.06274145401278
    Total Energy =                       -268.0627414540127802
  Basis Set: CC-PVTZ
  Basis Set:
  Charge       = 0
  Multiplicity = 1
  Basis Set: CC-PVTZ
  Basis Set:

    Orbital Energies (a.u.)
    -----------------------

    Doubly Occupied:

       1A    -20.552546     2A    -20.551903     3A    -11.267380
       4A    -11.265212     5A    -11.264748     6A     -1.388752
       7A     -1.368265     8A     -1.019702     9A     -0.911812
      10A     -0.831874    11A     -0.712211    12A     -0.686193
      13A     -0.644130    14A     -0.634941    15A     -0.621622
      16A     -0.555287    17A     -0.538964    18A     -0.497588
      19A     -0.471554    20A     -0.444701    21A     -0.421110

  @DF-RHF Final Energy:  -268.06274241108088

   => Energetics <=

    Nuclear Repulsion Energy =            190.7135207945993614
    One-Electron Energy =                -744.2515351399133579
    Two-Electron Energy =                 285.4752719342332057
    DFT Exchange-Correlation Energy =       0.0000000000000000
    Empirical Dispersion Energy =           0.0000000000000000
    PCM Polarization Energy =               0.0000000000000000
    EFP Energy =                            0.0000000000000000
    Total Energy =                       -268.0627424110807624
    Molecular point group: c1
  Basis Set: CC-PVTZ
  Basis Set:

  -Total Gradient:
     Atom            X                  Y                   Z
    ------   -----------------  -----------------  -----------------
       1        0.000046134062    -0.000142706068    -0.000582871512
       2       -0.000164367164     0.000278792292     0.000778129277
       3        0.000409160647    -0.000514543440    -0.000414225063
       4       -0.000035065560    -0.000018802728     0.000011850129
       5       -0.000260666429     0.000359428862     0.000247322341
       6       -0.000004511698    -0.000019629735    -0.000012544469
       7        0.000031851506     0.000024511305    -0.000016913130
       8       -0.000005507438     0.000010638137    -0.000006680259
       9       -0.000016760585     0.000016552127    -0.000007000463
      10        0.000006304982     0.000006619507     0.000007093364
      11       -0.000005021623     0.000002795346     0.000003604950
      12        0.000004059100    -0.000004230580    -0.000002866297
      13       -0.000005609800     0.000000574974    -0.000004898868

  **** Optimization is complete! (in 5 steps) ****
    Final optimized geometry and variables:
    Molecular point group: c1

    Geometry (in Angstrom), charge = 0, multiplicity = 1:

    H           -3.081239254329     0.148346447696    -0.098569508751
    O           -2.295920768055    -0.336403342732     0.073126569443
    C           -1.178395699906     0.503828349946    -0.018892136709
    C            0.053121859378    -0.371314276184     0.016518555292
    H           -1.187793441237     1.076881073707    -0.940738397960
    H           -1.144022992911     1.204714204819     0.809553796223
    O            1.171877042039     0.452882396656    -0.047506884587
    H            0.032149134357    -1.064720167977    -0.821399680113
    H            0.054397824440    -0.958758822096     0.932194465725
    C            2.385695441671    -0.222458238537    -0.018816823110
    H            2.481708973864    -0.903625104979    -0.861272648210
    H            3.175236123890     0.512752881111    -0.073766591592
    H            2.501329188193    -0.793247863737     0.899706090715

  Mulliken Charges: (a.u.)
   Center  Symbol    Alpha    Beta     Spin     Total
       1     H     0.39410  0.39410  0.00000  0.21180
       2     O     4.19842  4.19842  0.00000 -0.39684
       3     C     2.96470  2.96470  0.00000  0.07060
       4     C     2.96463  2.96463  0.00000  0.07074
       5     H     0.47084  0.47084  0.00000  0.05833
       6     H     0.47052  0.47052  0.00000  0.05896
       7     O     4.17633  4.17633  0.00000 -0.35265
       8     H     0.47091  0.47091  0.00000  0.05818
       9     H     0.47022  0.47022  0.00000  0.05955
      10     C     3.03126  3.03126  0.00000 -0.06253
      11     H     0.47065  0.47065  0.00000  0.05871
      12     H     0.44698  0.44698  0.00000  0.10603
      13     H     0.47044  0.47044  0.00000  0.05912

   Total alpha = 21.00000, Total beta = 21.00000, Total charge = -0.00000

*** Psi4 exiting successfully. Buy a developer a beer!
