  ==> Input File <==

--------------------------------------------------------------------------
set {
	reference rhf
	basis 6-31G*
}

set_num_threads( 4 )
memory 2 gb

molecule MOL {
0 1

H	 -0.000158	 1.970498	 0.756846
O	 -0.000074	 1.880206	 -0.189275
C	 -0.000015	 0.544847	 -0.545111
C	 -1.278788	 -0.123820	 -0.051541
C	 1.278802	 -0.123718	 -0.051505
H	 -0.000001	 0.490777	 -1.623619
F	 -1.207207	 -1.421462	 -0.257804
F	 -1.481001	 0.073853	 1.233914
F	 -2.332386	 0.332229	 -0.709985
F	 2.323327	 0.466644	 -0.591854
F	 1.326242	 -1.401483	 -0.363667
F	 1.388946	 -0.015632	 1.262939

	symmetry c1
}
set optking {
	frozen_dihedral = ("
		7 4 3 6
	")
}

ee = optimize('scf')
oeprop('DIPOLE', 'QUADRUPOLE', 'MULLIKEN_CHARGES')
f=open( 'psi4out.xyz', 'w' )
f.write( "12  " )
f.write( str(ee) + "\n" )
f.write( MOL.save_string_xyz() )
f.close()
--------------------------------------------------------------------------

    Molecular point group: c1
  Charge       = 0
  Multiplicity = 1
  Basis Set: 6-31G*
  Basis Set:
  @DF-RHF Final Energy:  -786.27698995140088
    Total Energy =                       -786.2769899514016743
    Molecular point group: c1
  Basis Set: 6-31G*
  Basis Set:
  Basis Set: 6-31G*
  Basis Set:
  @DF-RHF Final Energy:  -786.27767812137438
    Total Energy =                       -786.2776781213742652
  Basis Set: 6-31G*
  Basis Set:
  Basis Set: 6-31G*
  Basis Set:
  @DF-RHF Final Energy:  -786.27791336601535
    Total Energy =                       -786.2779133660159232
  Basis Set: 6-31G*
  Basis Set:
  Basis Set: 6-31G*
  Basis Set:
  @DF-RHF Final Energy:  -786.27794736041858
    Total Energy =                       -786.2779473604186933
  Basis Set: 6-31G*
  Basis Set:
  Basis Set: 6-31G*
  Basis Set:
  @DF-RHF Final Energy:  -786.27795025767045
    Total Energy =                       -786.2779502576703408
  Basis Set: 6-31G*
  Basis Set:
  Charge       = 0
  Multiplicity = 1
  Basis Set: 6-31G*
  Basis Set:

    Orbital Energies (a.u.)
    -----------------------

    Doubly Occupied:

       1A    -26.363001     2A    -26.362657     3A    -26.362557
       4A    -26.361015     5A    -26.359211     6A    -26.357717
       7A    -20.616744     8A    -11.526626     9A    -11.525371
      10A    -11.349301    11A     -1.764869    12A     -1.758816
      13A     -1.661995    14A     -1.658355    15A     -1.656799
      16A     -1.655367    17A     -1.435139    18A     -1.101634
      19A     -0.997070    20A     -0.938417    21A     -0.864094
      22A     -0.862812    23A     -0.851977    24A     -0.844497
      25A     -0.832164    26A     -0.816377    27A     -0.743179
      28A     -0.727354    29A     -0.724507    30A     -0.717901
      31A     -0.688785    32A     -0.686218    33A     -0.683393
      34A     -0.674514    35A     -0.670219    36A     -0.662835
      37A     -0.656891    38A     -0.652703    39A     -0.620506
      40A     -0.551735    41A     -0.505928

  @DF-RHF Final Energy:  -786.27795074619257

   => Energetics <=

    Nuclear Repulsion Energy =            670.5253449403423929
    One-Electron Energy =               -2427.9040947796461296
    Two-Electron Energy =                 971.1007990931107088
    DFT Exchange-Correlation Energy =       0.0000000000000000
    Empirical Dispersion Energy =           0.0000000000000000
    PCM Polarization Energy =               0.0000000000000000
    EFP Energy =                            0.0000000000000000
    Total Energy =                       -786.2779507461930280
    Molecular point group: c1
  Basis Set: 6-31G*
  Basis Set:

  -Total Gradient:
     Atom            X                  Y                   Z
    ------   -----------------  -----------------  -----------------
       1        0.000002102119    -0.000009777150    -0.000005638427
       2       -0.000002792372     0.000016178662    -0.000015124698
       3        0.000836910426    -0.001287406963     0.000399948705
       4       -0.000666911015     0.000335280940    -0.001398557357
       5       -0.000088098947     0.000005739292    -0.000037639731
       6       -0.000586610553     0.001075649151    -0.000081370600
       7        0.000402871451    -0.000060365656     0.000926817577
       8       -0.000034226976     0.000029249730     0.000086668077
       9        0.000070860170    -0.000052306620     0.000053409785
      10       -0.000047755265    -0.000047042599     0.000036476906
      11        0.000045655902     0.000011188413     0.000017045834
      12        0.000067995068    -0.000016387193     0.000017963931

  **** Optimization is complete! (in 6 steps) ****
    Final optimized geometry and variables:
    Molecular point group: c1

    Geometry (in Angstrom), charge = 0, multiplicity = 1:

    H           -0.040303263410     1.977898784792     0.732313941350
    O           -0.010117448372     1.877164485659    -0.212148479739
    C           -0.000019663100     0.537583029588    -0.553348255896
    C           -1.277820620980    -0.127722884249    -0.049834090544
    C            1.280440462786    -0.121390998727    -0.052694043683
    H           -0.002186365189     0.479112869510    -1.631628924900
    F           -1.269471646368    -1.432404372038    -0.221768527949
    F           -1.447533490128     0.112284801742     1.241236757827
    F           -2.317203428839     0.363968148160    -0.689414073363
    F            2.324848425539     0.515078396531    -0.537353099777
    F            1.366797389802    -1.382362719733    -0.420133303183
    F            1.351692343027    -0.069510354373     1.268021116479

  Mulliken Charges: (a.u.)
   Center  Symbol    Alpha    Beta     Spin     Total
       1     H     0.26549  0.26549  0.00000  0.46903
       2     O     4.36312  4.36312  0.00000 -0.72624
       3     C     3.04700  3.04700  0.00000 -0.09400
       4     C     2.44433  2.44433  0.00000  1.11135
       5     C     2.44602  2.44602  0.00000  1.10797
       6     H     0.37500  0.37500  0.00000  0.25000
       7     F     4.67343  4.67343  0.00000 -0.34686
       8     F     4.68141  4.68141  0.00000 -0.36282
       9     F     4.67494  4.67494  0.00000 -0.34987
      10     F     4.67456  4.67456  0.00000 -0.34912
      11     F     4.67394  4.67394  0.00000 -0.34789
      12     F     4.68077  4.68077  0.00000 -0.36154

   Total alpha = 41.00000, Total beta = 41.00000, Total charge =  0.00000
