  ==> Input File <==

--------------------------------------------------------------------------
set {
	reference rhf
	basis 6-31G*
}

set_num_threads( 4 )
memory 2 gb

molecule MOL {
0 1

H	 2.310249	 -0.854015	 -0.667080
C	 1.565535	 -0.086642	 -0.803448
O	 0.464886	 -0.454746	 -0.000158
H	 1.286246	 -0.040587	 -1.849345
H	 1.973416	 0.867573	 -0.491729
C	 -0.590998	 0.343045	 0.000118
O	 -1.699443	 -0.054298	 0.000227
H	 -0.340329	 1.404368	 0.000207

	symmetry c1
}
set optking {
	frozen_dihedral = ("
		2 3 6 7
	")
}

ee = optimize('scf')
oeprop('DIPOLE', 'QUADRUPOLE', 'MULLIKEN_CHARGES')
f=open( 'psi4out.xyz', 'w' )
f.write( "8  " )
f.write( str(ee) + "\n" )
f.write( MOL.save_string_xyz() )
f.close()
--------------------------------------------------------------------------

    Molecular point group: c1
  Charge       = 0
  Multiplicity = 1
  Basis Set: 6-31G*
  Basis Set:
  @DF-RHF Final Energy:  -227.77483205756596
    Total Energy =                       -227.7748320575658454
    Molecular point group: c1
  Basis Set: 6-31G*
  Basis Set:
  Basis Set: 6-31G*
  Basis Set:
  @DF-RHF Final Energy:  -227.77475951228246
    Total Energy =                       -227.7747595122824578
  Basis Set: 6-31G*
  Basis Set:
  Basis Set: 6-31G*
  Basis Set:
  @DF-RHF Final Energy:  -227.77493727130314
    Total Energy =                       -227.7749372713032301
  Basis Set: 6-31G*
  Basis Set:
  Basis Set: 6-31G*
  Basis Set:
  @DF-RHF Final Energy:  -227.77512737132150
    Total Energy =                       -227.7751273713216165
  Basis Set: 6-31G*
  Basis Set:
  Basis Set: 6-31G*
  Basis Set:
  @DF-RHF Final Energy:  -227.77512937861997
    Total Energy =                       -227.7751293786199653
  Basis Set: 6-31G*
  Basis Set:
  Charge       = 0
  Multiplicity = 1
  Basis Set: 6-31G*
  Basis Set:

    Orbital Energies (a.u.)
    -----------------------

    Doubly Occupied:

       1A    -20.610638     2A    -20.564230     3A    -11.383095
       4A    -11.303977     5A     -1.474467     6A     -1.384313
       7A     -0.991168     8A     -0.846319     9A     -0.738201
      10A     -0.684876    11A     -0.679474    12A     -0.614454
      13A     -0.569341    14A     -0.528371    15A     -0.466865
      16A     -0.455002

  @DF-RHF Final Energy:  -227.77512965748423

   => Energetics <=

    Nuclear Repulsion Energy =            121.2895297285794385
    One-Electron Energy =                -551.5397366481223571
    Two-Electron Energy =                 202.4750772620586758
    DFT Exchange-Correlation Energy =       0.0000000000000000
    Empirical Dispersion Energy =           0.0000000000000000
    PCM Polarization Energy =               0.0000000000000000
    EFP Energy =                            0.0000000000000000
    Total Energy =                       -227.7751296574842286
    Molecular point group: c1
  Basis Set: 6-31G*
  Basis Set:

  -Total Gradient:
     Atom            X                  Y                   Z
    ------   -----------------  -----------------  -----------------
       1       -0.000027526362    -0.000005221620     0.000021840020
       2       -0.001751261218    -0.001728821115    -0.003649473639
       3        0.002614112819     0.002940233217     0.002623489955
       4        0.000005742272    -0.000003679958    -0.000002164641
       5       -0.000004291405    -0.000011508418     0.000011561316
       6       -0.000902568438    -0.001793084220     0.006562112102
       7        0.000060727866     0.000612780342    -0.005573918666
       8        0.000005064468    -0.000010698227     0.000006553554

  **** Optimization is complete! (in 6 steps) ****
    Final optimized geometry and variables:
    Molecular point group: c1

    Geometry (in Angstrom), charge = 0, multiplicity = 1:

    H            2.409301111292    -0.726170701132    -0.362756696552
    C            1.612121468501    -0.035393863489    -0.585667914044
    O            0.493485020299    -0.448163173922     0.168547628395
    H            1.386455004267    -0.070731897387    -1.643937279855
    H            1.922109156986     0.968603361692    -0.313417492219
    C           -0.526129182526     0.400989490860     0.253257450490
    O           -1.654952620465     0.072283699582     0.204206370246
    H           -0.215255702558     1.440694760989     0.362189451490

  Mulliken Charges: (a.u.)
   Center  Symbol    Alpha    Beta     Spin     Total
       1     H     0.39836  0.39836  0.00000  0.20328
       2     C     3.09746  3.09746  0.00000 -0.19492
       3     O     4.28223  4.28223  0.00000 -0.56447
       4     H     0.40924  0.40924  0.00000  0.18151
       5     H     0.41843  0.41843  0.00000  0.16314
       6     C     2.72729  2.72729  0.00000  0.54542
       7     O     4.23647  4.23647  0.00000 -0.47294
       8     H     0.43051  0.43051  0.00000  0.13898

   Total alpha = 16.00000, Total beta = 16.00000, Total charge = -0.00000
