                              Psi4 1.0.54 Driver

  ==> Input File <==

--------------------------------------------------------------------------
set {
	reference rhf
	basis cc-pvtz
}

set_num_threads( 4 )
memory 2 gb

molecule MOL {
0 1

H	 3.515691	 -0.803689	 -0.957011
O	 2.608543	 -1.018822	 -0.800496
C	 2.076458	 -0.067370	 -0.038225
C	 0.626018	 -0.337582	 0.258241
O	 2.704850	 0.860784	 0.337933
C	 -0.267326	 0.883135	 0.076490
H	 0.325620	 -1.161483	 -0.378003
H	 0.574537	 -0.713685	 1.275261
C	 -1.726822	 0.642622	 0.463839
H	 -0.210803	 1.217591	 -0.953497
H	 0.129920	 1.693110	 0.675679
C	 -2.480891	 -0.340606	 -0.429852
H	 -2.243098	 1.597649	 0.438609
H	 -1.776542	 0.301208	 1.495542
C	 -3.955933	 -0.460128	 -0.060472
H	 -2.393755	 -0.020485	 -1.464726
H	 -2.024244	 -1.323637	 -0.374360
H	 -4.467673	 -1.160944	 -0.709827
H	 -4.458917	 0.497287	 -0.144505
H	 -4.076458	 -0.806900	 0.960497

	symmetry c1
}
set optking {
	frozen_dihedral = ("
		5 3 4 7
	")
}

ee,wfn = optimize('scf', return_wfn=True)
oeprop( wfn, 'DIPOLE', 'QUADRUPOLE', 'MULLIKEN_CHARGES')
f=open( 'psi4out.xyz', 'w' )
f.write( "20  " )
f.write( str(ee) + "\n" )
f.write( MOL.save_string_xyz() )
f.close()
--------------------------------------------------------------------------

    Molecular point group: c1
  Charge       = 0
  Multiplicity = 1
  Basis Set: CC-PVTZ
  Basis Set:
  @DF-RHF Final Energy:  -384.09322787450134
    Total Energy =                       -384.0932278745008261
    Molecular point group: c1
  Basis Set: CC-PVTZ
  Basis Set:
  Basis Set: CC-PVTZ
  Basis Set:
  @DF-RHF Final Energy:  -384.09293028085591
    Total Energy =                       -384.0929302808558532
  Basis Set: CC-PVTZ
  Basis Set:
  Basis Set: CC-PVTZ
  Basis Set:
  @DF-RHF Final Energy:  -384.09326847534919
    Total Energy =                       -384.0932684753486797
  Basis Set: CC-PVTZ
  Basis Set:
  Basis Set: CC-PVTZ
  Basis Set:
  @DF-RHF Final Energy:  -384.09373276319906
    Total Energy =                       -384.0937327631992844
  Basis Set: CC-PVTZ
  Basis Set:
  Basis Set: CC-PVTZ
  Basis Set:
  @DF-RHF Final Energy:  -384.09374317344634
    Total Energy =                       -384.0937431734460006
  Basis Set: CC-PVTZ
  Basis Set:
  Charge       = 0
  Multiplicity = 1
  Basis Set: CC-PVTZ
  Basis Set:

    Orbital Energies (a.u.)
    -----------------------

    Doubly Occupied:

       1A    -20.605952     2A    -20.538171     3A    -11.373372
       4A    -11.237684     5A    -11.224909     6A    -11.219796
       7A    -11.218968     8A    -11.211040     9A     -1.478156
      10A     -1.368346    11A     -1.098354    12A     -1.042154
      13A     -0.962156    14A     -0.869724    15A     -0.819771
      16A     -0.783394    17A     -0.705683    18A     -0.692028
      19A     -0.652768    20A     -0.642297    21A     -0.611416
      22A     -0.595965    23A     -0.576816    24A     -0.555504
      25A     -0.546366    26A     -0.513846    27A     -0.499728
      28A     -0.481265    29A     -0.473244    30A     -0.467998
      31A     -0.458999    32A     -0.444062

  @DF-RHF Final Energy:  -384.09374314633590

   => Energetics <=

    Nuclear Repulsion Energy =            376.5642927879845274
    One-Electron Energy =               -1269.3762136435670982
    Two-Electron Energy =                 508.7181777092466746
    DFT Exchange-Correlation Energy =       0.0000000000000000
    Empirical Dispersion Energy =           0.0000000000000000
    PCM Polarization Energy =               0.0000000000000000
    EFP Energy =                            0.0000000000000000
    Total Energy =                       -384.0937431463358962
    Molecular point group: c1
  Basis Set: CC-PVTZ
  Basis Set:

  -Total Gradient:
     Atom            X                  Y                   Z
    ------   -----------------  -----------------  -----------------
       1       -0.000058846412    -0.000054564155    -0.000020040844
       2       -0.000039511630     0.000194085025     0.000091230439
       3       -0.000094509553     0.000522202081    -0.001078298527
       4       -0.000187168199     0.000564639927    -0.000606425236
       5        0.000085730506    -0.000630675557     0.000813557589
       6       -0.000003290794     0.000045813481     0.000088546943
       7        0.000219938817    -0.000663862820     0.000738971462
       8        0.000022146867     0.000026290362    -0.000001478829
       9       -0.000017818775     0.000036828260    -0.000010889751
      10       -0.000010776814     0.000001156581     0.000004997572
      11        0.000009846264    -0.000039960525     0.000016788703
      12        0.000011411494     0.000042301631    -0.000039906042
      13        0.000014988419    -0.000001470704    -0.000028578594
      14       -0.000012083597     0.000030301476     0.000008573087
      15        0.000008270355    -0.000041377362     0.000025796774
      16       -0.000014842297     0.000009344943    -0.000005774540
      17        0.000059645688    -0.000030591022    -0.000007887622
      18        0.000003312167    -0.000008378137     0.000012627945
      19        0.000014836610    -0.000003224564    -0.000013908128
      20       -0.000011279116     0.000001141080     0.000012097600

  **** Optimization is complete! (in 6 steps) ****
    Final optimized geometry and variables:
    Molecular point group: c1

    Geometry (in Angstrom), charge = 0, multiplicity = 1:

    H            3.598851098191    -0.821225550964    -0.768387742188
    O            2.683471516779    -1.044379639083    -0.686579066782
    C            2.082157561864    -0.093019135819     0.018763568040
    C            0.620416570783    -0.374984186079     0.254206540908
    O            2.667658926752     0.849380286593     0.429561950634
    C           -0.249989597273     0.866743930161     0.059987001791
    H            0.315422018553    -1.197266751881    -0.374846716297
    H            0.546904814672    -0.715394811752     1.283447970671
    C           -1.713658933102     0.663754683290     0.451022415287
    H           -0.193243011935     1.184351101773    -0.977469117554
    H            0.170079252818     1.669815561959     0.650787829908
    C           -2.485373459193    -0.329332535933    -0.416120338045
    H           -2.211515931682     1.627600902627     0.400490823318
    H           -1.767251656095     0.351156688037     1.491416435634
    C           -3.958971645671    -0.423578646150    -0.033746765228
    H           -2.402039902357    -0.033126815579    -1.458528811113
    H           -2.038975024994    -1.315740141996    -0.342352903603
    H           -4.482377471382    -1.135683844398    -0.661103426748
    H           -4.452739975587     0.536512808650    -0.139327067529
    H           -4.075984982746    -0.742382869563     0.996701492670

  Mulliken Charges: (a.u.)
   Center  Symbol    Alpha    Beta     Spin     Total
       1     H     0.38073  0.38073  0.00000  0.23855
       2     O     4.15726  4.15726  0.00000 -0.31452
       3     C     2.80808  2.80808  0.00000  0.38385
       4     C     3.09834  3.09834  0.00000 -0.19669
       5     O     4.19638  4.19638  0.00000 -0.39275
       6     C     3.10315  3.10315  0.00000 -0.20630
       7     H     0.43614  0.43614  0.00000  0.12773
       8     H     0.44276  0.44276  0.00000  0.11449
       9     C     3.09856  3.09856  0.00000 -0.19712
      10     H     0.44943  0.44943  0.00000  0.10114
      11     H     0.43225  0.43225  0.00000  0.13551
      12     C     3.08670  3.08670  0.00000 -0.17340
      13     H     0.44556  0.44556  0.00000  0.10888
      14     H     0.45263  0.45263  0.00000  0.09475
      15     C     3.14962  3.14962  0.00000 -0.29925
      16     H     0.45316  0.45316  0.00000  0.09369
      17     H     0.45335  0.45335  0.00000  0.09329
      18     H     0.44762  0.44762  0.00000  0.10477
      19     H     0.45366  0.45366  0.00000  0.09268
      20     H     0.45464  0.45464  0.00000  0.09072

   Total alpha = 32.00000, Total beta = 32.00000, Total charge =  0.00000

*** Psi4 exiting successfully. Buy a developer a beer!
