  ==> Input File <==

--------------------------------------------------------------------------
set {
	reference rhf
	basis 6-31G*
}

set_num_threads( 4 )
memory 2 gb

molecule MOL {
0 1

O	 -2.439739	 -0.935931	 -0.423848
C	 -1.921153	 0.064240	 -0.045697
C	 -2.624470	 1.379923	 0.150949
O	 -0.632575	 0.154573	 0.251549
H	 -2.168117	 2.136577	 -0.476876
H	 -3.669540	 1.273223	 -0.098610
H	 -2.519365	 1.700893	 1.180846
C	 0.160891	 -1.019931	 0.106212
C	 1.589627	 -0.672828	 0.480843
H	 0.089836	 -1.367806	 -0.916050
H	 -0.238459	 -1.792301	 0.749618
C	 2.246377	 0.346236	 -0.452210
H	 2.163194	 -1.597435	 0.473358
H	 1.604769	 -0.303424	 1.502885
C	 3.637112	 -0.090126	 -0.910952
H	 1.609936	 0.498294	 -1.321648
H	 2.313985	 1.304094	 0.053058
H	 4.081623	 0.648835	 -1.570027
H	 3.596523	 -1.032379	 -1.450201
H	 4.305258	 -0.222582	 -0.064716

	symmetry c1
}
set optking {
	frozen_dihedral = ("
		16 12 9 8
	")
}

ee = optimize('scf')
oeprop('DIPOLE', 'QUADRUPOLE', 'MULLIKEN_CHARGES')
f=open( 'psi4out.xyz', 'w' )
f.write( "20  " )
f.write( str(ee) + "\n" )
f.write( MOL.save_string_xyz() )
f.close()
--------------------------------------------------------------------------

    Molecular point group: c1
  Charge       = 0
  Multiplicity = 1
  Basis Set: 6-31G*
  Basis Set:
  @DF-RHF Final Energy:  -383.94075414613820
    Total Energy =                       -383.9407541461381470
    Molecular point group: c1
  Basis Set: 6-31G*
  Basis Set:
  Basis Set: 6-31G*
  Basis Set:
  @DF-RHF Final Energy:  -383.94094457091290
    Total Energy =                       -383.9409445709130750
  Basis Set: 6-31G*
  Basis Set:
  Basis Set: 6-31G*
  Basis Set:
  @DF-RHF Final Energy:  -383.93989998764135
    Total Energy =                       -383.9398999876412972
  Basis Set: 6-31G*
  Basis Set:
  Basis Set: 6-31G*
  Basis Set:
  @DF-RHF Final Energy:  -383.94110146230133
    Total Energy =                       -383.9411014623011624
  Basis Set: 6-31G*
  Basis Set:
  Basis Set: 6-31G*
  Basis Set:
  @DF-RHF Final Energy:  -383.94111011272349
    Total Energy =                       -383.9411101127236634
  Basis Set: 6-31G*
  Basis Set:
  Basis Set: 6-31G*
  Basis Set:
  @DF-RHF Final Energy:  -383.94111172574929
    Total Energy =                       -383.9411117257490105
  Basis Set: 6-31G*
  Basis Set:
  Basis Set: 6-31G*
  Basis Set:
  @DF-RHF Final Energy:  -383.94111278713484
    Total Energy =                       -383.9411127871351255
  Basis Set: 6-31G*
  Basis Set:
  Charge       = 0
  Multiplicity = 1
  Basis Set: 6-31G*
  Basis Set:

    Orbital Energies (a.u.)
    -----------------------

    Doubly Occupied:

       1A    -20.601418     2A    -20.543881     3A    -11.374253
       4A    -11.282378     5A    -11.233169     6A    -11.225310
       7A    -11.221114     8A    -11.214120     9A     -1.467661
      10A     -1.361906    11A     -1.084281    12A     -1.027653
      13A     -0.981564    14A     -0.880467    15A     -0.813117
      16A     -0.772849    17A     -0.689074    18A     -0.686843
      19A     -0.666261    20A     -0.627148    21A     -0.599988
      22A     -0.591091    23A     -0.572412    24A     -0.555883
      25A     -0.544731    26A     -0.529452    27A     -0.510256
      28A     -0.485954    29A     -0.474083    30A     -0.468523
      31A     -0.448937    32A     -0.438239

  @DF-RHF Final Energy:  -383.94111280036361

   => Energetics <=

    Nuclear Repulsion Energy =            385.2723508391346741
    One-Electron Energy =               -1286.4788943899507103
    Two-Electron Energy =                 517.2654307504518556
    DFT Exchange-Correlation Energy =       0.0000000000000000
    Empirical Dispersion Energy =           0.0000000000000000
    PCM Polarization Energy =               0.0000000000000000
    EFP Energy =                            0.0000000000000000
    Total Energy =                       -383.9411128003641807
    Molecular point group: c1
  Basis Set: 6-31G*
  Basis Set:

  -Total Gradient:
     Atom            X                  Y                   Z
    ------   -----------------  -----------------  -----------------
       1       -0.000002170007    -0.000000965942     0.000003681411
       2       -0.000005009535     0.000000780702    -0.000012918771
       3       -0.000002162455    -0.000000934823     0.000009756677
       4        0.000010310225    -0.000010652977     0.000022509466
       5       -0.000000371427    -0.000002081105    -0.000002848734
       6        0.000000395078     0.000000348847    -0.000001055781
       7        0.000000953129     0.000003373147    -0.000001063637
       8        0.000682450840    -0.001553917018    -0.001262206906
       9       -0.001270778083     0.002679274050     0.002083119596
      10        0.000000791587    -0.000004923608     0.000001275380
      11       -0.000004967978     0.000003069262     0.000002280606
      12        0.001900681635    -0.003219336654    -0.002221845398
      13       -0.000013065205     0.000003507713     0.000004009261
      14        0.000001044515    -0.000008483571     0.000010626693
      15        0.000009913811     0.000011225118    -0.000003195344
      16       -0.001314951280     0.002106286402     0.001378309563
      17        0.000002274880    -0.000006363032    -0.000009388000
      18        0.000005377087    -0.000000638202    -0.000000565560
      19       -0.000003033290     0.000002400773    -0.000000460218
      20        0.000002316476    -0.000001969084    -0.000000020304

  **** Optimization is complete! (in 8 steps) ****
    Final optimized geometry and variables:
    Molecular point group: c1

    Geometry (in Angstrom), charge = 0, multiplicity = 1:

    O           -2.439321225535    -0.834704253802    -0.302288324359
    C           -1.909375736579     0.164497413625     0.062803609812
    C           -2.598181273436     1.490161695195     0.243565179283
    O           -0.621161561706     0.242614130136     0.364367433136
    H           -2.130500780357     2.235030254509    -0.389914948027
    H           -3.643483702572     1.392960385043    -0.008947663244
    H           -2.493136184317     1.820094708230     1.270667784847
    C            0.159513896767    -0.942731566834     0.235704261768
    C            1.592357431168    -0.598710353247     0.592579564373
    H            0.081698464075    -1.306387012419    -0.780350097196
    H           -0.243274885156    -1.700121229963     0.894852028599
    C            2.243101426438     0.433354588219    -0.352014824254
    H            2.151744480416    -1.531268754087     0.562788685943
    H            1.629257011267    -0.252946761962     1.620583888708
    C            3.645878765753     0.036639655312    -0.808922187475
    H            1.603279047977     0.596962567710    -1.214612263763
    H            2.290595864963     1.395765021012     0.148199081481
    H            4.081258677421     0.799330286574    -1.446876023707
    H            3.627881691678    -0.894191320274    -1.368944884084
    H            4.309162138284    -0.102526822978     0.040277710542

  Mulliken Charges: (a.u.)
   Center  Symbol    Alpha    Beta     Spin     Total
       1     O     4.28342  4.28342  0.00000 -0.56684
       2     C     2.61965  2.61965  0.00000  0.76070
       3     C     3.28156  3.28156  0.00000 -0.56312
       4     O     4.30818  4.30818  0.00000 -0.61636
       5     H     0.40068  0.40068  0.00000  0.19863
       6     H     0.39698  0.39698  0.00000  0.20604
       7     H     0.40059  0.40059  0.00000  0.19882
       8     C     3.00523  3.00523  0.00000 -0.01047
       9     C     3.16715  3.16715  0.00000 -0.33430
      10     H     0.41042  0.41042  0.00000  0.17916
      11     H     0.40910  0.40910  0.00000  0.18179
      12     C     3.15421  3.15421  0.00000 -0.30843
      13     H     0.41625  0.41625  0.00000  0.16751
      14     H     0.41171  0.41171  0.00000  0.17658
      15     C     3.24156  3.24156  0.00000 -0.48311
      16     H     0.41682  0.41682  0.00000  0.16635
      17     H     0.41595  0.41595  0.00000  0.16810
      18     H     0.41837  0.41837  0.00000  0.16326
      19     H     0.42147  0.42147  0.00000  0.15705
      20     H     0.42069  0.42069  0.00000  0.15862

   Total alpha = 32.00000, Total beta = 32.00000, Total charge = -0.00000
