  ==> Input File <==

--------------------------------------------------------------------------
set {
	reference rhf
	basis 6-31G*
}

set_num_threads( 1 )
memory 2 gb

molecule MOL {
0 1

O	 -2.821601	 1.309235	 -0.001213
C	 -2.668563	 0.129746	 -0.000350
C	 -3.801572	 -0.864014	 -0.000442
O	 -1.481751	 -0.454642	 0.000584
H	 -4.417280	 -0.689587	 -0.874708
H	 -3.443784	 -1.883046	 -0.000565
H	 -4.417179	 -0.689832	 0.873954
C	 -0.334255	 0.388708	 0.000906
C	 0.891947	 -0.504646	 0.000751
H	 -0.365390	 1.025305	 -0.873475
H	 -0.365484	 1.024911	 0.875569
C	 2.191998	 0.301789	 0.000897
H	 0.855148	 -1.151283	 -0.871571
H	 0.855132	 -1.151660	 0.872805
C	 2.157025	 1.488843	 -0.963471
H	 2.395200	 0.664170	 1.007115
H	 3.023835	 -0.349042	 -0.262826
C	 3.455051	 2.295064	 -0.962297
H	 1.326556	 2.140441	 -0.701146
H	 1.956359	 1.128293	 -1.969854
H	 3.665735	 2.697861	 0.024304
H	 3.399600	 3.129020	 -1.654885
H	 4.300197	 1.678219	 -1.254258

	symmetry c1
}
set optking {
	frozen_dihedral = ("
		13 9 8 10,
		2 4 8 10,
		19 15 12 16,
		1 2 4 8
	")
}

ee = energy('scf')
oeprop('DIPOLE', 'QUADRUPOLE', 'MULLIKEN_CHARGES')
f=open( 'psi4out.xyz', 'w' )
f.write( "23  " )
f.write( str(ee) + "\n" )
f.write( MOL.save_string_xyz() )
f.close()
--------------------------------------------------------------------------

    Molecular point group: c1

    Geometry (in Angstrom), charge = 0, multiplicity = 1:

       Center              X                  Y                   Z               Mass
    ------------   -----------------  -----------------  -----------------  -----------------
           O         -2.534936175164     0.847064794371     0.213586706815    15.994914619560
           C         -2.381898175164    -0.332424205629     0.214449706815    12.000000000000
           C         -3.514907175164    -1.326184205629     0.214357706815    12.000000000000
           O         -1.195086175164    -0.916812205629     0.215383706815    15.994914619560
           H         -4.130615175164    -1.151757205629    -0.659908293185     1.007825032070
           H         -3.157119175164    -2.345216205629     0.214234706815     1.007825032070
           H         -4.130514175164    -1.152002205629     1.088753706815     1.007825032070
           C         -0.047590175164    -0.073462205629     0.215705706815    12.000000000000
           C          1.178611824836    -0.966816205629     0.215550706815    12.000000000000
           H         -0.078725175164     0.563134794371    -0.658675293185     1.007825032070
           H         -0.078819175164     0.562740794371     1.090368706815     1.007825032070
           C          2.478662824836    -0.160381205629     0.215696706815    12.000000000000
           H          1.141812824836    -1.613453205629    -0.656771293185     1.007825032070
           H          1.141796824836    -1.613830205629     1.087604706815     1.007825032070
           C          2.443689824836     1.026672794371    -0.748671293185    12.000000000000
           H          2.681864824836     0.201999794371     1.221914706815     1.007825032070
           H          3.310499824836    -0.811212205629    -0.048026293185     1.007825032070
           C          3.741715824836     1.832893794371    -0.747497293185    12.000000000000
           H          1.613220824836     1.678270794371    -0.486346293185     1.007825032070
           H          2.243023824836     0.666122794371    -1.755054293185     1.007825032070
           H          3.952399824836     2.235690794371     0.239103706815     1.007825032070
           H          3.686264824836     2.666849794371    -1.440085293185     1.007825032070
           H          4.586861824836     1.216048794371    -1.039458293185     1.007825032070

  Charge       = 0
  Multiplicity = 1
  Basis Set: 6-31G*
  Basis Set:

    Orbital Energies (a.u.)
    -----------------------

    Doubly Occupied:

       1A    -20.602406     2A    -20.540335     3A    -11.373880
       4A    -11.280246     5A    -11.232236     6A    -11.223933
       7A    -11.223252     8A    -11.221292     9A    -11.212640
      10A     -1.467555    11A     -1.360451    12A     -1.097590
      13A     -1.038714    14A     -1.002035    15A     -0.930984
      16A     -0.853697    17A     -0.790396    18A     -0.778263
      19A     -0.689293    20A     -0.684794    21A     -0.670004
      22A     -0.639012    23A     -0.610609    24A     -0.588243
      25A     -0.578210    26A     -0.572340    27A     -0.565016
      28A     -0.527142    29A     -0.525961    30A     -0.515531
      31A     -0.495667    32A     -0.475413    33A     -0.466010
      34A     -0.460393    35A     -0.448423    36A     -0.435839

  @DF-RHF Final Energy:  -422.97416874369435

   => Energetics <=

    Nuclear Repulsion Energy =            459.8342175058309067
    One-Electron Energy =               -1487.2611627787514408
    Two-Electron Energy =                 604.4527765292270942
    DFT Exchange-Correlation Energy =       0.0000000000000000
    Empirical Dispersion Energy =           0.0000000000000000
    PCM Polarization Energy =               0.0000000000000000
    EFP Energy =                            0.0000000000000000
    Total Energy =                       -422.9741687436933262

  Mulliken Charges: (a.u.)
   Center  Symbol    Alpha    Beta     Spin     Total
       1     O     4.28424  4.28424  0.00000 -0.56849
       2     C     2.61544  2.61544  0.00000  0.76913
       3     C     3.28780  3.28780  0.00000 -0.57560
       4     O     4.31421  4.31421  0.00000 -0.62842
       5     H     0.39758  0.39758  0.00000  0.20484
       6     H     0.39983  0.39983  0.00000  0.20035
       7     H     0.39756  0.39756  0.00000  0.20488
       8     C     2.99989  2.99989  0.00000  0.00021
       9     C     3.16460  3.16460  0.00000 -0.32920
      10     H     0.40675  0.40675  0.00000  0.18651
      11     H     0.41112  0.41112  0.00000  0.17776
      12     C     3.15856  3.15856  0.00000 -0.31712
      13     H     0.41426  0.41426  0.00000  0.17149
      14     H     0.41210  0.41210  0.00000  0.17580
      15     C     3.16346  3.16346  0.00000 -0.32692
      16     H     0.42036  0.42036  0.00000  0.15929
      17     H     0.41709  0.41709  0.00000  0.16583
      18     C     3.23821  3.23821  0.00000 -0.47642
      19     H     0.41667  0.41667  0.00000  0.16665
      20     H     0.42081  0.42081  0.00000  0.15838
      21     H     0.42068  0.42068  0.00000  0.15863
      22     H     0.41744  0.41744  0.00000  0.16512
      23     H     0.42135  0.42135  0.00000  0.15730

   Total alpha = 36.00000, Total beta = 36.00000, Total charge =  0.00000
