                              Psi4 1.0.54 Driver

  ==> Input File <==

--------------------------------------------------------------------------
set {
	reference rhf
	basis cc-pvtz
}

set_num_threads( 4 )
memory 2 gb

molecule MOL {
0 1

O	 0.749630	 1.305591	 -0.000460
C	 0.576499	 0.134701	 -0.003900
C	 -0.765656	 -0.550508	 -0.002152
O	 1.564816	 -0.744612	 -0.000631
C	 -1.945526	 0.411052	 0.000603
H	 -0.794329	 -1.203792	 -0.868145
H	 -0.791555	 -1.205429	 0.862701
C	 -2.491544	 0.645745	 1.404778
H	 -2.727030	 0.019510	 -0.639193
H	 -1.640022	 1.352669	 -0.439174
H	 -2.833987	 -0.280169	 1.855029
H	 -3.329681	 1.331706	 1.383683
H	 -1.734803	 1.069074	 2.057054
C	 2.884339	 -0.237801	 0.002883
H	 3.064150	 0.362814	 -0.876312
H	 3.533055	 -1.098529	 0.004958
H	 3.059365	 0.363432	 0.882614

	symmetry c1
}
set optking {
	frozen_dihedral = ("
		9 5 3 6
	")
}

ee,wfn = optimize('scf', return_wfn=True)
oeprop( wfn, 'DIPOLE', 'QUADRUPOLE', 'MULLIKEN_CHARGES')
f=open( 'psi4out.xyz', 'w' )
f.write( "17  " )
f.write( str(ee) + "\n" )
f.write( MOL.save_string_xyz() )
f.close()
--------------------------------------------------------------------------

    Molecular point group: c1
  Charge       = 0
  Multiplicity = 1
  Basis Set: CC-PVTZ
  Basis Set:
  @DF-RHF Final Energy:  -345.03220276647164
    Total Energy =                       -345.0322027664720963
    Molecular point group: c1
  Basis Set: CC-PVTZ
  Basis Set:
  Basis Set: CC-PVTZ
  Basis Set:
  @DF-RHF Final Energy:  -345.03234163103417
    Total Energy =                       -345.0323416310341145
  Basis Set: CC-PVTZ
  Basis Set:
  Basis Set: CC-PVTZ
  Basis Set:
  @DF-RHF Final Energy:  -345.03072753488874
    Total Energy =                       -345.0307275348883422
  Basis Set: CC-PVTZ
  Basis Set:
  Basis Set: CC-PVTZ
  Basis Set:
  @DF-RHF Final Energy:  -345.03254850739199
    Total Energy =                       -345.0325485073919367
  Basis Set: CC-PVTZ
  Basis Set:
  Basis Set: CC-PVTZ
  Basis Set:
  @DF-RHF Final Energy:  -345.03256505937867
    Total Energy =                       -345.0325650593791806
  Basis Set: CC-PVTZ
  Basis Set:
  Basis Set: CC-PVTZ
  Basis Set:
  @DF-RHF Final Energy:  -345.03256779922992
    Total Energy =                       -345.0325677992299234
  Basis Set: CC-PVTZ
  Basis Set:
  Basis Set: CC-PVTZ
  Basis Set:
  @DF-RHF Final Energy:  -345.03256922850551
    Total Energy =                       -345.0325692285055084
  Basis Set: CC-PVTZ
  Basis Set:
  Charge       = 0
  Multiplicity = 1
  Basis Set: CC-PVTZ
  Basis Set:

    Orbital Energies (a.u.)
    -----------------------

    Doubly Occupied:

       1A    -20.597244     2A    -20.535346     3A    -11.365971
       4A    -11.279183     5A    -11.234080     6A    -11.219083
       7A    -11.208834     8A     -1.473378     9A     -1.366906
      10A     -1.079211    11A     -1.001651    12A     -0.939298
      13A     -0.829860    14A     -0.768818    15A     -0.705566
      16A     -0.684887    17A     -0.676267    18A     -0.621480
      19A     -0.610556    20A     -0.570380    21A     -0.569116
      22A     -0.535063    23A     -0.525892    24A     -0.488103
      25A     -0.483419    26A     -0.480101    27A     -0.461298
      28A     -0.443009

  @DF-RHF Final Energy:  -345.03256971073961

   => Energetics <=

    Nuclear Repulsion Energy =            316.2149578897766560
    One-Electron Energy =               -1096.9870593664845728
    Two-Electron Energy =                 435.7395317659686498
    DFT Exchange-Correlation Energy =       0.0000000000000000
    Empirical Dispersion Energy =           0.0000000000000000
    PCM Polarization Energy =               0.0000000000000000
    EFP Energy =                            0.0000000000000000
    Total Energy =                       -345.0325697107392671
    Molecular point group: c1
  Basis Set: CC-PVTZ
  Basis Set:

  -Total Gradient:
     Atom            X                  Y                   Z
    ------   -----------------  -----------------  -----------------
       1       -0.000014413794     0.000084999396     0.000001185750
       2       -0.000015618181    -0.000038724894     0.000001705333
       3        0.002709327067     0.003485296232    -0.003085403102
       4        0.000008147281    -0.000050915600    -0.000007575587
       5       -0.002119371858    -0.002802512195     0.003962332198
       6       -0.001910025834    -0.002469209130     0.001928422064
       7        0.000018041659     0.000012050046     0.000008598799
       8       -0.000014721555    -0.000004836756    -0.000015197289
       9        0.001341750797     0.001759353845    -0.002807186801
      10       -0.000001322585     0.000027048618     0.000016138329
      11        0.000000499658     0.000001117840     0.000001817747
      12       -0.000000955042    -0.000000014673    -0.000000228306
      13       -0.000002437528    -0.000008466702    -0.000005922667
      14       -0.000005858330    -0.000013569938    -0.000004362443
      15       -0.000000610265     0.000018901945    -0.000018132221
      16        0.000005587117    -0.000018247550     0.000000125722
      17        0.000001981392     0.000017729512     0.000023682473

  **** Optimization is complete! (in 8 steps) ****
    Final optimized geometry and variables:
    Molecular point group: c1

    Geometry (in Angstrom), charge = 0, multiplicity = 1:

    O            0.640193561080     1.160781048617    -0.130186331398
    C            0.463932852651    -0.007831698334    -0.198743437468
    C           -0.877669881173    -0.695392709078    -0.228975699403
    O            1.451014481854    -0.886512658261    -0.250743601855
    C           -2.080120106341     0.250892823904    -0.208825640598
    H           -0.897645067190    -1.354671695994    -1.088403088656
    H           -0.896484313849    -1.364158860607     0.626439206241
    C           -2.613267749885     0.528229873959     1.191761918930
    H           -2.861079197135    -0.160871358562    -0.837937906392
    H           -1.791515160216     1.186355582027    -0.670090458172
    H           -2.955620180511    -0.383389687308     1.670764130165
    H           -3.447368467580     1.219117491412     1.159368039899
    H           -1.844390763113     0.967676584254     1.817028866359
    C            2.771217107829    -0.382771221086    -0.218960950779
    H            2.950534008634     0.270093215935    -1.060282775124
    H            3.419001249596    -1.242766741540    -0.270455994508
    H            2.948832418413     0.163660496497     0.695459598666

  Mulliken Charges: (a.u.)
   Center  Symbol    Alpha    Beta     Spin     Total
       1     O     4.19787  4.19787  0.00000 -0.39574
       2     C     2.80296  2.80296  0.00000  0.39407
       3     C     3.10512  3.10512  0.00000 -0.21025
       4     O     4.14683  4.14683  0.00000 -0.29366
       5     C     3.08767  3.08767  0.00000 -0.17534
       6     H     0.43191  0.43191  0.00000  0.13618
       7     H     0.44192  0.44192  0.00000  0.11616
       8     C     3.14828  3.14828  0.00000 -0.29657
       9     H     0.44837  0.44837  0.00000  0.10327
      10     H     0.44297  0.44297  0.00000  0.11405
      11     H     0.45787  0.45787  0.00000  0.08427
      12     H     0.44840  0.44840  0.00000  0.10319
      13     H     0.44936  0.44936  0.00000  0.10128
      14     C     3.03643  3.03643  0.00000 -0.07286
      15     H     0.45421  0.45421  0.00000  0.09158
      16     H     0.44537  0.44537  0.00000  0.10926
      17     H     0.45445  0.45445  0.00000  0.09111

   Total alpha = 28.00000, Total beta = 28.00000, Total charge = -0.00000

*** Psi4 exiting successfully. Buy a developer a beer!
