  ==> Input File <==

--------------------------------------------------------------------------
set {
	reference rhf
	basis 6-31G*
}

set_num_threads( 4 )
memory 2 gb

molecule MOL {
0 1

H	 -3.534734	 -0.498565	 -1.493211
O	 -3.452007	 0.283848	 -0.965577
C	 -3.181085	 -0.079926	 0.364119
C	 -1.765924	 0.277073	 0.805136
H	 -3.327791	 -1.152017	 0.410903
H	 -3.905698	 0.375695	 1.036898
C	 -0.677594	 -0.417312	 -0.014550
H	 -1.637766	 1.358238	 0.744969
H	 -1.659588	 0.017670	 1.857098
C	 0.738335	 -0.034840	 0.421385
H	 -0.814977	 -0.178223	 -1.064632
H	 -0.802730	 -1.495410	 0.071702
C	 1.822265	 -0.738362	 -0.399735
H	 0.853533	 1.043532	 0.342250
H	 0.871597	 -0.279636	 1.474438
C	 3.258060	 -0.455774	 0.057203
H	 1.718003	 -0.459167	 -1.447053
H	 1.651028	 -1.811884	 -0.354513
C	 3.709143	 0.994797	 -0.123830
H	 3.930637	 -1.101717	 -0.501982
H	 3.365259	 -0.739518	 1.102287
H	 3.601178	 1.310569	 -1.158127
H	 4.753787	 1.110486	 0.148516
H	 3.135362	 1.678896	 0.492569

	symmetry c1
}
set optking {
	frozen_dihedral = ("
		1 2 3 5
	")
}

ee = optimize('scf')
oeprop('DIPOLE', 'QUADRUPOLE', 'MULLIKEN_CHARGES')
f=open( 'psi4out.xyz', 'w' )
f.write( "24  " )
f.write( str(ee) + "\n" )
f.write( MOL.save_string_xyz() )
f.close()
--------------------------------------------------------------------------

    Molecular point group: c1
  Charge       = 0
  Multiplicity = 1
  Basis Set: 6-31G*
  Basis Set:
  @DF-RHF Final Energy:  -349.24461809749647
    Total Energy =                       -349.2446180974965841
    Molecular point group: c1
  Basis Set: 6-31G*
  Basis Set:
  Basis Set: 6-31G*
  Basis Set:
  @DF-RHF Final Energy:  -349.24571079061781
    Total Energy =                       -349.2457107906177498
  Basis Set: 6-31G*
  Basis Set:
  Basis Set: 6-31G*
  Basis Set:
  @DF-RHF Final Energy:  -349.24608815452268
    Total Energy =                       -349.2460881545227949
  Basis Set: 6-31G*
  Basis Set:
  Basis Set: 6-31G*
  Basis Set:
  @DF-RHF Final Energy:  -349.24609108180857
    Total Energy =                       -349.2460910818084585
  Basis Set: 6-31G*
  Basis Set:
  Basis Set: 6-31G*
  Basis Set:
  @DF-RHF Final Energy:  -349.24609447096884
    Total Energy =                       -349.2460944709689556
  Basis Set: 6-31G*
  Basis Set:
  Charge       = 0
  Multiplicity = 1
  Basis Set: 6-31G*
  Basis Set:

    Orbital Energies (a.u.)
    -----------------------

    Doubly Occupied:

       1A    -20.551844     2A    -11.268072     3A    -11.213958
       4A    -11.212397     5A    -11.212075     6A    -11.211544
       7A    -11.211327     8A    -11.206601     9A     -1.357975
      10A     -1.088106    11A     -1.047581    12A     -0.985584
      13A     -0.915268    14A     -0.847767    15A     -0.791364
      16A     -0.776203    17A     -0.703561    18A     -0.644170
      19A     -0.629783    20A     -0.607889    21A     -0.596749
      22A     -0.578286    23A     -0.559998    24A     -0.537296
      25A     -0.513433    26A     -0.509393    27A     -0.496402
      28A     -0.472674    29A     -0.467954    30A     -0.459489
      31A     -0.455764    32A     -0.450228    33A     -0.417557

  @DF-RHF Final Energy:  -349.24609515910373

   => Energetics <=

    Nuclear Repulsion Energy =            384.4987581380348161
    One-Electron Energy =               -1235.4931255285187035
    Two-Electron Energy =                 501.7482722313799854
    DFT Exchange-Correlation Energy =       0.0000000000000000
    Empirical Dispersion Energy =           0.0000000000000000
    PCM Polarization Energy =               0.0000000000000000
    EFP Energy =                            0.0000000000000000
    Total Energy =                       -349.2460951591038452
    Molecular point group: c1
  Basis Set: 6-31G*
  Basis Set:

  -Total Gradient:
     Atom            X                  Y                   Z
    ------   -----------------  -----------------  -----------------
       1       -0.000578970369    -0.000019310980     0.000120887651
       2        0.000838918571    -0.000009910935    -0.000173055102
       3       -0.000754253298     0.000080497907     0.000144222491
       4       -0.000017073149    -0.000000528379     0.000052688283
       5        0.000486425192    -0.000071082305    -0.000137720988
       6        0.000022597752     0.000004130804     0.000013328080
       7       -0.000019313108    -0.000011464914    -0.000015132777
       8       -0.000007465796     0.000003888786    -0.000001590833
       9        0.000015589969     0.000014472683    -0.000000495738
      10       -0.000003272322    -0.000003529699     0.000006168104
      11        0.000008963577     0.000003345978    -0.000000373051
      12        0.000000127231     0.000011376409    -0.000009434214
      13        0.000001863371     0.000000077180     0.000001383274
      14       -0.000002901437    -0.000007609785    -0.000004657871
      15       -0.000001307629     0.000004928877     0.000004943160
      16       -0.000001223845    -0.000000528219     0.000003658802
      17       -0.000001227013     0.000004244942     0.000002399681
      18        0.000005306561    -0.000001145030    -0.000005237950
      19        0.000003844227    -0.000000239757    -0.000002542034
      20        0.000001246138    -0.000003591032     0.000002987824
      21       -0.000003134407     0.000004013863     0.000001079108
      22       -0.000001532388     0.000001822958    -0.000001367647
      23        0.000000223769    -0.000001517500    -0.000002225434
      24        0.000006568408    -0.000002341852     0.000000087183

  **** Optimization is complete! (in 6 steps) ****
    Final optimized geometry and variables:
    Molecular point group: c1

    Geometry (in Angstrom), charge = 0, multiplicity = 1:

    H           -3.536990410173    -0.410413733052    -1.518898878732
    O           -3.441493546050     0.335233153229    -0.947231623151
    C           -3.179781866170    -0.089761183745     0.370662194333
    C           -1.768229592004     0.284920214575     0.800298701853
    H           -3.321560511961    -1.164488235712     0.461560126176
    H           -3.902842545407     0.387651043726     1.023222674578
    C           -0.677370134151    -0.414476989559    -0.011012617942
    H           -1.658681151724     1.362497199834     0.709102837845
    H           -1.655366619127     0.044402701590     1.856456008608
    C            0.737650212407    -0.027569874258     0.423876452448
    H           -0.809737229843    -0.173739446961    -1.062081859731
    H           -0.797259151295    -1.494071594599     0.079559726739
    C            1.824479403112    -0.727888605455    -0.396076322506
    H            0.847148338877     1.050731051810     0.342942777209
    H            0.870879529524    -0.270902618617     1.477186793954
    C            3.259051813350    -0.438222565225     0.060344474877
    H            1.719300759081    -0.450417611907    -1.443802650596
    H            1.658417361844    -1.802426638259    -0.349178572772
    C            3.704005857778     1.013647404955    -0.125078025620
    H            3.934445156857    -1.083271917692    -0.496506969221
    H            3.366777893723    -0.718267813085     1.106375265956
    H            3.595041140716     1.325798627813    -1.160313608044
    H            4.748081436968     1.134391309521     0.147282180677
    H            3.127027706087     1.697145331572     0.488801879012

  Mulliken Charges: (a.u.)
   Center  Symbol    Alpha    Beta     Spin     Total
       1     H     0.27918  0.27918  0.00000  0.44165
       2     O     4.37189  4.37189  0.00000 -0.74378
       3     C     3.00041  3.00041  0.00000 -0.00082
       4     C     3.15656  3.15656  0.00000 -0.31313
       5     H     0.43208  0.43208  0.00000  0.13584
       6     H     0.41875  0.41875  0.00000  0.16250
       7     C     3.15715  3.15715  0.00000 -0.31430
       8     H     0.41529  0.41529  0.00000  0.16943
       9     H     0.42592  0.42592  0.00000  0.14816
      10     C     3.15315  3.15315  0.00000 -0.30631
      11     H     0.41559  0.41559  0.00000  0.16882
      12     H     0.42887  0.42887  0.00000  0.14226
      13     C     3.15228  3.15228  0.00000 -0.30456
      14     H     0.42000  0.42000  0.00000  0.15999
      15     H     0.42526  0.42526  0.00000  0.14947
      16     C     3.15223  3.15223  0.00000 -0.30447
      17     H     0.42400  0.42400  0.00000  0.15199
      18     H     0.42355  0.42355  0.00000  0.15289
      19     C     3.24111  3.24111  0.00000 -0.48222
      20     H     0.42149  0.42149  0.00000  0.15702
      21     H     0.42375  0.42375  0.00000  0.15249
      22     H     0.42206  0.42206  0.00000  0.15589
      23     H     0.41967  0.41967  0.00000  0.16067
      24     H     0.41974  0.41974  0.00000  0.16052

   Total alpha = 33.00000, Total beta = 33.00000, Total charge = -0.00000
