  ==> Input File <==

--------------------------------------------------------------------------
set {
	reference rhf
	basis 6-31G*
}

set_num_threads( 1 )
memory 2 gb

molecule MOL {
0 1

H	 1.500066	 -1.325513	 -0.693654
O	 1.586534	 -0.678666	 -0.000226
C	 0.489431	 0.077273	 0.000046
C	 -0.764129	 -0.759190	 0.000191
O	 0.537743	 1.263962	 0.000257
C	 -2.038368	 0.075731	 -0.000248
H	 -0.717284	 -1.412404	 -0.866059
H	 -0.717458	 -1.411724	 0.866967
H	 -2.086483	 0.712501	 -0.875098
H	 -2.908485	 -0.571682	 -0.000042
H	 -2.086576	 0.713280	 0.874068

	symmetry c1
}
set optking {
	frozen_dihedral = ("
		2 3 4 7
	")
}

ee = energy('scf')
oeprop('DIPOLE', 'QUADRUPOLE', 'MULLIKEN_CHARGES')
f=open( 'psi4out.xyz', 'w' )
f.write( "11  " )
f.write( str(ee) + "\n" )
f.write( MOL.save_string_xyz() )
f.close()
--------------------------------------------------------------------------

    Molecular point group: c1

    Geometry (in Angstrom), charge = 0, multiplicity = 1:

       Center              X                  Y                   Z               Mass
    ------------   -----------------  -----------------  -----------------  -----------------
           H          1.511550628447    -1.308848280328    -0.684214322706     1.007825032070
           O          1.598018628447    -0.662001280328     0.009213677294    15.994914619560
           C          0.500915628447     0.093937719672     0.009485677294    12.000000000000
           C         -0.752644371553    -0.742525280328     0.009630677294    12.000000000000
           O          0.549227628447     1.280626719672     0.009696677294    15.994914619560
           C         -2.026883371553     0.092395719672     0.009191677294    12.000000000000
           H         -0.705799371553    -1.395739280328    -0.856619322706     1.007825032070
           H         -0.705973371553    -1.395059280328     0.876406677294     1.007825032070
           H         -2.074998371553     0.729165719672    -0.865658322706     1.007825032070
           H         -2.897000371553    -0.555017280328     0.009397677294     1.007825032070
           H         -2.075091371553     0.729944719672     0.883507677294     1.007825032070

  Charge       = 0
  Multiplicity = 1
  Basis Set: 6-31G*
  Basis Set:

    Orbital Energies (a.u.)
    -----------------------

    Doubly Occupied:

       1A    -20.607338     2A    -20.557164     3A    -11.381462
       4A    -11.251750     5A    -11.224830     6A     -1.470642
       7A     -1.372121     8A     -1.068942     9A     -0.909794
      10A     -0.821888    11A     -0.717828    12A     -0.674499
      13A     -0.660615    14A     -0.619563    15A     -0.580447
      16A     -0.533636    17A     -0.523021    18A     -0.508614
      19A     -0.483385    20A     -0.445033

  @DF-RHF Final Energy:  -266.82658854346244

   => Energetics <=

    Nuclear Repulsion Energy =            179.9622069031165097
    One-Electron Energy =                -720.7524445932310755
    Two-Electron Energy =                 273.9636491466524149
    DFT Exchange-Correlation Energy =       0.0000000000000000
    Empirical Dispersion Energy =           0.0000000000000000
    PCM Polarization Energy =               0.0000000000000000
    EFP Energy =                            0.0000000000000000
    Total Energy =                       -266.8265885434620941

  Mulliken Charges: (a.u.)
   Center  Symbol    Alpha    Beta     Spin     Total
       1     H     0.26865  0.26865  0.00000  0.46270
       2     O     4.35056  4.35056  0.00000 -0.70112
       3     C     2.62328  2.62328  0.00000  0.75343
       4     C     3.22040  3.22040  0.00000 -0.44080
       5     O     4.25744  4.25744  0.00000 -0.51488
       6     C     3.23900  3.23900  0.00000 -0.47801
       7     H     0.41346  0.41346  0.00000  0.17309
       8     H     0.39546  0.39546  0.00000  0.20907
       9     H     0.40858  0.40858  0.00000  0.18285
      10     H     0.41720  0.41720  0.00000  0.16560
      11     H     0.40596  0.40596  0.00000  0.18808

   Total alpha = 20.00000, Total beta = 20.00000, Total charge = -0.00000
