  ==> Input File <==

--------------------------------------------------------------------------
set {
	reference rhf
	basis cc-pvtz
}

set_num_threads( 4 )
memory 2 gb

molecule MOL {
0 1

H	 -0.338105	 -1.234739	 -0.755964
N	 -0.625934	 -0.663929	 -0.000707
C	 -1.978635	 -0.158664	 0.001017
C	 0.271447	 -0.401825	 0.975300
H	 -2.519057	 -0.493535	 -0.876362
H	 -1.938890	 0.917202	 -0.004137
H	 -2.514266	 -0.485137	 0.884506
C	 1.628660	 -1.038189	 0.770766
O	 0.023006	 0.271759	 1.931144
H	 2.075526	 -0.687503	 -0.152233
H	 2.265710	 -0.777396	 1.599754
H	 1.536651	 -2.116430	 0.711185

	symmetry c1
}
set optking {
	frozen_dihedral = ("
		4 2 3 5
	")
}

ee = optimize('scf')
oeprop('DIPOLE', 'QUADRUPOLE', 'MULLIKEN_CHARGES')
f=open( 'psi4out.xyz', 'w' )
f.write( "12  " )
f.write( str(ee) + "\n" )
f.write( MOL.save_string_xyz() )
f.close()
--------------------------------------------------------------------------

    Molecular point group: c1
  Charge       = 0
  Multiplicity = 1
  Basis Set: CC-PVTZ
  Basis Set:
  @DF-RHF Final Energy:  -247.10055638055758
    Total Energy =                       -247.1005563805575775
    Molecular point group: c1
  Basis Set: CC-PVTZ
  Basis Set:
  Basis Set: CC-PVTZ
  Basis Set:
  @DF-RHF Final Energy:  -247.10114028345799
    Total Energy =                       -247.1011402834581077
  Basis Set: CC-PVTZ
  Basis Set:
  Basis Set: CC-PVTZ
  Basis Set:
  @DF-RHF Final Energy:  -247.10094771747688
    Total Energy =                       -247.1009477174767994
  Basis Set: CC-PVTZ
  Basis Set:
  Basis Set: CC-PVTZ
  Basis Set:
  @DF-RHF Final Energy:  -247.10128067099262
    Total Energy =                       -247.1012806709925371
  Basis Set: CC-PVTZ
  Basis Set:
  Charge       = 0
  Multiplicity = 1
  Basis Set: CC-PVTZ
  Basis Set:

    Orbital Energies (a.u.)
    -----------------------

    Doubly Occupied:

       1A    -20.507059     2A    -15.574237     3A    -11.334879
       4A    -11.254076     5A    -11.228091     6A     -1.388803
       7A     -1.230351     8A     -1.016413     9A     -0.933025
      10A     -0.789533    11A     -0.690479    12A     -0.650820
      13A     -0.636456    14A     -0.584353    15A     -0.582615
      16A     -0.558599    17A     -0.546955    18A     -0.507114
      19A     -0.417275    20A     -0.390411

  @DF-RHF Final Energy:  -247.10128222099254

   => Energetics <=

    Nuclear Repulsion Energy =            181.8952047745122798
    One-Electron Energy =                -696.3498850851792668
    Two-Electron Energy =                 267.3533980896743287
    DFT Exchange-Correlation Energy =       0.0000000000000000
    Empirical Dispersion Energy =           0.0000000000000000
    PCM Polarization Energy =               0.0000000000000000
    EFP Energy =                            0.0000000000000000
    Total Energy =                       -247.1012822209926298
    Molecular point group: c1
  Basis Set: CC-PVTZ
  Basis Set:

  -Total Gradient:
     Atom            X                  Y                   Z
    ------   -----------------  -----------------  -----------------
       1       -0.000016271654     0.000004321399     0.000003105038
       2       -0.000058250749     0.000050943080    -0.000005150854
       3        0.000099612562    -0.000057584610     0.000004496424
       4       -0.000065601988     0.000045880204     0.000084153541
       5       -0.000005943085    -0.000010471005    -0.000008567960
       6        0.000005605737     0.000013764465     0.000005241694
       7        0.000002253769     0.000004642923    -0.000001292796
       8        0.000037655192    -0.000022492264    -0.000038522965
       9        0.000016039659    -0.000039895836    -0.000066351864
      10       -0.000005077819     0.000006000792     0.000006715609
      11       -0.000001506863     0.000005059098     0.000006810932
      12       -0.000008514762    -0.000000168244     0.000009363204

  **** Optimization is complete! (in 5 steps) ****
    Final optimized geometry and variables:
    Molecular point group: c1

    Geometry (in Angstrom), charge = 0, multiplicity = 1:

    H           -0.200053319850    -0.848347427578    -1.496268968120
    N           -0.473015478997    -0.275437567213    -0.738510273569
    C           -1.817455736235     0.252183516177    -0.705617387136
    C            0.419354295606    -0.011663428413     0.238608162498
    H           -2.344661664610    -0.089398897858    -1.585123552581
    H           -1.811108481611     1.333706652705    -0.698826958414
    H           -2.347474259957    -0.086498871863     0.174257348155
    C            1.782409006332    -0.640557001765     0.054814122796
    O            0.148426286779     0.671937446685     1.181363871742
    H            2.237590580898    -0.294442035532    -0.865869926586
    H            2.408577046896    -0.369139468466     0.888887359885
    H            1.697855617607    -1.719817805194     0.002899638088

  Mulliken Charges: (a.u.)
   Center  Symbol    Alpha    Beta     Spin     Total
       1     H     0.41155  0.41155  0.00000  0.17691
       2     N     3.61768  3.61768  0.00000 -0.23535
       3     C     3.07595  3.07595  0.00000 -0.15190
       4     C     2.83770  2.83770  0.00000  0.32460
       5     H     0.45618  0.45618  0.00000  0.08764
       6     H     0.44946  0.44946  0.00000  0.10109
       7     H     0.44956  0.44956  0.00000  0.10088
       8     C     3.15354  3.15354  0.00000 -0.30707
       9     O     4.21505  4.21505  0.00000 -0.43009
      10     H     0.44973  0.44973  0.00000  0.10055
      11     H     0.43368  0.43368  0.00000  0.13265
      12     H     0.44994  0.44994  0.00000  0.10011

   Total alpha = 20.00000, Total beta = 20.00000, Total charge = -0.00000
