  ==> Input File <==

--------------------------------------------------------------------------
set {
	reference rhf
	basis 6-31G*
}

set_num_threads( 4 )
memory 2 gb

molecule MOL {
0 1

H	 -3.420663	 1.227371	 -1.044276
O	 -3.452007	 0.283848	 -0.965577
C	 -3.181085	 -0.079926	 0.364119
C	 -1.765924	 0.277073	 0.805136
H	 -3.327791	 -1.152017	 0.410903
H	 -3.905698	 0.375695	 1.036898
C	 -0.677594	 -0.417312	 -0.014550
H	 -1.637766	 1.358238	 0.744969
H	 -1.659588	 0.017670	 1.857098
C	 0.135867	 0.551520	 -0.875261
H	 -1.134414	 -1.173380	 -0.645728
H	 -0.009029	 -0.947698	 0.661545
C	 1.227113	 -0.150084	 -1.688292
H	 -0.538538	 1.084790	 -1.541009
H	 0.594266	 1.305765	 -0.236833
C	 2.127047	 0.789364	 -2.499287
H	 0.766535	 -0.873187	 -2.359623
H	 1.852487	 -0.724600	 -1.008104
C	 1.413971	 1.535015	 -3.628859
H	 2.938693	 0.205080	 -2.926059
H	 2.592395	 1.509180	 -1.828826
H	 0.928105	 0.840301	 -4.308891
H	 2.119259	 2.123564	 -4.207666
H	 0.656213	 2.214313	 -3.252666

	symmetry c1
}
set optking {
	frozen_dihedral = ("
		11 7 4 3
	")
}

ee = optimize('scf')
oeprop('DIPOLE', 'QUADRUPOLE', 'MULLIKEN_CHARGES')
f=open( 'psi4out.xyz', 'w' )
f.write( "24  " )
f.write( str(ee) + "\n" )
f.write( MOL.save_string_xyz() )
f.close()
--------------------------------------------------------------------------

    Molecular point group: c1
  Charge       = 0
  Multiplicity = 1
  Basis Set: 6-31G*
  Basis Set:
  @DF-RHF Final Energy:  -349.24276534201749
    Total Energy =                       -349.2427653420177194
    Molecular point group: c1
  Basis Set: 6-31G*
  Basis Set:
  Basis Set: 6-31G*
  Basis Set:
  @DF-RHF Final Energy:  -349.24301874434531
    Total Energy =                       -349.2430187443454201
  Basis Set: 6-31G*
  Basis Set:
  Basis Set: 6-31G*
  Basis Set:
  @DF-RHF Final Energy:  -349.24313470357185
    Total Energy =                       -349.2431347035717408
  Basis Set: 6-31G*
  Basis Set:
  Basis Set: 6-31G*
  Basis Set:
  @DF-RHF Final Energy:  -349.24313785186376
    Total Energy =                       -349.2431378518639917
  Basis Set: 6-31G*
  Basis Set:
  Basis Set: 6-31G*
  Basis Set:
  @DF-RHF Final Energy:  -349.24314237098724
    Total Energy =                       -349.2431423709872433
  Basis Set: 6-31G*
  Basis Set:
  Basis Set: 6-31G*
  Basis Set:
  @DF-RHF Final Energy:  -349.24314448502014
    Total Energy =                       -349.2431444850203661
  Basis Set: 6-31G*
  Basis Set:
  Charge       = 0
  Multiplicity = 1
  Basis Set: 6-31G*
  Basis Set:

    Orbital Energies (a.u.)
    -----------------------

    Doubly Occupied:

       1A    -20.554291     2A    -11.267926     3A    -11.217043
       4A    -11.212921     5A    -11.211650     6A    -11.210562
       7A    -11.209836     8A    -11.205883     9A     -1.360680
      10A     -1.086339    11A     -1.046055    12A     -0.984905
      13A     -0.913886    14A     -0.850264    15A     -0.800749
      16A     -0.775248    17A     -0.680040    18A     -0.648680
      19A     -0.629978    20A     -0.615239    21A     -0.599624
      22A     -0.578450    23A     -0.556571    24A     -0.531436
      25A     -0.527949    26A     -0.509190    27A     -0.491270
      28A     -0.479979    29A     -0.466645    30A     -0.457816
      31A     -0.452265    32A     -0.443139    33A     -0.420540

  @DF-RHF Final Energy:  -349.24314357446639

   => Energetics <=

    Nuclear Repulsion Energy =            391.4325498252830471
    One-Electron Energy =               -1249.3572836051175727
    Two-Electron Energy =                 508.6815902053681953
    DFT Exchange-Correlation Energy =       0.0000000000000000
    Empirical Dispersion Energy =           0.0000000000000000
    PCM Polarization Energy =               0.0000000000000000
    EFP Energy =                            0.0000000000000000
    Total Energy =                       -349.2431435744662735
    Molecular point group: c1
  Basis Set: 6-31G*
  Basis Set:

  -Total Gradient:
     Atom            X                  Y                   Z
    ------   -----------------  -----------------  -----------------
       1       -0.000010116155     0.000030318620    -0.000041987071
       2       -0.000022353860     0.000123928122     0.000099799410
       3       -0.000031882439    -0.000986138232     0.000699777280
       4       -0.000046135400     0.001519552359    -0.001249678259
       5        0.000005880351    -0.000031230709     0.000023363258
       6       -0.000015992686    -0.000006121160    -0.000035148931
       7        0.000189002109    -0.001579625652     0.001559545917
       8       -0.000026158910     0.000010905345     0.000017773987
       9       -0.000067998516     0.000041575546    -0.000009063167
      10        0.000041120865    -0.000126824870     0.000071275789
      11       -0.000038496684     0.001018379426    -0.001041496202
      12        0.000055993303    -0.000012482100    -0.000031356293
      13       -0.000005114408     0.000005468292    -0.000086113051
      14       -0.000012193558     0.000008465694     0.000027443989
      15       -0.000006181967    -0.000035263856     0.000024586475
      16       -0.000014234591     0.000013139181     0.000004939165
      17       -0.000010256696    -0.000005944476    -0.000004954611
      18       -0.000007228145     0.000014173708    -0.000015708722
      19        0.000015642841    -0.000008462043    -0.000015959251
      20        0.000007740994     0.000000046568     0.000013967826
      21       -0.000015838770     0.000013577911     0.000006874632
      22       -0.000010550554    -0.000003911655    -0.000004753086
      23        0.000001748607    -0.000009125999    -0.000005376981
      24        0.000023604274     0.000005599980    -0.000007752103

  **** Optimization is complete! (in 7 steps) ****
    Final optimized geometry and variables:
    Molecular point group: c1

    Geometry (in Angstrom), charge = 0, multiplicity = 1:

    H           -2.803371551294     0.850806145027    -0.009668972980
    O           -2.834873014664    -0.091366337118     0.082483655740
    C           -2.608984854241    -0.434411271282     1.426401332468
    C           -1.202280089621    -0.085199590013     1.897786691666
    H           -2.766326642559    -1.504074091252     1.486490146749
    H           -3.348591022386     0.039503825074     2.069632276155
    C           -0.089947937587    -0.775632266961     1.079770616520
    H           -1.076351248128     0.996220123870     1.864115270818
    H           -1.128468349305    -0.358255440443     2.947765639890
    C            0.720146477326     0.191561081970     0.212092977719
    H           -0.534417120151    -1.522715809220     0.428863792930
    H            0.586309089641    -1.303853182449     1.746397412580
    C            1.797532786275    -0.512563211698    -0.615685111537
    H            0.035910827321     0.724141245237    -0.442593420797
    H            1.188710977616     0.941540655517     0.848481943768
    C            2.692905119610     0.425329345565    -1.433615264780
    H            1.324603313330    -1.229858014430    -1.284410067655
    H            2.428282722636    -1.093116346518     0.054875031571
    C            1.970591298016     1.176089248571    -2.553845720526
    H            3.497874592201    -0.160928700064    -1.870181129133
    H            3.167985261470     1.141819538598    -0.766290860459
    H            1.473077651905     0.485015849698    -3.228876334212
    H            2.672006116844     1.762349561945    -3.139742132471
    H            1.220302194379     1.857993258783    -2.167597904178

  Mulliken Charges: (a.u.)
   Center  Symbol    Alpha    Beta     Spin     Total
       1     H     0.28302  0.28302  0.00000  0.43396
       2     O     4.36850  4.36850  0.00000 -0.73701
       3     C     2.99905  2.99905  0.00000  0.00189
       4     C     3.17174  3.17174  0.00000 -0.34348
       5     H     0.41576  0.41576  0.00000  0.16847
       6     H     0.42877  0.42877  0.00000  0.14246
       7     C     3.15256  3.15256  0.00000 -0.30511
       8     H     0.42485  0.42485  0.00000  0.15030
       9     H     0.41972  0.41972  0.00000  0.16056
      10     C     3.15475  3.15475  0.00000 -0.30951
      11     H     0.41186  0.41186  0.00000  0.17628
      12     H     0.42223  0.42223  0.00000  0.15555
      13     C     3.15367  3.15367  0.00000 -0.30734
      14     H     0.42074  0.42074  0.00000  0.15852
      15     H     0.42644  0.42644  0.00000  0.14712
      16     C     3.15224  3.15224  0.00000 -0.30448
      17     H     0.42202  0.42202  0.00000  0.15596
      18     H     0.42336  0.42336  0.00000  0.15328
      19     C     3.24052  3.24052  0.00000 -0.48103
      20     H     0.42139  0.42139  0.00000  0.15722
      21     H     0.42431  0.42431  0.00000  0.15138
      22     H     0.42106  0.42106  0.00000  0.15789
      23     H     0.42006  0.42006  0.00000  0.15987
      24     H     0.42137  0.42137  0.00000  0.15725

   Total alpha = 33.00000, Total beta = 33.00000, Total charge = -0.00000
