  ==> Input File <==

--------------------------------------------------------------------------
set {
	reference rhf
	basis 6-31G*
}

set_num_threads( 4 )
memory 2 gb

molecule MOL {
0 1

O	 -0.873217	 -1.376257	 -0.795926
C	 -0.630097	 -0.247328	 -0.462589
C	 -1.729221	 0.798614	 -0.458241
N	 0.623947	 0.147590	 -0.102813
H	 -1.494639	 1.624466	 -1.120830
H	 -2.633583	 0.317550	 -0.798467
H	 -1.893286	 1.200729	 0.535724
C	 1.665360	 -0.855771	 0.000151
C	 0.926333	 1.419683	 0.515724
H	 2.465253	 -0.618490	 -0.692587
H	 1.257730	 -1.821716	 -0.242189
H	 2.081488	 -0.891645	 1.004627
H	 1.919972	 1.731708	 0.216791
H	 0.235921	 2.187041	 0.203593
H	 0.906928	 1.357960	 1.602290

	symmetry c1
}
set optking {
	frozen_dihedral = ("
		2 4 8 10
	")
}

ee = optimize('scf')
oeprop('DIPOLE', 'QUADRUPOLE', 'MULLIKEN_CHARGES')
f=open( 'psi4out.xyz', 'w' )
f.write( "15  " )
f.write( str(ee) + "\n" )
f.write( MOL.save_string_xyz() )
f.close()
--------------------------------------------------------------------------

    Molecular point group: c1
  Charge       = 0
  Multiplicity = 1
  Basis Set: 6-31G*
  Basis Set:
  @DF-RHF Final Energy:  -286.02919539118926
    Total Energy =                       -286.0291953911892051
    Molecular point group: c1
  Basis Set: 6-31G*
  Basis Set:
  Basis Set: 6-31G*
  Basis Set:
  @DF-RHF Final Energy:  -286.02947680274485
    Total Energy =                       -286.0294768027447390
  Basis Set: 6-31G*
  Basis Set:
  Basis Set: 6-31G*
  Basis Set:
  @DF-RHF Final Energy:  -286.02923771189990
    Total Energy =                       -286.0292377119000093
  Basis Set: 6-31G*
  Basis Set:
  Basis Set: 6-31G*
  Basis Set:
  @DF-RHF Final Energy:  -286.02963198440085
    Total Energy =                       -286.0296319844009076
  Basis Set: 6-31G*
  Basis Set:
  @DF-RHF Final Energy:  -286.02964917733317
    Total Energy =                       -286.0296491773332832
  @DF-RHF Final Energy:  -286.02965928986634
    Total Energy =                       -286.0296592898664585
  @DF-RHF Final Energy:  -286.02966820486711
    Total Energy =                       -286.0296682048671073
  @DF-RHF Final Energy:  -286.02967983666690
    Total Energy =                       -286.0296798366671283
  @DF-RHF Final Energy:  -286.02969104421447
    Total Energy =                       -286.0296910442145304
  Basis Set: 6-31G*
  Basis Set:
  @DF-RHF Final Energy:  -286.02969704343474
    Total Energy =                       -286.0296970434346804
  Basis Set: 6-31G*
  Basis Set:
  Basis Set: 6-31G*
  Basis Set:
  @DF-RHF Final Energy:  -286.02970057450557
    Total Energy =                       -286.0297005745055685
  Basis Set: 6-31G*
  Basis Set:
  Basis Set: 6-31G*
  Basis Set:
  @DF-RHF Final Energy:  -286.02970261617634
    Total Energy =                       -286.0297026161762801
  Basis Set: 6-31G*
  Basis Set:
  Charge       = 0
  Multiplicity = 1
  Basis Set: 6-31G*
  Basis Set:

    Orbital Energies (a.u.)
    -----------------------

    Doubly Occupied:

       1A    -20.512008     2A    -15.584831     3A    -11.342144
       4A    -11.266724     5A    -11.247648     6A    -11.228290
       7A     -1.382748     8A     -1.244123     9A     -1.014173
      10A     -0.973198    11A     -0.920526    12A     -0.738792
      13A     -0.681306    14A     -0.659504    15A     -0.651477
      16A     -0.590500    17A     -0.575725    18A     -0.566306
      19A     -0.560452    20A     -0.547567    21A     -0.529821
      22A     -0.504035    23A     -0.408839    24A     -0.365076

  @DF-RHF Final Energy:  -286.02970355553350

   => Energetics <=

    Nuclear Repulsion Energy =            252.1936844302661882
    One-Electron Energy =                -888.2551473866583365
    Two-Electron Energy =                 350.0317594008585047
    DFT Exchange-Correlation Energy =       0.0000000000000000
    Empirical Dispersion Energy =           0.0000000000000000
    PCM Polarization Energy =               0.0000000000000000
    EFP Energy =                            0.0000000000000000
    Total Energy =                       -286.0297035555336151
    Molecular point group: c1
  Basis Set: 6-31G*
  Basis Set:

  -Total Gradient:
     Atom            X                  Y                   Z
    ------   -----------------  -----------------  -----------------
       1       -0.000001152105    -0.000025658110    -0.000006753989
       2        0.000053148569     0.000038050711    -0.000013413910
       3       -0.000028636037    -0.000004245783    -0.000005645767
       4       -0.000056656190    -0.000000384985    -0.000000020171
       5       -0.000010706857    -0.000005092636    -0.000004704422
       6        0.000006537470    -0.000003116354    -0.000001222458
       7       -0.000011003617    -0.000003982851    -0.000003421406
       8        0.000014737425     0.000058039285     0.000020687509
       9       -0.000002318908    -0.000024050837     0.000032730070
      10       -0.000019709621    -0.000015615188    -0.000034070785
      11       -0.000008023743    -0.000000356310     0.000004183505
      12       -0.000000674518     0.000005842452     0.000006488581
      13        0.000002700197    -0.000011090477    -0.000009915890
      14        0.000047972539    -0.000019883180    -0.000002974494
      15        0.000013785395     0.000011544269     0.000018053627

  **** Optimization is complete! (in 13 steps) ****
    Final optimized geometry and variables:
    Molecular point group: c1

    Geometry (in Angstrom), charge = 0, multiplicity = 1:

    O           -0.871116369460    -1.342803821694    -0.646975264766
    C           -0.637964463185    -0.228721541343    -0.258538783145
    C           -1.730554837013     0.824696243399    -0.284012063846
    N            0.587227173921     0.132358914657     0.210243970159
    H           -1.463242714687     1.661886585711    -0.919552873130
    H           -2.618963444045     0.354063020486    -0.676554984268
    H           -1.940969466794     1.207430141887     0.708636994005
    C            1.651667994263    -0.848949100702     0.256647285109
    C            0.947638627499     1.443049210326     0.699875841364
    H            2.489464761719    -0.526124907975    -0.355250091729
    H            1.285985492386    -1.791507243186    -0.110972072290
    H            2.004562766281    -0.974136944004     1.276660509819
    H            1.786663497923     1.838097977703     0.134141058759
    H            0.131238948721     2.140682456471     0.616247296804
    H            1.243423953615     1.391821987087     1.744310737452

  Mulliken Charges: (a.u.)
   Center  Symbol    Alpha    Beta     Spin     Total
       1     O     4.30654  4.30654  0.00000 -0.61307
       2     C     2.62205  2.62205  0.00000  0.75590
       3     C     3.29929  3.29929  0.00000 -0.59858
       4     N     3.82498  3.82498  0.00000 -0.64996
       5     H     0.40747  0.40747  0.00000  0.18506
       6     H     0.38992  0.38992  0.00000  0.22016
       7     H     0.40764  0.40764  0.00000  0.18472
       8     C     3.14644  3.14644  0.00000 -0.29289
       9     C     3.14079  3.14079  0.00000 -0.28158
      10     H     0.41946  0.41946  0.00000  0.16109
      11     H     0.38168  0.38168  0.00000  0.23664
      12     H     0.41972  0.41972  0.00000  0.16055
      13     H     0.41364  0.41364  0.00000  0.17271
      14     H     0.40629  0.40629  0.00000  0.18743
      15     H     0.41409  0.41409  0.00000  0.17182

   Total alpha = 24.00000, Total beta = 24.00000, Total charge =  0.00000
