                              Psi4 1.0.54 Driver

  ==> Input File <==

--------------------------------------------------------------------------
set {
	reference rhf
	basis cc-pvtz
}

set_num_threads( 4 )
memory 2 gb

molecule MOL {
0 1

O	 1.427442	 0.796163	 -0.930968
C	 1.704209	 0.119472	 -0.000093
C	 0.976039	 0.105312	 1.319456
O	 2.715427	 -0.733672	 0.000025
C	 -0.200496	 1.068777	 1.381289
H	 0.657349	 -0.916283	 1.498979
H	 1.706165	 0.326446	 2.091115
C	 -0.913598	 1.028478	 2.729577
H	 -0.899560	 0.830460	 0.587697
H	 0.150447	 2.074618	 1.180259
C	 -2.096621	 1.988851	 2.810878
H	 -1.260839	 0.016548	 2.926229
H	 -0.206259	 1.265237	 3.521319
C	 -2.809666	 1.948264	 4.158220
H	 -2.804211	 1.752680	 2.021133
H	 -1.750683	 3.000088	 2.616235
H	 -3.197772	 0.956648	 4.366323
H	 -3.643212	 2.640628	 4.182003
H	 -2.136022	 2.214304	 4.966095
C	 4.020999	 -0.192556	 0.000019
H	 4.182809	 0.412891	 -0.879449
H	 4.692590	 -1.035653	 0.000152
H	 4.182726	 0.413087	 0.879368

	symmetry c1
}
set optking {
	frozen_dihedral = ("
		1 2 4 20
	")
}

ee,wfn = optimize('scf', return_wfn=True)
oeprop( wfn, 'DIPOLE', 'QUADRUPOLE', 'MULLIKEN_CHARGES')
f=open( 'psi4out.xyz', 'w' )
f.write( "23  " )
f.write( str(ee) + "\n" )
f.write( MOL.save_string_xyz() )
f.close()
--------------------------------------------------------------------------

    Molecular point group: c1
  Charge       = 0
  Multiplicity = 1
  Basis Set: CC-PVTZ
  Basis Set:
  @DF-RHF Final Energy:  -423.11389549926105
    Total Energy =                       -423.1138954992610479
    Molecular point group: c1
  Basis Set: CC-PVTZ
  Basis Set:
  Basis Set: CC-PVTZ
  Basis Set:
  @DF-RHF Final Energy:  -423.04388117825226
    Total Energy =                       -423.0438811782518087
  Basis Set: CC-PVTZ
  Basis Set:
  Basis Set: CC-PVTZ
  Basis Set:
  @DF-RHF Final Energy:  -423.10767496546640
    Total Energy =                       -423.1076749654664582
  Basis Set: CC-PVTZ
  Basis Set:
  Basis Set: CC-PVTZ
  Basis Set:
  @DF-RHF Final Energy:  -423.11440345692745
    Total Energy =                       -423.1144034569279029
  Basis Set: CC-PVTZ
  Basis Set:
  Basis Set: CC-PVTZ
  Basis Set:
  @DF-RHF Final Energy:  -423.11329904818518
    Total Energy =                       -423.1132990481854677
  Basis Set: CC-PVTZ
  Basis Set:
  Basis Set: CC-PVTZ
  Basis Set:
  @DF-RHF Final Energy:  -423.11498572079518
    Total Energy =                       -423.1149857207950618
  Basis Set: CC-PVTZ
  Basis Set:
  Basis Set: CC-PVTZ
  Basis Set:
  @DF-RHF Final Energy:  -423.11503078324341
    Total Energy =                       -423.1150307832438102
  Basis Set: CC-PVTZ
  Basis Set:
  Charge       = 0
  Multiplicity = 1
  Basis Set: CC-PVTZ
  Basis Set:

    Orbital Energies (a.u.)
    -----------------------

    Doubly Occupied:

       1A    -20.579542     2A    -20.544077     3A    -11.367295
       4A    -11.286059     5A    -11.236779     6A    -11.219233
       7A    -11.217647     8A    -11.215912     9A    -11.208917
      10A     -1.462583    11A     -1.368514    12A     -1.095786
      13A     -1.043533    14A     -0.982607    15A     -0.939399
      16A     -0.849268    17A     -0.797255    18A     -0.766266
      19A     -0.698138    20A     -0.680917    21A     -0.676060
      22A     -0.650506    23A     -0.615642    24A     -0.607671
      25A     -0.579056    26A     -0.569144    27A     -0.555085
      28A     -0.533675    29A     -0.510480    30A     -0.505586
      31A     -0.487237    32A     -0.476974    33A     -0.470324
      34A     -0.467604    35A     -0.453451    36A     -0.434194

  @DF-RHF Final Energy:  -423.11503444694131

   => Energetics <=

    Nuclear Repulsion Energy =            452.7124731245356770
    One-Electron Energy =               -1473.3501919094421737
    Two-Electron Energy =                 597.5226843379647335
    DFT Exchange-Correlation Energy =       0.0000000000000000
    Empirical Dispersion Energy =           0.0000000000000000
    PCM Polarization Energy =               0.0000000000000000
    EFP Energy =                            0.0000000000000000
    Total Energy =                       -423.1150344469417632
    Molecular point group: c1
  Basis Set: CC-PVTZ
  Basis Set:

  -Total Gradient:
     Atom            X                  Y                   Z
    ------   -----------------  -----------------  -----------------
       1       -0.003280165661    -0.004638328935    -0.003979730931
       2        0.004863953314     0.006035433877     0.008341137842
       3       -0.000044286950    -0.000037466357    -0.000056860531
       4       -0.001269970358    -0.000079271171    -0.009597962962
       5       -0.000004184402     0.000050964641     0.000034948612
       6        0.000008289772     0.000020999969     0.000007075000
       7       -0.000009137576     0.000013982356    -0.000022874940
       8       -0.000034810249    -0.000033924133    -0.000022023938
       9        0.000018423463    -0.000001281673     0.000031633425
      10       -0.000009310767    -0.000004762847    -0.000015674760
      11       -0.000003346270     0.000031695727     0.000046978423
      12        0.000000555259    -0.000009602361     0.000017547729
      13       -0.000026174891     0.000009151347    -0.000030624511
      14       -0.000012122630    -0.000009618691    -0.000012055068
      15        0.000023013932    -0.000005282909     0.000025028691
      16        0.000000426337     0.000004916083    -0.000013187324
      17        0.000003136915    -0.000000181392     0.000012274512
      18       -0.000006234398    -0.000002196125    -0.000005233265
      19        0.000006151412    -0.000005021657    -0.000018460991
      20       -0.000170782487    -0.001334054561     0.005218006664
      21       -0.000025379465     0.000013870449    -0.000008198616
      22        0.000032587588    -0.000006195622     0.000011728781
      23       -0.000060631883    -0.000013826014     0.000036528157

  **** Optimization is complete! (in 8 steps) ****
    Final optimized geometry and variables:
    Molecular point group: c1

    Geometry (in Angstrom), charge = 0, multiplicity = 1:

    O            1.080961161797     0.862387223987    -1.887464488942
    C            1.372814546653     0.023963810643    -1.113830636971
    C            0.500019659330    -0.462040928621     0.012216993609
    O            2.519843836651    -0.675309586945    -1.214027377764
    C           -0.848527980839     0.236241600625     0.106283633422
    H            0.384985392341    -1.532864364029    -0.122494290457
    H            1.069064151621    -0.345631378828     0.930857975910
    C           -1.699962529042    -0.292276183428     1.256946206848
    H           -1.378511055323     0.112238466113    -0.831247803509
    H           -0.691724528418     1.302716966012     0.223657829581
    C           -3.057358122623     0.396513189237     1.363968557789
    H           -1.850959954895    -1.362439520569     1.134413671672
    H           -1.161594564786    -0.167542055647     2.193942072386
    C           -3.908295398463    -0.132304006136     2.513547682468
    H           -3.596343502108     0.271530080425     0.429182467027
    H           -2.907717149066     1.465385672375     1.487745812147
    H           -4.104243752666    -1.193379316802     2.399996476917
    H           -4.864024055589     0.376669825515     2.560530219940
    H           -3.410676483152     0.010326755256     3.467107207575
    C            3.717009014802     0.022894795187    -0.948369677603
    H            3.815342311087     0.880806995786    -1.599010883701
    H            4.525941894514    -0.665751400097    -1.130689426034
    H            3.749050381381     0.343680903674     0.087069743973

  Mulliken Charges: (a.u.)
   Center  Symbol    Alpha    Beta     Spin     Total
       1     O     4.17473  4.17473  0.00000 -0.34946
       2     C     2.79037  2.79037  0.00000  0.41926
       3     C     3.11243  3.11243  0.00000 -0.22486
       4     O     4.16862  4.16862  0.00000 -0.33723
       5     C     3.08480  3.08480  0.00000 -0.16961
       6     H     0.43675  0.43675  0.00000  0.12651
       7     H     0.44457  0.44457  0.00000  0.11087
       8     C     3.08883  3.08883  0.00000 -0.17765
       9     H     0.44484  0.44484  0.00000  0.11031
      10     H     0.44691  0.44691  0.00000  0.10618
      11     C     3.08417  3.08417  0.00000 -0.16835
      12     H     0.45505  0.45505  0.00000  0.08991
      13     H     0.45612  0.45612  0.00000  0.08776
      14     C     3.15035  3.15035  0.00000 -0.30069
      15     H     0.45281  0.45281  0.00000  0.09439
      16     H     0.45335  0.45335  0.00000  0.09331
      17     H     0.45507  0.45507  0.00000  0.08985
      18     H     0.44752  0.44752  0.00000  0.10496
      19     H     0.45549  0.45549  0.00000  0.08902
      20     C     3.03566  3.03566  0.00000 -0.07132
      21     H     0.44982  0.44982  0.00000  0.10036
      22     H     0.44458  0.44458  0.00000  0.11084
      23     H     0.46717  0.46717  0.00000  0.06565

   Total alpha = 36.00000, Total beta = 36.00000, Total charge = -0.00000

*** Psi4 exiting successfully. Buy a developer a beer!
