  ==> Input File <==

--------------------------------------------------------------------------
set {
	reference rhf
	basis 6-31G*
}

set_num_threads( 4 )
memory 2 gb

molecule MOL {
0 1

H	 2.752225	 1.281957	 0.897739
O	 3.475704	 1.015548	 0.349399
C	 3.562612	 -0.386612	 0.328245
C	 2.456445	 -1.045194	 -0.488695
H	 4.525818	 -0.615209	 -0.109536
H	 3.566402	 -0.783516	 1.342756
C	 1.050516	 -0.822746	 0.074111
H	 2.506570	 -0.665800	 -1.506003
H	 2.661446	 -2.113330	 -0.537963
C	 -0.031614	 -1.540952	 -0.737057
H	 0.839544	 0.242772	 0.097070
H	 1.014157	 -1.172061	 1.106098
C	 -1.449679	 -1.421197	 -0.166891
H	 -0.021639	 -1.165388	 -1.758673
H	 0.226121	 -2.596090	 -0.799965
C	 -2.037799	 -0.007733	 -0.193645
H	 -2.103311	 -2.079418	 -0.735510
H	 -1.458919	 -1.796486	 0.855318
C	 -3.489788	 0.042957	 0.286558
H	 -1.981954	 0.385204	 -1.207840
H	 -1.440233	 0.658050	 0.424377
C	 -4.216917	 1.317354	 -0.141063
H	 -4.025645	 -0.823308	 -0.095450
H	 -3.513059	 -0.038752	 1.371301
H	 -4.239342	 1.411634	 -1.223113
H	 -5.243387	 1.322503	 0.212445
H	 -3.726170	 2.201406	 0.256408

	symmetry c1
}
set optking {
	frozen_dihedral = ("
		20 16 19 22
	")
}

ee = optimize('scf')
oeprop('DIPOLE', 'QUADRUPOLE', 'MULLIKEN_CHARGES')
f=open( 'psi4out.xyz', 'w' )
f.write( "27  " )
f.write( str(ee) + "\n" )
f.write( MOL.save_string_xyz() )
f.close()
--------------------------------------------------------------------------

    Molecular point group: c1
  Charge       = 0
  Multiplicity = 1
  Basis Set: 6-31G*
  Basis Set:
  @DF-RHF Final Energy:  -388.28049040465629
    Total Energy =                       -388.2804904046565753
    Molecular point group: c1
  Basis Set: 6-31G*
  Basis Set:
  Basis Set: 6-31G*
  Basis Set:
  @DF-RHF Final Energy:  -388.28057467456182
    Total Energy =                       -388.2805746745617625
  Basis Set: 6-31G*
  Basis Set:
  Basis Set: 6-31G*
  Basis Set:
  @DF-RHF Final Energy:  -388.28064182476515
    Total Energy =                       -388.2806418247648708
  Basis Set: 6-31G*
  Basis Set:
  Basis Set: 6-31G*
  Basis Set:
  @DF-RHF Final Energy:  -388.28064310203524
    Total Energy =                       -388.2806431020351283
  Basis Set: 6-31G*
  Basis Set:
  Basis Set: 6-31G*
  Basis Set:
  @DF-RHF Final Energy:  -388.28065092601224
    Total Energy =                       -388.2806509260119583
  Basis Set: 6-31G*
  Basis Set:
  Basis Set: 6-31G*
  Basis Set:
  @DF-RHF Final Energy:  -388.28065396620337
    Total Energy =                       -388.2806539662041132
  Basis Set: 6-31G*
  Basis Set:
  Charge       = 0
  Multiplicity = 1
  Basis Set: 6-31G*
  Basis Set:

    Orbital Energies (a.u.)
    -----------------------

    Doubly Occupied:

       1A    -20.552346     2A    -11.267093     3A    -11.219857
       4A    -11.217396     5A    -11.216069     6A    -11.215966
       7A    -11.215257     8A    -11.214183     9A    -11.209454
      10A     -1.359100    11A     -1.095027    12A     -1.061291
      13A     -1.011599    14A     -0.948525    15A     -0.888112
      16A     -0.820328    17A     -0.801332    18A     -0.778886
      19A     -0.693778    20A     -0.650265    21A     -0.639348
      22A     -0.614495    23A     -0.598378    24A     -0.583355
      25A     -0.581124    26A     -0.553580    27A     -0.541788
      28A     -0.529642    29A     -0.507522    30A     -0.492343
      31A     -0.484205    32A     -0.476505    33A     -0.467896
      34A     -0.461013    35A     -0.451644    36A     -0.441839
      37A     -0.422911

  @DF-RHF Final Energy:  -388.28065443396827

   => Energetics <=

    Nuclear Repulsion Energy =            459.3490897694031219
    One-Electron Energy =               -1436.6925872516749223
    Two-Electron Energy =                 589.0628430483036482
    DFT Exchange-Correlation Energy =       0.0000000000000000
    Empirical Dispersion Energy =           0.0000000000000000
    PCM Polarization Energy =               0.0000000000000000
    EFP Energy =                            0.0000000000000000
    Total Energy =                       -388.2806544339681523
    Molecular point group: c1
  Basis Set: 6-31G*
  Basis Set:

  -Total Gradient:
     Atom            X                  Y                   Z
    ------   -----------------  -----------------  -----------------
       1        0.000003359659    -0.000004113792    -0.000000392533
       2        0.000013239490     0.000004573502    -0.000006274065
       3       -0.000013313799     0.000003444008     0.000014718222
       4        0.000002316273     0.000017015929    -0.000011704211
       5       -0.000000940435     0.000004023410     0.000001034561
       6        0.000001703457    -0.000001406649     0.000001726123
       7        0.000015916345    -0.000020725453     0.000021046868
       8       -0.000004423346    -0.000002852155    -0.000008429136
       9       -0.000004404436     0.000005807265     0.000003263524
      10       -0.000009836811     0.000015674117    -0.000018270632
      11        0.000011090588    -0.000020809643    -0.000011451526
      12        0.000006248957    -0.000000131856     0.000017419401
      13        0.000012990504    -0.000000246761     0.000019767296
      14        0.000003190069    -0.000003353541    -0.000006411642
      15       -0.000013030937     0.000002355498    -0.000000156866
      16       -0.001038590363    -0.004209371321    -0.002181932320
      17        0.000007584419     0.000000594519    -0.000003750784
      18       -0.000004124050    -0.000002315364     0.000002184915
      19        0.001257329576     0.002283272322     0.003026707899
      20        0.000573247566     0.003062097822     0.001132137957
      21       -0.000005609217    -0.000015911577    -0.000003109785
      22       -0.000809241356    -0.001120728121    -0.001987869407
      23        0.000003026902     0.000006156120    -0.000003549183
      24       -0.000004088281    -0.000001492627     0.000004483784
      25       -0.000009947414     0.000001327370    -0.000002440184
      26        0.000002309731     0.000002319762     0.000005718438
      27        0.000003996903    -0.000005202780    -0.000004466714

  **** Optimization is complete! (in 7 steps) ****
    Final optimized geometry and variables:
    Molecular point group: c1

    Geometry (in Angstrom), charge = 0, multiplicity = 1:

    H            2.773258959452     1.559296172317     0.982877317389
    O            3.499973173031     1.297820063589     0.436442200715
    C            3.590924920540    -0.103945438981     0.408697006331
    C            2.491255208972    -0.761432018570    -0.417858017474
    H            4.557170094504    -0.327363711097    -0.024992211886
    H            3.590391478513    -0.506087752025     1.421147870264
    C            1.081603398373    -0.545757012212     0.138191776838
    H            2.545981851126    -0.376816116539    -1.432961641977
    H            2.699546434422    -1.828716628883    -0.471317230281
    C            0.006087290575    -1.262198409504    -0.683432465319
    H            0.868354838782     0.519095760985     0.166353942110
    H            1.040206548251    -0.901344378326     1.167834390678
    C           -1.417121172330    -1.145006714616    -0.125454841783
    H            0.024340854906    -0.885042085947    -1.704382948223
    H            0.265004730381    -2.317046041149    -0.745956485251
    C           -2.017692365942     0.261043333283    -0.181347591524
    H           -2.061434799169    -1.818047065313    -0.686918974286
    H           -1.431060947056    -1.502674000453     0.903214090634
    C           -3.449968126551     0.331258149950     0.360520428663
    H           -1.996746654476     0.635602557156    -1.203594597467
    H           -1.401111300253     0.952256523361     0.388927396736
    C           -4.186276984431     1.603911392918    -0.056740636515
    H           -4.013045516398    -0.528256616199     0.002141932074
    H           -3.432719946208     0.250481428376     1.444765195674
    H           -4.279922357502     1.660666340186    -1.137219972657
    H           -5.186028361932     1.637006214440     0.365234523180
    H           -3.658524867121     2.494028116422     0.275349089479

  Mulliken Charges: (a.u.)
   Center  Symbol    Alpha    Beta     Spin     Total
       1     H     0.27991  0.27991  0.00000  0.44018
       2     O     4.37092  4.37092  0.00000 -0.74184
       3     C     2.99740  2.99740  0.00000  0.00520
       4     C     3.16093  3.16093  0.00000 -0.32186
       5     H     0.41443  0.41443  0.00000  0.17115
       6     H     0.43204  0.43204  0.00000  0.13593
       7     C     3.16317  3.16317  0.00000 -0.32633
       8     H     0.41494  0.41494  0.00000  0.17012
       9     H     0.42433  0.42433  0.00000  0.15134
      10     C     3.15235  3.15235  0.00000 -0.30470
      11     H     0.42301  0.42301  0.00000  0.15397
      12     H     0.42540  0.42540  0.00000  0.14921
      13     C     3.15367  3.15367  0.00000 -0.30734
      14     H     0.42149  0.42149  0.00000  0.15702
      15     H     0.42142  0.42142  0.00000  0.15716
      16     C     3.15349  3.15349  0.00000 -0.30697
      17     H     0.42093  0.42093  0.00000  0.15814
      18     H     0.42422  0.42422  0.00000  0.15156
      19     C     3.15144  3.15144  0.00000 -0.30288
      20     H     0.42319  0.42319  0.00000  0.15362
      21     H     0.42344  0.42344  0.00000  0.15312
      22     C     3.23948  3.23948  0.00000 -0.47896
      23     H     0.42329  0.42329  0.00000  0.15341
      24     H     0.42231  0.42231  0.00000  0.15539
      25     H     0.42115  0.42115  0.00000  0.15769
      26     H     0.41945  0.41945  0.00000  0.16110
      27     H     0.42221  0.42221  0.00000  0.15558

   Total alpha = 37.00000, Total beta = 37.00000, Total charge =  0.00000
