  ==> Input File <==

--------------------------------------------------------------------------
set {
	reference rhf
	basis 6-31G*
}

set_num_threads( 4 )
memory 2 gb

molecule MOL {
0 1

H	 -1.782959	 -0.782674	 0.661889
O	 -2.035884	 -0.060112	 0.102722
C	 -0.955155	 0.788182	 -0.092531
C	 0.353668	 0.040312	 -0.004810
H	 -0.985057	 1.290372	 -1.054184
H	 -0.974469	 1.533190	 0.688632
F	 0.394464	 -0.937475	 -0.903053
F	 1.368604	 0.853376	 -0.249821
F	 0.546173	 -0.502608	 1.179981

	symmetry c1
}
set optking {
	frozen_dihedral = ("
		1 2 3 5
	")
}

ee = optimize('scf')
oeprop('DIPOLE', 'QUADRUPOLE', 'MULLIKEN_CHARGES')
f=open( 'psi4out.xyz', 'w' )
f.write( "9  " )
f.write( str(ee) + "\n" )
f.write( MOL.save_string_xyz() )
f.close()
--------------------------------------------------------------------------

    Molecular point group: c1
  Charge       = 0
  Multiplicity = 1
  Basis Set: 6-31G*
  Basis Set:
  @DF-RHF Final Energy:  -450.65831992170308
    Total Energy =                       -450.6583199217031392
    Molecular point group: c1
  Basis Set: 6-31G*
  Basis Set:
  Basis Set: 6-31G*
  Basis Set:
  @DF-RHF Final Energy:  -450.66008456202348
    Total Energy =                       -450.6600845620233144
  Basis Set: 6-31G*
  Basis Set:
  Basis Set: 6-31G*
  Basis Set:
  @DF-RHF Final Energy:  -450.66049409605051
    Total Energy =                       -450.6604940960508543
  Basis Set: 6-31G*
  Basis Set:
  Basis Set: 6-31G*
  Basis Set:
  @DF-RHF Final Energy:  -450.66052143687739
    Total Energy =                       -450.6605214368775023
  Basis Set: 6-31G*
  Basis Set:
  Charge       = 0
  Multiplicity = 1
  Basis Set: 6-31G*
  Basis Set:

    Orbital Energies (a.u.)
    -----------------------

    Doubly Occupied:

       1A    -26.350622     2A    -26.349280     3A    -26.345112
       4A    -20.587719     5A    -11.506675     6A    -11.309742
       7A     -1.746575     8A     -1.645889     9A     -1.642373
      10A     -1.400037    11A     -1.050852    12A     -0.928160
      13A     -0.836259    14A     -0.834772    15A     -0.814354
      16A     -0.722665    17A     -0.717913    18A     -0.688660
      19A     -0.670056    20A     -0.667016    21A     -0.648686
      22A     -0.638097    23A     -0.621228    24A     -0.526182
      25A     -0.478572

  @DF-RHF Final Energy:  -450.66052521647430

   => Energetics <=

    Nuclear Repulsion Energy =            277.4225506394132026
    One-Electron Energy =               -1176.7111600604043815
    Two-Electron Energy =                 448.6280842045169379
    DFT Exchange-Correlation Energy =       0.0000000000000000
    Empirical Dispersion Energy =           0.0000000000000000
    PCM Polarization Energy =               0.0000000000000000
    EFP Energy =                            0.0000000000000000
    Total Energy =                       -450.6605252164742410
    Molecular point group: c1
  Basis Set: 6-31G*
  Basis Set:

  -Total Gradient:
     Atom            X                  Y                   Z
    ------   -----------------  -----------------  -----------------
       1        0.001136341500    -0.002099616950    -0.002924173297
       2       -0.000949837721     0.002057542569     0.003233563516
       3       -0.001930507572     0.002669940342     0.000889614019
       4       -0.000161242184    -0.000140941783     0.000275849218
       5        0.001688746456    -0.002554941185    -0.001147158957
       6        0.000010405283     0.000033916841    -0.000027476766
       7        0.000152396758     0.000008628982    -0.000150989379
       8        0.000018662596    -0.000082625332    -0.000074379296
       9        0.000035034884     0.000108096519    -0.000074849057

  **** Optimization is complete! (in 5 steps) ****
    Final optimized geometry and variables:
    Molecular point group: c1

    Geometry (in Angstrom), charge = 0, multiplicity = 1:

    H           -1.808871693625    -0.752533624945     0.726358023778
    O           -2.043573041959    -0.059583758798     0.123574702339
    C           -0.962024799820     0.783793793237    -0.102278937176
    C            0.352022578827     0.042366603833    -0.039590366341
    H           -1.048547311433     1.186515696248    -1.101177417705
    H           -0.919467985761     1.595358424957     0.615608781487
    F            0.460742260735    -0.864820426762    -0.992011633133
    F            1.366514232174     0.879196066387    -0.156137786665
    F            0.478897540825    -0.593693156529     1.120946673494

  Mulliken Charges: (a.u.)
   Center  Symbol    Alpha    Beta     Spin     Total
       1     H     0.27117  0.27117  0.00000  0.45767
       2     O     4.36853  4.36853  0.00000 -0.73705
       3     C     3.03241  3.03241  0.00000 -0.06481
       4     C     2.48051  2.48051  0.00000  1.03897
       5     H     0.39891  0.39891  0.00000  0.20218
       6     H     0.40863  0.40863  0.00000  0.18274
       7     F     4.67566  4.67566  0.00000 -0.35132
       8     F     4.67873  4.67873  0.00000 -0.35746
       9     F     4.68546  4.68546  0.00000 -0.37092

   Total alpha = 25.00000, Total beta = 25.00000, Total charge =  0.00000
