  ==> Input File <==

--------------------------------------------------------------------------
set {
	reference rhf
	basis 6-31G*
}

set_num_threads( 1 )
memory 2 gb

molecule MOL {
0 1

H	 3.463771	 0.168298	 -0.756243
C	 2.752674	 -0.045734	 0.033351
C	 1.322923	 0.120767	 -0.479465
H	 2.934561	 -1.059086	 0.377456
H	 2.958358	 0.631174	 0.856809
C	 0.306652	 -0.176050	 0.621399
H	 1.144658	 -0.551717	 -1.312180
H	 1.166477	 1.131798	 -0.836680
N	 -1.068537	 -0.011044	 0.085269
H	 0.372515	 -1.192590	 0.973735
H	 0.391664	 0.520566	 1.441230
O	 -1.589756	 -0.968005	 -0.398392
O	 -1.545972	 1.080850	 0.147315

	symmetry c1
}
set optking {
	frozen_dihedral = ("
		7 3 6 9
	")
}

ee = energy('scf')
oeprop('DIPOLE', 'QUADRUPOLE', 'MULLIKEN_CHARGES')
f=open( 'psi4out.xyz', 'w' )
f.write( "13  " )
f.write( str(ee) + "\n" )
f.write( MOL.save_string_xyz() )
f.close()
--------------------------------------------------------------------------

    Molecular point group: c1

    Geometry (in Angstrom), charge = 0, multiplicity = 1:

       Center              X                  Y                   Z               Mass
    ------------   -----------------  -----------------  -----------------  -----------------
           H          3.463796059474     0.167357108024    -0.756596100244     1.007825032070
           C          2.752699059474    -0.046674891976     0.032997899756    12.000000000000
           C          1.322948059474     0.119826108024    -0.479818100244    12.000000000000
           H          2.934586059474    -1.060026891976     0.377102899756     1.007825032070
           H          2.958383059474     0.630233108024     0.856455899756     1.007825032070
           C          0.306677059474    -0.176990891976     0.621045899756    12.000000000000
           H          1.144683059474    -0.552657891976    -1.312533100244     1.007825032070
           H          1.166502059474     1.130857108024    -0.837033100244     1.007825032070
           N         -1.068511940526    -0.011984891976     0.084915899756    14.003074004780
           H          0.372540059474    -1.193530891976     0.973381899756     1.007825032070
           H          0.391689059474     0.519625108024     1.440876899756     1.007825032070
           O         -1.589730940526    -0.968945891976    -0.398745100244    15.994914619560
           O         -1.545946940526     1.079909108024     0.146961899756    15.994914619560

  Charge       = 0
  Multiplicity = 1
  Basis Set: 6-31G*
  Basis Set:

    Orbital Energies (a.u.)
    -----------------------

    Doubly Occupied:

       1A    -20.600774     2A    -20.599896     3A    -15.846766
       4A    -11.299142     5A    -11.257650     6A    -11.240345
       7A     -1.630320     8A     -1.415837     9A     -1.135616
      10A     -1.028650    11A     -0.884278    12A     -0.833508
      13A     -0.758057    14A     -0.734032    15A     -0.722758
      16A     -0.672850    17A     -0.604596    18A     -0.589201
      19A     -0.551215    20A     -0.521606    21A     -0.515667
      22A     -0.483258    23A     -0.473687    24A     -0.447586

  @DF-RHF Final Energy:  -321.73556703302495

   => Energetics <=

    Nuclear Repulsion Energy =            247.3864462798420334
    One-Electron Energy =                -928.5494566631076623
    Two-Electron Energy =                 359.4274433502401962
    DFT Exchange-Correlation Energy =       0.0000000000000000
    Empirical Dispersion Energy =           0.0000000000000000
    PCM Polarization Energy =               0.0000000000000000
    EFP Energy =                            0.0000000000000000
    Total Energy =                       -321.7355670330254043

  Mulliken Charges: (a.u.)
   Center  Symbol    Alpha    Beta     Spin     Total
       1     H     0.40723  0.40723  0.00000  0.18554
       2     C     3.24806  3.24806  0.00000 -0.49612
       3     C     3.17315  3.17315  0.00000 -0.34629
       4     H     0.41443  0.41443  0.00000  0.17115
       5     H     0.41456  0.41456  0.00000  0.17088
       6     C     3.08215  3.08215  0.00000 -0.16429
       7     H     0.39932  0.39932  0.00000  0.20135
       8     H     0.39860  0.39860  0.00000  0.20279
       9     N     3.22414  3.22414  0.00000  0.55171
      10     H     0.38858  0.38858  0.00000  0.22283
      11     H     0.38848  0.38848  0.00000  0.22304
      12     O     4.23044  4.23044  0.00000 -0.46088
      13     O     4.23085  4.23085  0.00000 -0.46171

   Total alpha = 24.00000, Total beta = 24.00000, Total charge =  0.00000
