                              Psi4 1.0.54 Driver

  ==> Input File <==

--------------------------------------------------------------------------
set {
	reference rhf
	basis cc-pvtz
}

set_num_threads( 4 )
memory 2 gb

molecule MOL {
0 1

H	 -1.813403	 -1.482874	 -1.238679
N	 -1.107026	 -0.779588	 -1.283325
C	 -0.561396	 -0.500007	 0.035200
H	 -1.528238	 0.036699	 -1.675232
C	 0.575129	 0.507849	 -0.048832
H	 -0.182341	 -1.431606	 0.442212
H	 -1.312148	 -0.134483	 0.737467
C	 1.951750	 -0.141983	 0.035101
H	 0.478254	 1.061643	 -0.975981
H	 0.467676	 1.231891	 0.755499
H	 2.101550	 -0.848142	 -0.774949
H	 2.738260	 0.600794	 -0.026526
H	 2.078939	 -0.679792	 0.968824

	symmetry c1
}
set optking {
	frozen_dihedral = ("
		6 3 5 9
	")
}

ee,wfn = optimize('scf', return_wfn=True)
oeprop( wfn, 'DIPOLE', 'QUADRUPOLE', 'MULLIKEN_CHARGES')
f=open( 'psi4out.xyz', 'w' )
f.write( "13  " )
f.write( str(ee) + "\n" )
f.write( MOL.save_string_xyz() )
f.close()
--------------------------------------------------------------------------

    Molecular point group: c1
  Charge       = 0
  Multiplicity = 1
  Basis Set: CC-PVTZ
  Basis Set:
  @DF-RHF Final Energy:  -173.34749500889413
    Total Energy =                       -173.3474950088939863
    Molecular point group: c1
  Basis Set: CC-PVTZ
  Basis Set:
  Basis Set: CC-PVTZ
  Basis Set:
  @DF-RHF Final Energy:  -173.34802634092830
    Total Energy =                       -173.3480263409282713
  Basis Set: CC-PVTZ
  Basis Set:
  Basis Set: CC-PVTZ
  Basis Set:
  @DF-RHF Final Energy:  -173.34815278932294
    Total Energy =                       -173.3481527893232226
  Basis Set: CC-PVTZ
  Basis Set:
  Basis Set: CC-PVTZ
  Basis Set:
  @DF-RHF Final Energy:  -173.34815624748973
    Total Energy =                       -173.3481562474897828
  Basis Set: CC-PVTZ
  Basis Set:
  Charge       = 0
  Multiplicity = 1
  Basis Set: CC-PVTZ
  Basis Set:

    Orbital Energies (a.u.)
    -----------------------

    Doubly Occupied:

       1A    -15.527148     2A    -11.238648     3A    -11.210255
       4A    -11.201956     5A     -1.177690     6A     -1.031373
       7A     -0.898530     8A     -0.798301     9A     -0.659325
      10A     -0.637224    11A     -0.597267    12A     -0.562615
      13A     -0.530722    14A     -0.487144    15A     -0.476806
      16A     -0.468892    17A     -0.383112

  @DF-RHF Final Energy:  -173.34815700464983

   => Energetics <=

    Nuclear Repulsion Energy =            132.8274857014026509
    One-Electron Energy =                -496.5772736696047218
    Two-Electron Energy =                 190.4016309635522077
    DFT Exchange-Correlation Energy =       0.0000000000000000
    Empirical Dispersion Energy =           0.0000000000000000
    PCM Polarization Energy =               0.0000000000000000
    EFP Energy =                            0.0000000000000000
    Total Energy =                       -173.3481570046498916
    Molecular point group: c1
  Basis Set: CC-PVTZ
  Basis Set:

  -Total Gradient:
     Atom            X                  Y                   Z
    ------   -----------------  -----------------  -----------------
       1       -0.000011911692     0.000000556386    -0.000040508805
       2       -0.000044711107    -0.000026707836     0.000029289872
       3       -0.000624756800     0.001040101446     0.004484392247
       4        0.000000813915    -0.000012025393     0.000009190250
       5       -0.002782669050     0.003303686223     0.001468212612
       6        0.000978024825    -0.001349242277    -0.003990439353
       7        0.000019833225     0.000008599012    -0.000030370469
       8        0.000001982624    -0.000006851516     0.000009102438
       9        0.002443610121    -0.002930247134    -0.001957071151
      10       -0.000003085082    -0.000024855540     0.000003438350
      11       -0.000015007736    -0.000007562530     0.000008785832
      12        0.000016275967     0.000009047938     0.000000002104
      13        0.000021600791    -0.000004498779     0.000005976074

  **** Optimization is complete! (in 5 steps) ****
    Final optimized geometry and variables:
    Molecular point group: c1

    Geometry (in Angstrom), charge = 0, multiplicity = 1:

    H           -1.934817092527    -1.285681719174    -0.943105502080
    N           -1.260151051118    -0.550481953397    -0.962948556091
    C           -0.774304269514    -0.246778088358     0.378168487275
    H           -1.704217155702     0.245948612025    -1.369992247345
    C            0.381637486665     0.760788419856     0.316546146215
    H           -0.414233809755    -1.183875096344     0.786779255905
    H           -1.559700585545     0.120106747540     1.036145505820
    C            1.753776969105     0.091292591449     0.339527713688
    H            0.301846652905     1.317518834343    -0.611146501539
    H            0.307537543888     1.469742137394     1.133679347831
    H            1.839284197660    -0.627033260889    -0.467786741154
    H            2.549279221901     0.819258739490     0.225975954430
    H            1.917495315049    -0.434634122755     1.274449011576

  Mulliken Charges: (a.u.)
   Center  Symbol    Alpha    Beta     Spin     Total
       1     H     0.42880  0.42880  0.00000  0.14240
       2     N     3.69405  3.69405  0.00000 -0.38811
       3     C     3.02952  3.02952  0.00000 -0.05904
       4     H     0.43050  0.43050  0.00000  0.13901
       5     C     3.07715  3.07715  0.00000 -0.15429
       6     H     0.45938  0.45938  0.00000  0.08124
       7     H     0.46066  0.46066  0.00000  0.07868
       8     C     3.14987  3.14987  0.00000 -0.29974
       9     H     0.45871  0.45871  0.00000  0.08257
      10     H     0.45268  0.45268  0.00000  0.09464
      11     H     0.44925  0.44925  0.00000  0.10150
      12     H     0.45181  0.45181  0.00000  0.09638
      13     H     0.45761  0.45761  0.00000  0.08477

   Total alpha = 17.00000, Total beta = 17.00000, Total charge =  0.00000

*** Psi4 exiting successfully. Buy a developer a beer!
