                              Psi4 1.0.54 Driver

  ==> Input File <==

--------------------------------------------------------------------------
set {
	reference rhf
	basis cc-pvtz
}

set_num_threads( 4 )
memory 2 gb

molecule MOL {
0 1

H	 3.290544	 -0.447647	 -0.039969
C	 2.233400	 -0.262387	 -0.030485
C	 1.565297	 -0.145304	 1.179168
C	 1.546935	 -0.142086	 -1.222043
H	 2.105693	 -0.240007	 2.101012
C	 0.209182	 0.092350	 1.195775
H	 2.066336	 -0.233109	 -2.156073
C	 0.184998	 0.096588	 -1.203750
H	 -0.324751	 0.185920	 2.120338
C	 -0.486398	 0.214248	 0.000000
H	 -0.355500	 0.191309	 -2.127365
C	 -1.946525	 0.470130	 0.000000
O	 -2.779618	 -0.371226	 0.000000
H	 -2.227127	 1.528393	 0.000000

	symmetry c1
}
set optking {
	frozen_dihedral = ("
		8 10 12 14
	")
}

ee,wfn = optimize('scf', return_wfn=True)
oeprop( wfn, 'DIPOLE', 'QUADRUPOLE', 'MULLIKEN_CHARGES')
f=open( 'psi4out.xyz', 'w' )
f.write( "14  " )
f.write( str(ee) + "\n" )
f.write( MOL.save_string_xyz() )
f.close()
--------------------------------------------------------------------------

    Molecular point group: c1
  Charge       = 0
  Multiplicity = 1
  Basis Set: CC-PVTZ
  Basis Set:
  @DF-RHF Final Energy:  -343.53662870242363
    Total Energy =                       -343.5366287024235135
    Molecular point group: c1
  Basis Set: CC-PVTZ
  Basis Set:
  Basis Set: CC-PVTZ
  Basis Set:
  @DF-RHF Final Energy:  -343.53701473994903
    Total Energy =                       -343.5370147399489724
  Basis Set: CC-PVTZ
  Basis Set:
  Basis Set: CC-PVTZ
  Basis Set:
  @DF-RHF Final Energy:  -343.53702986321292
    Total Energy =                       -343.5370298632126378
  Basis Set: CC-PVTZ
  Basis Set:
  Basis Set: CC-PVTZ
  Basis Set:
  @DF-RHF Final Energy:  -343.53699412437430
    Total Energy =                       -343.5369941243743028
  Basis Set: CC-PVTZ
  Basis Set:
  Basis Set: CC-PVTZ
  Basis Set:
  @DF-RHF Final Energy:  -343.53703425233562
    Total Energy =                       -343.5370342523356157
  Basis Set: CC-PVTZ
  Basis Set:
  Charge       = 0
  Multiplicity = 1
  Basis Set: CC-PVTZ
  Basis Set:

    Orbital Energies (a.u.)
    -----------------------

    Doubly Occupied:

       1A    -20.564375     2A    -11.333185     3A    -11.251466
       4A    -11.245341     5A    -11.245199     6A    -11.242660
       7A    -11.242252     8A    -11.240314     9A     -1.418533
      10A     -1.174643    11A     -1.049010    12A     -1.033169
      13A     -0.890168    14A     -0.844828    15A     -0.798491
      16A     -0.725552    17A     -0.681288    18A     -0.656801
      19A     -0.647029    20A     -0.620618    21A     -0.603913
      22A     -0.539572    23A     -0.532411    24A     -0.518748
      25A     -0.505766    26A     -0.426187    27A     -0.352121
      28A     -0.351204

  @DF-RHF Final Energy:  -343.53703463731500

   => Energetics <=

    Nuclear Repulsion Energy =            323.0520559138577141
    One-Electron Energy =               -1105.7084921389180181
    Two-Electron Energy =                 439.1194015877451875
    DFT Exchange-Correlation Energy =       0.0000000000000000
    Empirical Dispersion Energy =           0.0000000000000000
    PCM Polarization Energy =               0.0000000000000000
    EFP Energy =                            0.0000000000000000
    Total Energy =                       -343.5370346373151733
    Molecular point group: c1
  Basis Set: CC-PVTZ
  Basis Set:

  -Total Gradient:
     Atom            X                  Y                   Z
    ------   -----------------  -----------------  -----------------
       1       -0.000002697495    -0.000000432402     0.000005985915
       2        0.000006563715     0.000022560476    -0.000091916031
       3       -0.000058796923    -0.000014498301     0.000042376629
       4        0.000090843284    -0.000028996267     0.000057908228
       5        0.000001009501     0.000004480873     0.000000495441
       6        0.000022123973    -0.000003515900     0.000036664290
       7       -0.000010270312     0.000005147004    -0.000008837957
       8       -0.000088703765     0.000118818411     0.000055295573
       9        0.000012545989     0.000003297698    -0.000003310091
      10        0.000006475926    -0.000172654491    -0.000134594240
      11        0.000014365020     0.000004538608    -0.000003139549
      12        0.000016124776     0.000115757004     0.000145434435
      13       -0.000012074131    -0.000023721218     0.000017966616
      14        0.000002490444    -0.000030781496    -0.000120329260

  **** Optimization is complete! (in 6 steps) ****
    Final optimized geometry and variables:
    Molecular point group: c1

    Geometry (in Angstrom), charge = 0, multiplicity = 1:

    H            3.300556410335    -0.438818715960    -0.023855174429
    C            2.243734477590    -0.253471520671    -0.015841283337
    C            1.570759978246    -0.135671334552     1.185544363824
    C            1.552878574957    -0.133723531972    -1.206536438018
    H            2.103218528730    -0.231163230244     2.112218450470
    C            0.209837967519     0.102731947726     1.197490649119
    H            2.071193075169    -0.227537532301    -2.141368631627
    C            0.191584596226     0.104159874072    -1.197669223189
    H           -0.310660272875     0.189267997526     2.132666480175
    C           -0.482877763345     0.218003804915     0.005032389024
    H           -0.343041761137     0.191442316842    -2.124742038406
    C           -1.958778024811     0.487415558378     0.016478382015
    O           -2.784218832019    -0.356852667930     0.012729669752
    H           -2.249376339544     1.543267475489     0.027621480347

  Mulliken Charges: (a.u.)
   Center  Symbol    Alpha    Beta     Spin     Total
       1     H     0.42091  0.42091  0.00000  0.15819
       2     C     3.08473  3.08473  0.00000 -0.16946
       3     C     3.06321  3.06321  0.00000 -0.12642
       4     C     3.06318  3.06318  0.00000 -0.12636
       5     H     0.42100  0.42100  0.00000  0.15800
       6     C     3.09886  3.09886  0.00000 -0.19771
       7     H     0.42101  0.42101  0.00000  0.15798
       8     C     3.09888  3.09888  0.00000 -0.19776
       9     H     0.42289  0.42289  0.00000  0.15422
      10     C     2.93623  2.93623  0.00000  0.12755
      11     H     0.42275  0.42275  0.00000  0.15450
      12     C     2.93328  2.93328  0.00000  0.13343
      13     O     4.15482  4.15482  0.00000 -0.30965
      14     H     0.45825  0.45825  0.00000  0.08349

   Total alpha = 28.00000, Total beta = 28.00000, Total charge = -0.00000

*** Psi4 exiting successfully. Buy a developer a beer!
