  ==> Input File <==

--------------------------------------------------------------------------
set {
	reference rhf
	basis cc-pvtz
}

set_num_threads( 4 )
memory 2 gb

molecule MOL {
0 1

H	 2.462485	 -2.216993	 0.000000
O	 2.777472	 -1.330706	 0.000000
C	 1.763288	 -0.447523	 0.000000
C	 1.557034	 0.290379	 -1.156754
C	 0.943585	 -0.260999	 1.092545
H	 2.206019	 0.129640	 -1.994691
C	 0.534285	 1.209053	 -1.214836
H	 1.079767	 -0.816228	 1.997240
C	 -0.072679	 0.669171	 0.998942
H	 0.382423	 1.774770	 -2.112973
C	 -0.302314	 1.414213	 -0.130421
N	 -0.941203	 0.862435	 2.165610
H	 -1.100076	 2.123694	 -0.161012
O	 -0.720879	 0.205796	 3.128603
O	 -1.810165	 1.662212	 2.076395

	symmetry c1
}
set optking {
	frozen_dihedral = ("
		4 3 2 1
	")
}

ee = optimize('scf')
oeprop('DIPOLE', 'QUADRUPOLE', 'MULLIKEN_CHARGES')
f=open( 'psi4out.xyz', 'w' )
f.write( "15  " )
f.write( str(ee) + "\n" )
f.write( MOL.save_string_xyz() )
f.close()
--------------------------------------------------------------------------

    Molecular point group: c1
  Charge       = 0
  Multiplicity = 1
  Basis Set: CC-PVTZ
  Basis Set:
  @DF-RHF Final Energy:  -509.21454243266226
    Total Energy =                       -509.2145424326621423
    Molecular point group: c1
  Basis Set: CC-PVTZ
  Basis Set:
  Basis Set: CC-PVTZ
  Basis Set:
  @DF-RHF Final Energy:  -509.21492857630005
    Total Energy =                       -509.2149285762998261
  Basis Set: CC-PVTZ
  Basis Set:
  Basis Set: CC-PVTZ
  Basis Set:
  @DF-RHF Final Energy:  -509.19983759323151
    Total Energy =                       -509.1998375932313365
  Basis Set: CC-PVTZ
  Basis Set:
  Basis Set: CC-PVTZ
  Basis Set:
  @DF-RHF Final Energy:  -509.21463898851249
    Total Energy =                       -509.2146389885124336
  Basis Set: CC-PVTZ
  Basis Set:
  Basis Set: CC-PVTZ
  Basis Set:
  @DF-RHF Final Energy:  -509.21514126178965
    Total Energy =                       -509.2151412617895403
  Basis Set: CC-PVTZ
  Basis Set:
  Basis Set: CC-PVTZ
  Basis Set:
  @DF-RHF Final Energy:  -509.21515192954325
    Total Energy =                       -509.2151519295435946
  Basis Set: CC-PVTZ
  Basis Set:
  Charge       = 0
  Multiplicity = 1
  Basis Set: CC-PVTZ
  Basis Set:

    Orbital Energies (a.u.)
    -----------------------

    Doubly Occupied:

       1A    -20.595562     2A    -20.594177     3A    -20.594040
       4A    -15.850197     5A    -11.319773     6A    -11.307636
       7A    -11.264309     8A    -11.264254     9A    -11.262568
      10A    -11.260251    11A     -1.643818    12A     -1.426204
      13A     -1.424778    14A     -1.203114    15A     -1.095381
      16A     -1.048442    17A     -0.965347    18A     -0.872648
      19A     -0.834603    20A     -0.796515    21A     -0.744951
      22A     -0.742920    23A     -0.727073    24A     -0.711077
      25A     -0.683087    26A     -0.644389    27A     -0.628752
      28A     -0.570821    29A     -0.556875    30A     -0.536042
      31A     -0.516677    32A     -0.494410    33A     -0.488846
      34A     -0.459756    35A     -0.380081    36A     -0.359912

  @DF-RHF Final Energy:  -509.21515466007509

   => Energetics <=

    Nuclear Repulsion Energy =            504.0949764135925761
    One-Electron Energy =               -1694.8816804913715259
    Two-Electron Energy =                 681.5715494177034088
    DFT Exchange-Correlation Energy =       0.0000000000000000
    Empirical Dispersion Energy =           0.0000000000000000
    PCM Polarization Energy =               0.0000000000000000
    EFP Energy =                            0.0000000000000000
    Total Energy =                       -509.2151546600755410
    Molecular point group: c1
  Basis Set: CC-PVTZ
  Basis Set:

  -Total Gradient:
     Atom            X                  Y                   Z
    ------   -----------------  -----------------  -----------------
       1        0.000049564795    -0.000018759163    -0.001584781103
       2       -0.000345088646    -0.000412629994     0.001762097633
       3        0.000923761809     0.001195558184     0.000477919969
       4       -0.000827050595    -0.000647399143    -0.000538866500
       5        0.000214810186    -0.000147655908    -0.000131972082
       6        0.000012567625    -0.000004175734     0.000017631468
       7        0.000171796215    -0.000131179624    -0.000137424730
       8       -0.000004876045     0.000013884117    -0.000002302973
       9       -0.000153838494     0.000152520088    -0.000144636676
      10       -0.000014621740     0.000010639819     0.000003565645
      11       -0.000008134254    -0.000026780452     0.000227494650
      12        0.000117725005     0.000049536524    -0.000042656230
      13        0.000011090690    -0.000010473314    -0.000024522569
      14       -0.000139710826     0.000091923719    -0.000022806766
      15       -0.000007995728    -0.000115009128     0.000141260252

  **** Optimization is complete! (in 7 steps) ****
    Final optimized geometry and variables:
    Molecular point group: c1

    Geometry (in Angstrom), charge = 0, multiplicity = 1:

    H            2.124289820322    -2.624314440164    -0.732774068982
    O            2.437607625886    -1.736502921876    -0.733003724408
    C            1.402928136350    -0.853292459048    -0.779579737529
    C            1.196151610328    -0.115017312818    -1.930433260255
    C            0.591086608448    -0.666710078705     0.319611494201
    H            1.844001292654    -0.273391356403    -2.769964988842
    C            0.177514879501     0.815475386923    -1.984064131151
    H            0.749509982216    -1.221348512538     1.219619273486
    C           -0.424248950910     0.262056487975     0.233452321543
    H            0.024550388175     1.387040598289    -2.878147215013
    C           -0.650980616778     1.013825544940    -0.896987684680
    N           -1.291749525256     0.456739212670     1.399364710431
    H           -1.446188830840     1.726911273946    -0.920550765764
    O           -1.089416895873    -0.217560964498     2.353224280946
    O           -2.144875885235     1.275170832568     1.317588970831

  Mulliken Charges: (a.u.)
   Center  Symbol    Alpha    Beta     Spin     Total
       1     H     0.38437  0.38437  0.00000  0.23126
       2     O     4.18525  4.18525  0.00000 -0.37050
       3     C     2.86402  2.86402  0.00000  0.27196
       4     C     3.09595  3.09595  0.00000 -0.19191
       5     C     3.11727  3.11727  0.00000 -0.23455
       6     H     0.41037  0.41037  0.00000  0.17926
       7     C     3.06527  3.06527  0.00000 -0.13055
       8     H     0.39369  0.39369  0.00000  0.21262
       9     C     2.98056  2.98056  0.00000  0.03887
      10     H     0.41519  0.41519  0.00000  0.16962
      11     C     3.08658  3.08658  0.00000 -0.17317
      12     N     3.25022  3.25022  0.00000  0.49957
      13     H     0.39876  0.39876  0.00000  0.20247
      14     O     4.17653  4.17653  0.00000 -0.35305
      15     O     4.17596  4.17596  0.00000 -0.35192

   Total alpha = 36.00000, Total beta = 36.00000, Total charge =  0.00000
