  ==> Input File <==

--------------------------------------------------------------------------
set {
	reference rhf
	basis 6-31G*
}

set_num_threads( 1 )
memory 2 gb

molecule MOL {
0 1

H	 -1.574981	 -1.894450	 -2.785015
C	 -2.289132	 -1.399014	 -2.115573
C	 -2.095544	 -1.690218	 -0.649171
O	 -3.135812	 -0.694630	 -2.561359
C	 -0.655361	 -1.434775	 -0.183470
H	 -2.807519	 -1.098149	 -0.085918
H	 -2.340203	 -2.740714	 -0.496680
C	 -0.252658	 0.041456	 -0.226725
H	 -0.550761	 -1.807653	 0.831076
H	 0.030771	 -2.020516	 -0.793297
C	 1.180775	 0.282413	 0.250794
H	 -0.941862	 0.616521	 0.388210
H	 -0.362205	 0.424368	 -1.239601
C	 2.148627	 -0.814315	 -0.201312
H	 1.516199	 1.249228	 -0.115937
H	 1.192670	 0.346017	 1.338083
C	 3.580890	 -0.659131	 0.322722
H	 2.166869	 -0.852443	 -1.289387
H	 1.762857	 -1.776509	 0.128956
C	 4.324889	 0.564933	 -0.213704
H	 4.142010	 -1.551473	 0.056605
H	 3.564836	 -0.624694	 1.410140
H	 4.342616	 0.565491	 -1.300421
H	 3.866655	 1.493402	 0.110242
H	 5.353900	 0.572371	 0.132816

	symmetry c1
}
set optking {
	frozen_dihedral = ("
		6 3 5 8,
		6 3 2 4,
		3 5 8 12,
		8 11 14 18,
		20 17 14 18
	")
}

ee = energy('scf')
oeprop('DIPOLE', 'QUADRUPOLE', 'MULLIKEN_CHARGES')
f=open( 'psi4out.xyz', 'w' )
f.write( "25  " )
f.write( str(ee) + "\n" )
f.write( MOL.save_string_xyz() )
f.close()
--------------------------------------------------------------------------

    Molecular point group: c1

    Geometry (in Angstrom), charge = 0, multiplicity = 1:

       Center              X                  Y                   Z               Mass
    ------------   -----------------  -----------------  -----------------  -----------------
           H         -1.892387410912    -1.257666587708    -2.153536123308     1.007825032070
           C         -2.606538410912    -0.762230587708    -1.484094123308    12.000000000000
           C         -2.412950410912    -1.053434587708    -0.017692123308    12.000000000000
           O         -3.453218410912    -0.057846587708    -1.929880123308    15.994914619560
           C         -0.972767410912    -0.797991587708     0.448008876692    12.000000000000
           H         -3.124925410912    -0.461365587708     0.545560876692     1.007825032070
           H         -2.657609410912    -2.103930587708     0.134798876692     1.007825032070
           C         -0.570064410912     0.678239412292     0.404753876692    12.000000000000
           H         -0.868167410912    -1.170869587708     1.462554876692     1.007825032070
           H         -0.286635410912    -1.383732587708    -0.161818123308     1.007825032070
           C          0.863368589088     0.919196412292     0.882272876692    12.000000000000
           H         -1.259268410912     1.253304412292     1.019688876692     1.007825032070
           H         -0.679611410912     1.061151412292    -0.608122123308     1.007825032070
           C          1.831220589088    -0.177531587708     0.430166876692    12.000000000000
           H          1.198792589088     1.886011412292     0.515541876692     1.007825032070
           H          0.875263589088     0.982800412292     1.969561876692     1.007825032070
           C          3.263483589088    -0.022347587708     0.954200876692    12.000000000000
           H          1.849462589088    -0.215659587708    -0.657908123308     1.007825032070
           H          1.445450589088    -1.139725587708     0.760434876692     1.007825032070
           C          4.007482589088     1.201716412292     0.417774876692    12.000000000000
           H          3.824603589088    -0.914689587708     0.688083876692     1.007825032070
           H          3.247429589088     0.012089412292     2.041618876692     1.007825032070
           H          4.025209589088     1.202274412292    -0.668942123308     1.007825032070
           H          3.549248589088     2.130185412292     0.741720876692     1.007825032070
           H          5.036493589088     1.209154412292     0.764294876692     1.007825032070

  Charge       = 0
  Multiplicity = 1
  Basis Set: 6-31G*
  Basis Set:

    Orbital Energies (a.u.)
    -----------------------

    Doubly Occupied:

       1A    -20.561650     2A    -11.325815     3A    -11.234125
       4A    -11.233455     5A    -11.223746     6A    -11.219763
       7A    -11.219211     8A    -11.218277     9A    -11.211127
      10A     -1.401632    11A     -1.107546    12A     -1.067524
      13A     -1.013457    14A     -0.938292    15A     -0.886156
      16A     -0.823603    17A     -0.794729    18A     -0.767051
      19A     -0.665608    20A     -0.652564    21A     -0.638057
      22A     -0.628257    23A     -0.609577    24A     -0.589790
      25A     -0.573953    26A     -0.558899    27A     -0.536689
      28A     -0.523474    29A     -0.517838    30A     -0.500175
      31A     -0.484608    32A     -0.475152    33A     -0.460522
      34A     -0.453216    35A     -0.446244    36A     -0.408864

  @DF-RHF Final Energy:  -387.11458250495207

   => Energetics <=

    Nuclear Repulsion Energy =            447.1785317681691367
    One-Electron Energy =               -1410.6451300668818476
    Two-Electron Energy =                 576.3520157937597332
    DFT Exchange-Correlation Energy =       0.0000000000000000
    Empirical Dispersion Energy =           0.0000000000000000
    PCM Polarization Energy =               0.0000000000000000
    EFP Energy =                            0.0000000000000000
    Total Energy =                       -387.1145825049529776

  Mulliken Charges: (a.u.)
   Center  Symbol    Alpha    Beta     Spin     Total
       1     H     0.43283  0.43283  0.00000  0.13434
       2     C     2.83084  2.83084  0.00000  0.33832
       3     C     3.20605  3.20605  0.00000 -0.41210
       4     O     4.23794  4.23794  0.00000 -0.47587
       5     C     3.17518  3.17518  0.00000 -0.35035
       6     H     0.40026  0.40026  0.00000  0.19947
       7     H     0.40713  0.40713  0.00000  0.18573
       8     C     3.15477  3.15477  0.00000 -0.30954
       9     H     0.41303  0.41303  0.00000  0.17394
      10     H     0.41453  0.41453  0.00000  0.17095
      11     C     3.15504  3.15504  0.00000 -0.31008
      12     H     0.41567  0.41567  0.00000  0.16867
      13     H     0.41794  0.41794  0.00000  0.16413
      14     C     3.16125  3.16125  0.00000 -0.32251
      15     H     0.41603  0.41603  0.00000  0.16794
      16     H     0.42230  0.42230  0.00000  0.15540
      17     C     3.15068  3.15068  0.00000 -0.30135
      18     H     0.42439  0.42439  0.00000  0.15122
      19     H     0.41819  0.41819  0.00000  0.16363
      20     C     3.24163  3.24163  0.00000 -0.48326
      21     H     0.42101  0.42101  0.00000  0.15799
      22     H     0.42301  0.42301  0.00000  0.15398
      23     H     0.42197  0.42197  0.00000  0.15607
      24     H     0.41971  0.41971  0.00000  0.16058
      25     H     0.41864  0.41864  0.00000  0.16271

   Total alpha = 36.00000, Total beta = 36.00000, Total charge =  0.00000
