  ==> Input File <==

--------------------------------------------------------------------------
set {
	reference rhf
	basis 6-31G*
}

set_num_threads( 4 )
memory 2 gb

molecule MOL {
0 1

H	 -2.365627	 -1.312883	 -0.379134
C	 -1.358347	 -1.274295	 0.019669
C	 -0.681945	 0.000119	 -0.470601
H	 -0.826096	 -2.155117	 -0.321105
H	 -1.409554	 -1.292283	 1.100109
C	 -1.357790	 1.274691	 0.020220
N	 0.739525	 -0.000142	 0.006128
H	 -0.594190	 0.000341	 -1.545128
H	 -2.364980	 1.313977	 -0.378631
H	 -0.825080	 2.155361	 -0.320114
H	 -1.409060	 1.292170	 1.100671
O	 0.945100	 -0.362038	 1.122977
O	 1.576072	 0.362604	 -0.764589

	symmetry c1
}
set optking {
	frozen_dihedral = ("
		12 7 3 8
	")
}

ee = optimize('scf')
oeprop('DIPOLE', 'QUADRUPOLE', 'MULLIKEN_CHARGES')
f=open( 'psi4out.xyz', 'w' )
f.write( "13  " )
f.write( str(ee) + "\n" )
f.write( MOL.save_string_xyz() )
f.close()
--------------------------------------------------------------------------

    Molecular point group: c1
  Charge       = 0
  Multiplicity = 1
  Basis Set: 6-31G*
  Basis Set:
  @DF-RHF Final Energy:  -321.73873135952294
    Total Energy =                       -321.7387313595232285
    Molecular point group: c1
  Basis Set: 6-31G*
  Basis Set:
  Basis Set: 6-31G*
  Basis Set:
  @DF-RHF Final Energy:  -321.73464178595572
    Total Energy =                       -321.7346417859555459
  Basis Set: 6-31G*
  Basis Set:
  Basis Set: 6-31G*
  Basis Set:
  @DF-RHF Final Energy:  -321.73873273035656
    Total Energy =                       -321.7387327303564462
  Basis Set: 6-31G*
  Basis Set:
  Basis Set: 6-31G*
  Basis Set:
  @DF-RHF Final Energy:  -321.73899564456241
    Total Energy =                       -321.7389956445624648
  Basis Set: 6-31G*
  Basis Set:
  Basis Set: 6-31G*
  Basis Set:
  @DF-RHF Final Energy:  -321.73899745309774
    Total Energy =                       -321.7389974530976815
  Basis Set: 6-31G*
  Basis Set:
  Charge       = 0
  Multiplicity = 1
  Basis Set: 6-31G*
  Basis Set:

    Orbital Energies (a.u.)
    -----------------------

    Doubly Occupied:

       1A    -20.599785     2A    -20.599069     3A    -15.842967
       4A    -11.306088     5A    -11.248539     6A    -11.243040
       7A     -1.628613     8A     -1.414059     9A     -1.143880
      10A     -0.974202    11A     -0.957925    12A     -0.813871
      13A     -0.751292    14A     -0.727500    15A     -0.722058
      16A     -0.649324    17A     -0.594544    18A     -0.588055
      19A     -0.571943    20A     -0.530173    21A     -0.522743
      22A     -0.482052    23A     -0.469166    24A     -0.447099

  @DF-RHF Final Energy:  -321.73899830346232

   => Energetics <=

    Nuclear Repulsion Energy =            256.8101537115624637
    One-Electron Energy =                -947.4423274461875053
    Two-Electron Energy =                 368.8931754311626037
    DFT Exchange-Correlation Energy =       0.0000000000000000
    Empirical Dispersion Energy =           0.0000000000000000
    PCM Polarization Energy =               0.0000000000000000
    EFP Energy =                            0.0000000000000000
    Total Energy =                       -321.7389983034623810
    Molecular point group: c1
  Basis Set: 6-31G*
  Basis Set:

  -Total Gradient:
     Atom            X                  Y                   Z
    ------   -----------------  -----------------  -----------------
       1       -0.000003580521    -0.000002285029     0.000000299831
       2       -0.000008042489    -0.000019474275     0.000004728284
       3        0.000000498021     0.000461353794    -0.000050744507
       4       -0.000002909724    -0.000000631768     0.000003041662
       5        0.000003859620     0.000001813294    -0.000003727793
       6        0.000019407531    -0.000014821421    -0.000017347550
       7       -0.000088301761     0.000589294873     0.000296572596
       8        0.000020222799    -0.000536665653     0.000005932324
       9       -0.000001370077     0.000000854364     0.000000786707
      10        0.000000140807     0.000008543800     0.000004293960
      11       -0.000000423636    -0.000004925299     0.000000404518
      12        0.000043025128    -0.000494865893    -0.000212976065
      13        0.000017474295     0.000011809212    -0.000031263967

  **** Optimization is complete! (in 6 steps) ****
    Final optimized geometry and variables:
    Molecular point group: c1

    Geometry (in Angstrom), charge = 0, multiplicity = 1:

    H           -2.371634135544    -1.324048334635    -0.404193145963
    C           -1.373542001589    -1.291420552389     0.018491913506
    C           -0.682452995490    -0.026796959871    -0.467015600109
    H           -0.841269472476    -2.178901974004    -0.303065998208
    H           -1.450045860422    -1.306393430175     1.096693471750
    C           -1.344960116817     1.258719325870     0.021461757096
    N            0.740758513480    -0.000604389185     0.005834036860
    H           -0.594885074697    -0.021630858877    -1.541925886689
    H           -2.358832304015     1.301946898864    -0.358898951114
    H           -0.808768428939     2.130152475043    -0.334614292590
    H           -1.379750176053     1.283077436142     1.103896481303
    O            0.963979543937    -0.360734178724     1.121075436581
    O            1.556851444199     0.413197444216    -0.759025110909

  Mulliken Charges: (a.u.)
   Center  Symbol    Alpha    Beta     Spin     Total
       1     H     0.41063  0.41063  0.00000  0.17874
       2     C     3.24710  3.24710  0.00000 -0.49419
       3     C     3.02304  3.02304  0.00000 -0.04607
       4     H     0.40423  0.40423  0.00000  0.19155
       5     H     0.39694  0.39694  0.00000  0.20613
       6     C     3.25057  3.25057  0.00000 -0.50114
       7     N     3.21685  3.21685  0.00000  0.56630
       8     H     0.38598  0.38598  0.00000  0.22804
       9     H     0.40613  0.40613  0.00000  0.18773
      10     H     0.39871  0.39871  0.00000  0.20259
      11     H     0.39984  0.39984  0.00000  0.20032
      12     O     4.23056  4.23056  0.00000 -0.46113
      13     O     4.22943  4.22943  0.00000 -0.45885

   Total alpha = 24.00000, Total beta = 24.00000, Total charge = -0.00000
