  ==> Input File <==

--------------------------------------------------------------------------
set {
	reference rhf
	basis 6-31G*
}

set_num_threads( 4 )
memory 2 gb

molecule MOL {
0 1

O	 1.846825	 1.296220	 0.000415
C	 1.705091	 0.115954	 0.001797
C	 0.381791	 -0.609817	 0.001258
O	 2.721346	 -0.737485	 -0.000216
C	 -0.823008	 0.326187	 0.001381
H	 0.371250	 -1.265087	 -0.865474
H	 0.370908	 -1.265746	 0.867490
C	 -0.585172	 1.578257	 0.846850
H	 -1.691742	 -0.209249	 0.371245
H	 -1.055868	 0.609513	 -1.020290
C	 -1.784172	 2.528054	 0.858848
H	 -0.348631	 1.287373	 1.869313
H	 0.288616	 2.109493	 0.472465
C	 -1.545488	 3.779474	 1.702785
H	 -2.657312	 1.999603	 1.235019
H	 -2.021141	 2.820218	 -0.161752
H	 -1.339787	 3.521386	 2.737817
H	 -2.412598	 4.432495	 1.691230
H	 -0.698203	 4.348317	 1.330178
C	 4.024888	 -0.184556	 -0.001949
H	 4.179030	 0.422472	 -0.882452
H	 4.701782	 -1.024608	 -0.003642
H	 4.181981	 0.421185	 0.878906

	symmetry c1
}
set optking {
	frozen_dihedral = ("
		9 5 3 6
	")
}

ee = optimize('scf')
oeprop('DIPOLE', 'QUADRUPOLE', 'MULLIKEN_CHARGES')
f=open( 'psi4out.xyz', 'w' )
f.write( "23  " )
f.write( str(ee) + "\n" )
f.write( MOL.save_string_xyz() )
f.close()
--------------------------------------------------------------------------

    Molecular point group: c1
  Charge       = 0
  Multiplicity = 1
  Basis Set: 6-31G*
  Basis Set:
  @DF-RHF Final Energy:  -422.95639666923176
    Total Energy =                       -422.9563966692310260
    Molecular point group: c1
  Basis Set: 6-31G*
  Basis Set:
  Basis Set: 6-31G*
  Basis Set:
  @DF-RHF Final Energy:  -422.96762388543260
    Total Energy =                       -422.9676238854326584
  Basis Set: 6-31G*
  Basis Set:
  Basis Set: 6-31G*
  Basis Set:
  @DF-RHF Final Energy:  -422.96940272546630
    Total Energy =                       -422.9694027254663524
  Basis Set: 6-31G*
  Basis Set:
  Basis Set: 6-31G*
  Basis Set:
  @DF-RHF Final Energy:  -422.96759459215826
    Total Energy =                       -422.9675945921583207
  Basis Set: 6-31G*
  Basis Set:
  @DF-RHF Final Energy:  -422.97076626815391
    Total Energy =                       -422.9707662681532838
  @DF-RHF Final Energy:  -422.97152642987680
    Total Energy =                       -422.9715264298761213
  @DF-RHF Final Energy:  -422.97191761030012
    Total Energy =                       -422.9719176103003520
  @DF-RHF Final Energy:  -422.97201590997963
    Total Energy =                       -422.9720159099795183
  @DF-RHF Final Energy:  -422.97208666507800
    Total Energy =                       -422.9720866650776543
  Basis Set: 6-31G*
  Basis Set:
  @DF-RHF Final Energy:  -422.97209562221877
    Total Energy =                       -422.9720956222187169
  Basis Set: 6-31G*
  Basis Set:
  Basis Set: 6-31G*
  Basis Set:
  @DF-RHF Final Energy:  -422.97210676636172
    Total Energy =                       -422.9721067663618896
  Basis Set: 6-31G*
  Basis Set:
  Basis Set: 6-31G*
  Basis Set:
  @DF-RHF Final Energy:  -422.97210891545927
    Total Energy =                       -422.9721089154592164
  Basis Set: 6-31G*
  Basis Set:
  Charge       = 0
  Multiplicity = 1
  Basis Set: 6-31G*
  Basis Set:

    Orbital Energies (a.u.)
    -----------------------

    Doubly Occupied:

       1A    -20.605925     2A    -20.542273     3A    -11.371952
       4A    -11.281066     5A    -11.235335     6A    -11.224565
       7A    -11.214943     8A    -11.212815     9A    -11.207502
      10A     -1.469844    11A     -1.361618    12A     -1.091243
      13A     -1.041258    14A     -0.985426    15A     -0.932414
      16A     -0.844872    17A     -0.796558    18A     -0.766453
      19A     -0.695212    20A     -0.679942    21A     -0.670778
      22A     -0.646496    23A     -0.610314    24A     -0.599929
      25A     -0.570473    26A     -0.564306    27A     -0.550825
      28A     -0.526295    29A     -0.523487    30A     -0.503509
      31A     -0.492051    32A     -0.470293    33A     -0.464678
      34A     -0.453021    35A     -0.452786    36A     -0.431314

  @DF-RHF Final Energy:  -422.97210932406870

   => Energetics <=

    Nuclear Repulsion Energy =            466.4125830531864949
    One-Electron Energy =               -1500.5858393369660462
    Two-Electron Energy =                 611.2011469597105133
    DFT Exchange-Correlation Energy =       0.0000000000000000
    Empirical Dispersion Energy =           0.0000000000000000
    PCM Polarization Energy =               0.0000000000000000
    EFP Energy =                            0.0000000000000000
    Total Energy =                       -422.9721093240691516
    Molecular point group: c1
  Basis Set: 6-31G*
  Basis Set:

  -Total Gradient:
     Atom            X                  Y                   Z
    ------   -----------------  -----------------  -----------------
       1       -0.000071336311     0.000033083470    -0.000033431838
       2        0.000105469761     0.000007904350     0.000010607109
       3       -0.003944699910    -0.004694103524     0.005180225700
       4       -0.000020142337    -0.000038240700     0.000063811762
       5       -0.001199941141    -0.000956269807    -0.007669510509
       6        0.003485998973     0.004074042484    -0.003270241138
       7       -0.000011014805     0.000002205079    -0.000008218264
       8       -0.000009549938     0.000031797084     0.000022644672
       9        0.001663818499     0.001562497481     0.005725761372
      10       -0.000024827349    -0.000037893029    -0.000008407074
      11        0.000025633005     0.000007016327    -0.000002982644
      12        0.000003380958    -0.000001764709     0.000026172475
      13        0.000011335393     0.000014722564    -0.000005352881
      14       -0.000007229835    -0.000002571783     0.000003135559
      15       -0.000003490685     0.000003710385    -0.000000136631
      16       -0.000004569194     0.000002486101    -0.000008347455
      17        0.000006038405     0.000001830424     0.000002571107
      18        0.000001418874    -0.000006856133     0.000001735837
      19       -0.000002882291     0.000004263920    -0.000004894108
      20        0.000030555128    -0.000003868660    -0.000038596845
      21        0.000004058756     0.000003950186     0.000006086441
      22       -0.000020185643    -0.000004193868     0.000005448892
      23       -0.000017838322    -0.000003747641     0.000001918462

  **** Optimization is complete! (in 13 steps) ****
    Final optimized geometry and variables:
    Molecular point group: c1

    Geometry (in Angstrom), charge = 0, multiplicity = 1:

    O            1.248700303696     0.022854178741    -1.392072741840
    C            1.006227411546    -0.864623365039    -0.636879782514
    C           -0.359825411781    -1.488511666718    -0.457529935072
    O            1.929217832419    -1.451215806498     0.111147357524
    C           -1.507623720702    -0.467378593376    -0.399960401561
    H           -0.473401453171    -2.105125792502    -1.346182179262
    H           -0.349971776418    -2.132519043196     0.411002463192
    C           -1.249880391489     0.728023958750     0.525650858769
    H           -2.377539340785    -0.987767577799    -0.007888610024
    H           -1.742795915634    -0.115849186489    -1.397738371839
    C           -2.476884454347     1.630237799280     0.671643759591
    H           -0.955726837920     0.363656027645     1.509895306239
    H           -0.419803361623     1.314729824009     0.147502828640
    C           -2.225662162678     2.832521900910     1.580956238761
    H           -3.310319196831     1.050236614728     1.062720277884
    H           -2.782841883768     1.980349203576    -0.311844857969
    H           -1.946967040731     2.515669389963     2.582142168554
    H           -3.112162442233     3.453429472345     1.665673122750
    H           -1.422067492020     3.453338251992     1.195570522272
    C            3.259250968791    -0.983659698102    -0.026517421557
    H            3.604489058228    -1.114473430402    -1.041912748803
    H            3.852218547363    -1.578451699671     0.650559503933
    H            3.322627366936     0.061781796520     0.238506366444

  Mulliken Charges: (a.u.)
   Center  Symbol    Alpha    Beta     Spin     Total
       1     O     4.28903  4.28903  0.00000 -0.57807
       2     C     2.60742  2.60742  0.00000  0.78516
       3     C     3.20842  3.20842  0.00000 -0.41684
       4     O     4.30407  4.30407  0.00000 -0.60814
       5     C     3.15100  3.15100  0.00000 -0.30200
       6     H     0.39875  0.39875  0.00000  0.20251
       7     H     0.39976  0.39976  0.00000  0.20048
       8     C     3.16466  3.16466  0.00000 -0.32932
       9     H     0.41829  0.41829  0.00000  0.16342
      10     H     0.40982  0.40982  0.00000  0.18036
      11     C     3.15199  3.15199  0.00000 -0.30398
      12     H     0.42537  0.42537  0.00000  0.14926
      13     H     0.40609  0.40609  0.00000  0.18782
      14     C     3.23948  3.23948  0.00000 -0.47896
      15     H     0.42438  0.42438  0.00000  0.15125
      16     H     0.42099  0.42099  0.00000  0.15802
      17     H     0.42240  0.42240  0.00000  0.15520
      18     H     0.41938  0.41938  0.00000  0.16124
      19     H     0.41984  0.41984  0.00000  0.16032
      20     C     3.09321  3.09321  0.00000 -0.18643
      21     H     0.40877  0.40877  0.00000  0.18247
      22     H     0.40835  0.40835  0.00000  0.18330
      23     H     0.40853  0.40853  0.00000  0.18294

   Total alpha = 36.00000, Total beta = 36.00000, Total charge =  0.00000
