                              Psi4 1.0.54 Driver

  ==> Input File <==

--------------------------------------------------------------------------
set {
	reference rhf
	basis cc-pvtz
}

set_num_threads( 4 )
memory 2 gb

molecule MOL {
0 1

H	 1.036418	 1.853799	 -0.063294
O	 0.219801	 1.377833	 -0.070949
C	 0.489979	 0.078084	 0.002623
C	 -0.763662	 -0.754014	 0.000816
O	 1.596352	 -0.333686	 0.068165
C	 -2.038001	 0.074705	 -0.000833
H	 -0.712945	 -1.405886	 -0.864342
H	 -0.715137	 -1.405770	 0.866182
H	 -2.087267	 0.710831	 -0.874232
H	 -2.903419	 -0.576199	 -0.001922
H	 -2.089467	 0.710909	 0.872389

	symmetry c1
}
set optking {
	frozen_dihedral = ("
		2 3 4 7
	")
}

ee,wfn = optimize('scf', return_wfn=True)
oeprop( wfn, 'DIPOLE', 'QUADRUPOLE', 'MULLIKEN_CHARGES')
f=open( 'psi4out.xyz', 'w' )
f.write( "11  " )
f.write( str(ee) + "\n" )
f.write( MOL.save_string_xyz() )
f.close()
--------------------------------------------------------------------------

    Molecular point group: c1
  Charge       = 0
  Multiplicity = 1
  Basis Set: CC-PVTZ
  Basis Set:
  @DF-RHF Final Energy:  -266.94920686952059
    Total Energy =                       -266.9492068695205944
    Molecular point group: c1
  Basis Set: CC-PVTZ
  Basis Set:
  Basis Set: CC-PVTZ
  Basis Set:
  @DF-RHF Final Energy:  -266.94999676431246
    Total Energy =                       -266.9499967643124023
  Basis Set: CC-PVTZ
  Basis Set:
  Basis Set: CC-PVTZ
  Basis Set:
  @DF-RHF Final Energy:  -266.95038355028180
    Total Energy =                       -266.9503835502817424
  Basis Set: CC-PVTZ
  Basis Set:
  Basis Set: CC-PVTZ
  Basis Set:
  @DF-RHF Final Energy:  -266.95037169398415
    Total Energy =                       -266.9503716939840956
  Basis Set: CC-PVTZ
  Basis Set:
  Basis Set: CC-PVTZ
  Basis Set:
  @DF-RHF Final Energy:  -266.95048139036805
    Total Energy =                       -266.9504813903680542
  Basis Set: CC-PVTZ
  Basis Set:
  Charge       = 0
  Multiplicity = 1
  Basis Set: CC-PVTZ
  Basis Set:

    Orbital Energies (a.u.)
    -----------------------

    Doubly Occupied:

       1A    -20.608138     2A    -20.536880     3A    -11.375099
       4A    -11.243284     5A    -11.223094     6A     -1.480043
       7A     -1.368769     8A     -1.067353     9A     -0.910718
      10A     -0.827225    11A     -0.706036    12A     -0.676270
      13A     -0.665358    14A     -0.598083    15A     -0.589174
      16A     -0.557161    17A     -0.524137    18A     -0.519557
      19A     -0.473989    20A     -0.443320

  @DF-RHF Final Energy:  -266.95048493703337

   => Energetics <=

    Nuclear Repulsion Energy =            180.4060601783932896
    One-Electron Energy =                -721.9257122553362933
    Two-Electron Energy =                 274.5691671399094957
    DFT Exchange-Correlation Energy =       0.0000000000000000
    Empirical Dispersion Energy =           0.0000000000000000
    PCM Polarization Energy =               0.0000000000000000
    EFP Energy =                            0.0000000000000000
    Total Energy =                       -266.9504849370334796
    Molecular point group: c1
  Basis Set: CC-PVTZ
  Basis Set:

  -Total Gradient:
     Atom            X                  Y                   Z
    ------   -----------------  -----------------  -----------------
       1       -0.000022888548    -0.000053526887     0.000007003704
       2        0.000010826108     0.000026617374     0.000126881322
       3       -0.000082926906    -0.000001566083    -0.000153160527
       4       -0.000016295219     0.000186182048    -0.000079685930
       5        0.000114552139    -0.000026897704    -0.000004501131
       6       -0.000038380914    -0.000000727666     0.000007341134
       7        0.000054172292    -0.000110952123     0.000102037548
       8       -0.000008550936    -0.000003524370    -0.000003479668
       9        0.000007172879    -0.000009757306     0.000012559278
      10       -0.000022428192     0.000007421474    -0.000000896587
      11        0.000004747298    -0.000013268756    -0.000014099144

  **** Optimization is complete! (in 6 steps) ****
    Final optimized geometry and variables:
    Molecular point group: c1

    Geometry (in Angstrom), charge = 0, multiplicity = 1:

    H            1.373365892588     1.573257480313    -0.220250070147
    O            0.493214558930     1.231604324935    -0.166592741525
    C            0.569471913232    -0.084230826056    -0.013755739001
    C           -0.768248049289    -0.777632693134     0.080617868317
    O            1.606892392285    -0.651020071159     0.037830907000
    C           -2.003651090304     0.112511550153     0.082762631147
    H           -0.795196887724    -1.476598743996    -0.747483100825
    H           -0.722697738018    -1.384397696526     0.976685482195
    H           -2.073131477787     0.696547001631    -0.825031325100
    H           -2.893497007481    -0.500017664391     0.159212986436
    H           -1.995140434853     0.799321715037     0.918853391844

  Mulliken Charges: (a.u.)
   Center  Symbol    Alpha    Beta     Spin     Total
       1     H     0.38401  0.38401  0.00000  0.23197
       2     O     4.15118  4.15118  0.00000 -0.30236
       3     C     2.80602  2.80602  0.00000  0.38796
       4     C     3.09760  3.09760  0.00000 -0.19520
       5     O     4.19840  4.19840  0.00000 -0.39681
       6     C     3.14185  3.14185  0.00000 -0.28370
       7     H     0.43814  0.43814  0.00000  0.12371
       8     H     0.43663  0.43663  0.00000  0.12675
       9     H     0.44825  0.44825  0.00000  0.10349
      10     H     0.44917  0.44917  0.00000  0.10167
      11     H     0.44874  0.44874  0.00000  0.10251

   Total alpha = 20.00000, Total beta = 20.00000, Total charge = -0.00000

*** Psi4 exiting successfully. Buy a developer a beer!
