  ==> Input File <==

--------------------------------------------------------------------------
set {
	reference rhf
	basis cc-pvtz
}

set_num_threads( 4 )
memory 2 gb

molecule MOL {
0 1

H	 -2.362939	 -1.309000	 -0.383250
C	 -1.359344	 -1.272457	 0.020748
C	 -0.684082	 0.000127	 -0.464918
H	 -0.825835	 -2.151141	 -0.318537
H	 -1.416276	 -1.292399	 1.099455
C	 -1.359089	 1.272668	 0.021259
N	 0.742439	 -0.000109	 0.007333
H	 -0.596914	 0.000345	 -1.538146
H	 -2.362696	 1.309620	 -0.382686
H	 -0.825392	 2.151374	 -0.317674
H	 -1.415983	 1.292181	 1.099973
O	 1.146129	 0.988610	 0.520280
O	 1.374407	 -0.989064	 -0.162594

	symmetry c1
}
set optking {
	frozen_dihedral = ("
		12 7 3 8
	")
}

ee = optimize('scf')
oeprop('DIPOLE', 'QUADRUPOLE', 'MULLIKEN_CHARGES')
f=open( 'psi4out.xyz', 'w' )
f.write( "13  " )
f.write( str(ee) + "\n" )
f.write( MOL.save_string_xyz() )
f.close()
--------------------------------------------------------------------------

    Molecular point group: c1
  Charge       = 0
  Multiplicity = 1
  Basis Set: CC-PVTZ
  Basis Set:
  @DF-RHF Final Energy:  -321.86163264955798
    Total Energy =                       -321.8616326495583735
    Molecular point group: c1
  Basis Set: CC-PVTZ
  Basis Set:
  Basis Set: CC-PVTZ
  Basis Set:
  @DF-RHF Final Energy:  -321.85844942969527
    Total Energy =                       -321.8584494296954404
  Basis Set: CC-PVTZ
  Basis Set:
  Basis Set: CC-PVTZ
  Basis Set:
  @DF-RHF Final Energy:  -321.85972692626353
    Total Energy =                       -321.8597269262635336
  Basis Set: CC-PVTZ
  Basis Set:
  Basis Set: CC-PVTZ
  Basis Set:
  @DF-RHF Final Energy:  -321.86253491382229
    Total Energy =                       -321.8625349138224010
  Basis Set: CC-PVTZ
  Basis Set:
  Basis Set: CC-PVTZ
  Basis Set:
  @DF-RHF Final Energy:  -321.86259889914237
    Total Energy =                       -321.8625988991423696
  Basis Set: CC-PVTZ
  Basis Set:
  Basis Set: CC-PVTZ
  Basis Set:
  @DF-RHF Final Energy:  -321.86260970633310
    Total Energy =                       -321.8626097063329894
  Basis Set: CC-PVTZ
  Basis Set:
  Charge       = 0
  Multiplicity = 1
  Basis Set: CC-PVTZ
  Basis Set:

    Orbital Energies (a.u.)
    -----------------------

    Doubly Occupied:

       1A    -20.591122     2A    -20.585931     3A    -15.833802
       4A    -11.306639     5A    -11.240850     6A    -11.237273
       7A     -1.634456     8A     -1.418184     9A     -1.140103
      10A     -0.968464    11A     -0.958159    12A     -0.815203
      13A     -0.763842    14A     -0.730139    15A     -0.723400
      16A     -0.641402    17A     -0.594694    18A     -0.587218
      19A     -0.570320    20A     -0.523547    21A     -0.521400
      22A     -0.483839    23A     -0.472457    24A     -0.451789

  @DF-RHF Final Energy:  -321.86261040654477

   => Energetics <=

    Nuclear Repulsion Energy =            257.2448445924235898
    One-Electron Energy =                -948.6264392380398931
    Two-Electron Energy =                 369.5189842390715285
    DFT Exchange-Correlation Energy =       0.0000000000000000
    Empirical Dispersion Energy =           0.0000000000000000
    PCM Polarization Energy =               0.0000000000000000
    EFP Energy =                            0.0000000000000000
    Total Energy =                       -321.8626104065448317
    Molecular point group: c1
  Basis Set: CC-PVTZ
  Basis Set:

  -Total Gradient:
     Atom            X                  Y                   Z
    ------   -----------------  -----------------  -----------------
       1       -0.000016851769    -0.000016979315     0.000012587794
       2       -0.000059181175    -0.000019866377    -0.000029699186
       3        0.000137690384    -0.001252557086    -0.000379111277
       4       -0.000021066519     0.000011381759    -0.000001474401
       5        0.000005717132     0.000015335137    -0.000006068054
       6        0.000002641412    -0.000023695129    -0.000012173642
       7       -0.000540979939    -0.000386936175     0.001420215387
       8       -0.000004333587     0.001203273329     0.000008217699
       9       -0.000000805570     0.000003726104     0.000002840886
      10        0.000008252127     0.000015044134    -0.000004131690
      11       -0.000000867931    -0.000000062790     0.000004113320
      12        0.000405259285     0.000388997230    -0.001065442428
      13        0.000084526154     0.000062339181     0.000050125594

  **** Optimization is complete! (in 7 steps) ****
    Final optimized geometry and variables:
    Molecular point group: c1

    Geometry (in Angstrom), charge = 0, multiplicity = 1:

    H           -2.387539038552    -1.263884384330    -0.364237972734
    C           -1.374096093798    -1.261689141503     0.015233917576
    C           -0.685685837640     0.014980508855    -0.443333690835
    H           -0.863150912453    -2.138150156624    -0.348853679075
    H           -1.418041765995    -1.305551696083     1.096896279836
    C           -1.390820704456     1.278983348314     0.009132934848
    N            0.752050391955    -0.002961167149     0.022738336687
    H           -0.581340360439     0.014250120761    -1.520033148126
    H           -2.394852984313     1.268233103672    -0.396558075342
    H           -0.886364056761     2.165721638601    -0.341648724446
    H           -1.456807708682     1.327171657126     1.087566903158
    O            1.192658332711     0.968223382059     0.535913137560
    O            1.367059509858    -0.994116104800    -0.191914981411

  Mulliken Charges: (a.u.)
   Center  Symbol    Alpha    Beta     Spin     Total
       1     H     0.45007  0.45007  0.00000  0.09986
       2     C     3.14433  3.14433  0.00000 -0.28867
       3     C     3.00659  3.00659  0.00000 -0.01317
       4     H     0.43058  0.43058  0.00000  0.13884
       5     H     0.44667  0.44667  0.00000  0.10665
       6     C     3.14236  3.14236  0.00000 -0.28472
       7     N     3.27539  3.27539  0.00000  0.44921
       8     H     0.43005  0.43005  0.00000  0.13989
       9     H     0.45044  0.45044  0.00000  0.09913
      10     H     0.43517  0.43517  0.00000  0.12965
      11     H     0.44394  0.44394  0.00000  0.11212
      12     O     4.16932  4.16932  0.00000 -0.33864
      13     O     4.17507  4.17507  0.00000 -0.35015

   Total alpha = 24.00000, Total beta = 24.00000, Total charge = -0.00000
