  ==> Input File <==

--------------------------------------------------------------------------
set {
	reference rhf
	basis cc-pvtz
}

set_num_threads( 4 )
memory 2 gb

molecule MOL {
0 1

O	 -0.294688	 1.318815	 -0.000872
C	 -0.448732	 0.145721	 -0.000187
C	 -1.780748	 -0.548101	 0.000195
O	 0.550743	 -0.719877	 0.000412
H	 -1.859389	 -1.183260	 -0.872613
H	 -2.570236	 0.185547	 -0.001342
H	 -1.860233	 -1.180337	 0.875064
C	 1.451747	 -0.668374	 1.088807
H	 1.933084	 0.296934	 1.139044
H	 2.182016	 -1.439955	 0.907000
H	 0.935897	 -0.854200	 2.019070

	symmetry c1
}
set optking {
	frozen_dihedral = ("
		8 4 2 1
	")
}

ee = optimize('scf')
oeprop('DIPOLE', 'QUADRUPOLE', 'MULLIKEN_CHARGES')
f=open( 'psi4out.xyz', 'w' )
f.write( "11  " )
f.write( str(ee) + "\n" )
f.write( MOL.save_string_xyz() )
f.close()
--------------------------------------------------------------------------

    Molecular point group: c1
  Charge       = 0
  Multiplicity = 1
  Basis Set: CC-PVTZ
  Basis Set:
  @DF-RHF Final Energy:  -266.92437183642915
    Total Energy =                       -266.9243718364293159
    Molecular point group: c1
  Basis Set: CC-PVTZ
  Basis Set:
  Basis Set: CC-PVTZ
  Basis Set:
  @DF-RHF Final Energy:  -266.92199876640871
    Total Energy =                       -266.9219987664088194
  Basis Set: CC-PVTZ
  Basis Set:
  Basis Set: CC-PVTZ
  Basis Set:
  @DF-RHF Final Energy:  -266.92529143573609
    Total Energy =                       -266.9252914357361988
  Basis Set: CC-PVTZ
  Basis Set:
  Basis Set: CC-PVTZ
  Basis Set:
  @DF-RHF Final Energy:  -266.92539072975228
    Total Energy =                       -266.9253907297521664
  Basis Set: CC-PVTZ
  Basis Set:
  Basis Set: CC-PVTZ
  Basis Set:
  @DF-RHF Final Energy:  -266.92539743149689
    Total Energy =                       -266.9253974314970606
  Basis Set: CC-PVTZ
  Basis Set:
  Basis Set: CC-PVTZ
  Basis Set:
  @DF-RHF Final Energy:  -266.92539875101863
    Total Energy =                       -266.9253987510186903
  Basis Set: CC-PVTZ
  Basis Set:
  Charge       = 0
  Multiplicity = 1
  Basis Set: CC-PVTZ
  Basis Set:

    Orbital Energies (a.u.)
    -----------------------

    Doubly Occupied:

       1A    -20.584352     2A    -20.543870     3A    -11.371481
       4A    -11.286016     5A    -11.235547     6A     -1.465781
       7A     -1.370111     8A     -1.031754     9A     -0.957926
      10A     -0.778824    11A     -0.697441    12A     -0.684551
      13A     -0.673252    14A     -0.607009    15A     -0.593746
      16A     -0.572061    17A     -0.537213    18A     -0.508821
      19A     -0.459890    20A     -0.444594

  @DF-RHF Final Energy:  -266.92539896187515

   => Energetics <=

    Nuclear Repulsion Energy =            182.8235785412701375
    One-Electron Energy =                -726.6894760015384236
    Two-Electron Energy =                 276.9404984983933105
    DFT Exchange-Correlation Energy =       0.0000000000000000
    Empirical Dispersion Energy =           0.0000000000000000
    PCM Polarization Energy =               0.0000000000000000
    EFP Energy =                            0.0000000000000000
    Total Energy =                       -266.9253989618750325
    Molecular point group: c1
  Basis Set: CC-PVTZ
  Basis Set:

  -Total Gradient:
     Atom            X                  Y                   Z
    ------   -----------------  -----------------  -----------------
       1       -0.000153293152    -0.000298357016    -0.008706560895
       2       -0.001541967083    -0.001635832013     0.014645785224
       3        0.000004336840    -0.000053416448    -0.000004451558
       4        0.005476258261     0.006338089185    -0.009560689611
       5       -0.000008528233     0.000002947301    -0.000018644703
       6        0.000009776244    -0.000005327649    -0.000011694323
       7       -0.000002921688    -0.000022807111    -0.000008237221
       8       -0.003787047201    -0.004326423303     0.003684351785
       9        0.000006762484     0.000004331591    -0.000009187130
      10       -0.000005597139     0.000002655979    -0.000012703000
      11        0.000002220668    -0.000005860513     0.000002031432

  **** Optimization is complete! (in 7 steps) ****
    Final optimized geometry and variables:
    Molecular point group: c1

    Geometry (in Angstrom), charge = 0, multiplicity = 1:

    O           -0.200016001152     1.409828910698    -0.242209450672
    C           -0.375270610371     0.245581125450    -0.201337662977
    C           -1.718793259029    -0.421484520360    -0.250849337110
    O            0.634161169764    -0.639540357209    -0.210707438735
    H           -1.748238464615    -1.098576367378    -1.094910039154
    H           -2.498648585943     0.317941539193    -0.334941081802
    H           -1.860671046666    -1.014422622897     0.644948612393
    C            1.571162609373    -0.560186601175     0.843294780033
    H            2.000647099703     0.429191498358     0.904827376667
    H            2.342846718443    -1.280490710268     0.625741338849
    H            1.099961123448    -0.814184186334     1.785600168956

  Mulliken Charges: (a.u.)
   Center  Symbol    Alpha    Beta     Spin     Total
       1     O     4.17737  4.17737  0.00000 -0.35473
       2     C     2.79922  2.79922  0.00000  0.40156
       3     C     3.13666  3.13666  0.00000 -0.27332
       4     O     4.16369  4.16369  0.00000 -0.32739
       5     H     0.44339  0.44339  0.00000  0.11323
       6     H     0.43840  0.43840  0.00000  0.12320
       7     H     0.45009  0.45009  0.00000  0.09982
       8     C     3.03109  3.03109  0.00000 -0.06218
       9     H     0.44825  0.44825  0.00000  0.10350
      10     H     0.44562  0.44562  0.00000  0.10876
      11     H     0.46622  0.46622  0.00000  0.06756

   Total alpha = 20.00000, Total beta = 20.00000, Total charge = -0.00000
