  ==> Input File <==

--------------------------------------------------------------------------
set {
	reference rhf
	basis cc-pvtz
}

set_num_threads( 4 )
memory 2 gb

molecule MOL {
0 1

H	 -0.288243	 2.439899	 -0.546403
C	 0.341248	 2.050455	 0.264602
C	 0.692262	 0.592428	 0.156232
O	 0.688315	 2.765972	 1.139367
C	 -0.554654	 -0.292621	 0.086567
H	 1.317708	 0.326720	 0.998284
H	 1.276500	 0.465013	 -0.752784
C	 -1.846385	 0.513195	 -0.016346
H	 -0.473986	 -0.956115	 -0.769708
H	 -0.597929	 -0.929215	 0.966651
C	 -3.089953	 -0.365049	 -0.098564
H	 -1.798267	 1.154820	 -0.891143
H	 -1.925398	 1.173265	 0.842889
H	 -3.055079	 -1.012299	 -0.968245
H	 -3.988403	 0.236438	 -0.170014
H	 -3.183055	 -0.995885	 0.779079

	symmetry c1
}
set optking {
	frozen_dihedral = ("
		6 3 5 9
	")
}

ee = optimize('scf')
oeprop('DIPOLE', 'QUADRUPOLE', 'MULLIKEN_CHARGES')
f=open( 'psi4out.xyz', 'w' )
f.write( "16  " )
f.write( str(ee) + "\n" )
f.write( MOL.save_string_xyz() )
f.close()
--------------------------------------------------------------------------

    Molecular point group: c1
  Charge       = 0
  Multiplicity = 1
  Basis Set: CC-PVTZ
  Basis Set:
  @DF-RHF Final Energy:  -270.10669435268619
    Total Energy =                       -270.1066943526863611
    Molecular point group: c1
  Basis Set: CC-PVTZ
  Basis Set:
  Basis Set: CC-PVTZ
  Basis Set:
  @DF-RHF Final Energy:  -270.10753110781417
    Total Energy =                       -270.1075311078142249
  Basis Set: CC-PVTZ
  Basis Set:
  Basis Set: CC-PVTZ
  Basis Set:
  @DF-RHF Final Energy:  -270.10994823037390
    Total Energy =                       -270.1099482303739592
  Basis Set: CC-PVTZ
  Basis Set:
  Basis Set: CC-PVTZ
  Basis Set:
  @DF-RHF Final Energy:  -270.11024262130894
    Total Energy =                       -270.1102426213091121
  Basis Set: CC-PVTZ
  Basis Set:
  @DF-RHF Final Energy:  -270.11014443596321
    Total Energy =                       -270.1101444359630932
  @DF-RHF Final Energy:  -270.11045862009757
    Total Energy =                       -270.1104586200976883
  Basis Set: CC-PVTZ
  Basis Set:
  @DF-RHF Final Energy:  -270.11046541848589
    Total Energy =                       -270.1104654184860010
  Basis Set: CC-PVTZ
  Basis Set:
  Basis Set: CC-PVTZ
  Basis Set:
  @DF-RHF Final Energy:  -270.11046659800752
    Total Energy =                       -270.1104665980075197
  Basis Set: CC-PVTZ
  Basis Set:
  Basis Set: CC-PVTZ
  Basis Set:
  @DF-RHF Final Energy:  -270.11046834955516
    Total Energy =                       -270.1104683495549352
  Basis Set: CC-PVTZ
  Basis Set:
  Charge       = 0
  Multiplicity = 1
  Basis Set: CC-PVTZ
  Basis Set:

    Orbital Energies (a.u.)
    -----------------------

    Doubly Occupied:

       1A    -20.550511     2A    -11.320231     3A    -11.234345
       4A    -11.233586     5A    -11.228061     6A    -11.216744
       7A     -1.405386     8A     -1.093532     9A     -1.016480
      10A     -0.906400    11A     -0.834333    12A     -0.772656
      13A     -0.679611    14A     -0.646836    15A     -0.628358
      16A     -0.604148    17A     -0.582230    18A     -0.562969
      19A     -0.525156    20A     -0.513619    21A     -0.493845
      22A     -0.475687    23A     -0.470968    24A     -0.409957

  @DF-RHF Final Energy:  -270.11046843709175

   => Energetics <=

    Nuclear Repulsion Energy =            234.2126510202428165
    One-Electron Energy =                -829.8349386109285888
    Two-Electron Energy =                 325.5118191535939332
    DFT Exchange-Correlation Energy =       0.0000000000000000
    Empirical Dispersion Energy =           0.0000000000000000
    PCM Polarization Energy =               0.0000000000000000
    EFP Energy =                            0.0000000000000000
    Total Energy =                       -270.1104684370918676
    Molecular point group: c1
  Basis Set: CC-PVTZ
  Basis Set:

  -Total Gradient:
     Atom            X                  Y                   Z
    ------   -----------------  -----------------  -----------------
       1       -0.000001493487    -0.000003501815    -0.000005149573
       2        0.000002711273     0.000011370753     0.000018478612
       3        0.000894405873    -0.001159346620    -0.001451937853
       4       -0.000002557943    -0.000006827640    -0.000010906178
       5        0.000693598055    -0.001203398016     0.001450615440
       6       -0.000845142311     0.001145595655     0.000988397687
       7       -0.000003429396     0.000001907221    -0.000001553951
       8       -0.000013410201     0.000003677139    -0.000010890739
       9       -0.000727981722     0.001201501522    -0.000980432546
      10        0.000004967251     0.000004104379    -0.000000122390
      11        0.000003297816     0.000007260457     0.000004253681
      12        0.000000453514     0.000000768115     0.000000041879
      13       -0.000003274931    -0.000002408047    -0.000000430735
      14        0.000000089307     0.000001498767    -0.000000305024
      15       -0.000003280380    -0.000001141330     0.000001172092
      16        0.000001047284    -0.000001060535    -0.000001230401

  **** Optimization is complete! (in 10 steps) ****
    Final optimized geometry and variables:
    Molecular point group: c1

    Geometry (in Angstrom), charge = 0, multiplicity = 1:

    H            0.622960243696     1.706801237961    -0.843832309473
    C            1.094201357405     1.213298404237     0.012842907879
    C            1.321655217006    -0.270194724499    -0.122173326661
    O            1.410238266988     1.851307006281     0.957619101034
    C            0.033227175521    -1.132878183125    -0.216985900059
    H            1.915855931417    -0.568808588897     0.729716187270
    H            1.922705621244    -0.409089581580    -1.015914355656
    C           -1.291834986672    -0.374299306642    -0.323888869794
    H            0.112685054094    -1.789610425992    -1.075482709527
    H           -0.011006020101    -1.772275034855     0.656297878957
    C           -2.489211103286    -1.318135644127    -0.347329573714
    H           -1.303443304199     0.232464895949    -1.224192071352
    H           -1.394671459597     0.310945902587     0.512174752127
    H           -2.434556325591    -1.999362482256    -1.189834661056
    H           -3.418612742843    -0.766991461533    -0.427044699096
    H           -2.533974284084    -1.914514594005     0.557477448650

  Mulliken Charges: (a.u.)
   Center  Symbol    Alpha    Beta     Spin     Total
       1     H     0.46137  0.46137  0.00000  0.07726
       2     C     2.90663  2.90663  0.00000  0.18674
       3     C     3.08447  3.08447  0.00000 -0.16893
       4     O     4.16722  4.16722  0.00000 -0.33444
       5     C     3.09853  3.09853  0.00000 -0.19706
       6     H     0.44143  0.44143  0.00000  0.11714
       7     H     0.44853  0.44853  0.00000  0.10294
       8     C     3.09939  3.09939  0.00000 -0.19878
       9     H     0.44822  0.44822  0.00000  0.10356
      10     H     0.44566  0.44566  0.00000  0.10867
      11     C     3.15006  3.15006  0.00000 -0.30013
      12     H     0.45038  0.45038  0.00000  0.09924
      13     H     0.44457  0.44457  0.00000  0.11087
      14     H     0.45453  0.45453  0.00000  0.09094
      15     H     0.44594  0.44594  0.00000  0.10811
      16     H     0.45307  0.45307  0.00000  0.09385

   Total alpha = 24.00000, Total beta = 24.00000, Total charge =  0.00000
