  ==> Input File <==

--------------------------------------------------------------------------
set {
	reference rhf
	basis 6-31G*
}

set_num_threads( 1 )
memory 2 gb

molecule MOL {
0 1

O	 2.453569	 1.996977	 1.491619
C	 2.212724	 1.151709	 2.298014
C	 0.922618	 0.351788	 2.271738
C	 3.187885	 0.820410	 3.409076
C	 -0.020114	 0.729532	 1.132967
H	 1.186106	 -0.703774	 2.219290
H	 0.432023	 0.478839	 3.235884
C	 -1.307367	 -0.096728	 1.138962
H	 0.496077	 0.602034	 0.186700
H	 -0.259076	 1.785906	 1.204515
C	 -2.259874	 0.272531	 0.000494
H	 -1.060256	 -1.155165	 1.070464
H	 -1.819150	 0.034458	 2.091294
C	 -3.549786	 -0.549746	 -0.000374
H	 -1.749546	 0.141090	 -0.952033
H	 -2.508275	 1.330204	 0.068474
C	 -4.809590	 0.315458	 -0.000369
H	 -3.560515	 -1.202009	 -0.871156
H	 -3.561123	 -1.202955	 0.869711
H	 -4.844746	 0.956611	 -0.876632
H	 -5.706986	 -0.295590	 -0.001609
H	 -4.845960	 0.954827	 0.877144
H	 3.483430	 -0.223321	 3.355245
H	 4.063879	 1.448413	 3.324929
H	 2.723514	 0.974129	 4.378800

	symmetry c1
}
set optking {
	frozen_dihedral = ("
		9 5 8 12,
		15 11 8 12,
		1 2 3 6,
		9 5 3 6
	")
}

ee = energy('scf')
oeprop('DIPOLE', 'QUADRUPOLE', 'MULLIKEN_CHARGES')
f=open( 'psi4out.xyz', 'w' )
f.write( "25  " )
f.write( str(ee) + "\n" )
f.write( MOL.save_string_xyz() )
f.close()
--------------------------------------------------------------------------

    Molecular point group: c1

    Geometry (in Angstrom), charge = 0, multiplicity = 1:

       Center              X                  Y                   Z               Mass
    ------------   -----------------  -----------------  -----------------  -----------------
           O          2.811867170609     1.436289674730     0.186567474676    15.994914619560
           C          2.571022170609     0.591021674730     0.992962474676    12.000000000000
           C          1.280916170609    -0.208899325270     0.966686474676    12.000000000000
           C          3.546183170609     0.259722674730     2.104024474676    12.000000000000
           C          0.338184170609     0.168844674730    -0.172084525324    12.000000000000
           H          1.544404170609    -1.264461325270     0.914238474676     1.007825032070
           H          0.790321170609    -0.081848325270     1.930832474676     1.007825032070
           C         -0.949068829391    -0.657415325270    -0.166089525324    12.000000000000
           H          0.854375170609     0.041346674730    -1.118351525324     1.007825032070
           H          0.099222170609     1.225218674730    -0.100536525324     1.007825032070
           C         -1.901575829391    -0.288156325270    -1.304557525324    12.000000000000
           H         -0.701957829391    -1.715852325270    -0.234587525324     1.007825032070
           H         -1.460851829391    -0.526229325270     0.786242474676     1.007825032070
           C         -3.191487829391    -1.110433325270    -1.305425525324    12.000000000000
           H         -1.391247829391    -0.419597325270    -2.257084525324     1.007825032070
           H         -2.149976829391     0.769516674730    -1.236577525324     1.007825032070
           C         -4.451291829391    -0.245229325270    -1.305420525324    12.000000000000
           H         -3.202216829391    -1.762696325270    -2.176207525324     1.007825032070
           H         -3.202824829391    -1.763642325270    -0.435340525324     1.007825032070
           H         -4.486447829391     0.395923674730    -2.181683525324     1.007825032070
           H         -5.348687829391    -0.856277325270    -1.306660525324     1.007825032070
           H         -4.487661829391     0.394139674730    -0.427907525324     1.007825032070
           H          3.841728170609    -0.784008325270     2.050193474676     1.007825032070
           H          4.422177170609     0.887725674730     2.019877474676     1.007825032070
           H          3.081812170609     0.413441674730     3.073748474676     1.007825032070

  Charge       = 0
  Multiplicity = 1
  Basis Set: 6-31G*
  Basis Set:

    Orbital Energies (a.u.)
    -----------------------

    Doubly Occupied:

       1A    -20.550408     2A    -11.326238     3A    -11.231811
       4A    -11.228309     5A    -11.217337     6A    -11.216231
       7A    -11.213715     8A    -11.211878     9A    -11.208672
      10A     -1.395703    11A     -1.093693    12A     -1.056252
      13A     -1.014197    14A     -0.968603    15A     -0.891343
      16A     -0.815986    17A     -0.789501    18A     -0.729793
      19A     -0.658949    20A     -0.652641    21A     -0.627022
      22A     -0.623263    23A     -0.601565    24A     -0.587122
      25A     -0.569349    26A     -0.558041    27A     -0.533426
      28A     -0.529851    29A     -0.515381    30A     -0.490404
      31A     -0.485206    32A     -0.477145    33A     -0.464282
      34A     -0.454794    35A     -0.449148    36A     -0.399250

  @DF-RHF Final Energy:  -387.13081626093242

   => Energetics <=

    Nuclear Repulsion Energy =            439.6149224884410387
    One-Electron Energy =               -1395.8185789300284796
    Two-Electron Energy =                 569.0728401806543388
    DFT Exchange-Correlation Energy =       0.0000000000000000
    Empirical Dispersion Energy =           0.0000000000000000
    PCM Polarization Energy =               0.0000000000000000
    EFP Energy =                            0.0000000000000000
    Total Energy =                       -387.1308162609331021

  Mulliken Charges: (a.u.)
   Center  Symbol    Alpha    Beta     Spin     Total
       1     O     4.26114  4.26114  0.00000 -0.52229
       2     C     2.73569  2.73569  0.00000  0.52863
       3     C     3.21084  3.21084  0.00000 -0.42168
       4     C     3.28663  3.28663  0.00000 -0.57326
       5     C     3.14860  3.14860  0.00000 -0.29720
       6     H     0.41004  0.41004  0.00000  0.17992
       7     H     0.41012  0.41012  0.00000  0.17977
       8     C     3.15642  3.15642  0.00000 -0.31284
       9     H     0.41213  0.41213  0.00000  0.17573
      10     H     0.41211  0.41211  0.00000  0.17578
      11     C     3.15424  3.15424  0.00000 -0.30849
      12     H     0.42423  0.42423  0.00000  0.15153
      13     H     0.42465  0.42465  0.00000  0.15071
      14     C     3.15432  3.15432  0.00000 -0.30864
      15     H     0.41987  0.41987  0.00000  0.16026
      16     H     0.41951  0.41951  0.00000  0.16098
      17     C     3.24045  3.24045  0.00000 -0.48090
      18     H     0.42040  0.42040  0.00000  0.15921
      19     H     0.42107  0.42107  0.00000  0.15785
      20     H     0.42073  0.42073  0.00000  0.15855
      21     H     0.42074  0.42074  0.00000  0.15851
      22     H     0.42213  0.42213  0.00000  0.15574
      23     H     0.40875  0.40875  0.00000  0.18250
      24     H     0.39647  0.39647  0.00000  0.20706
      25     H     0.40871  0.40871  0.00000  0.18257

   Total alpha = 36.00000, Total beta = 36.00000, Total charge = -0.00000
