  ==> Input File <==

--------------------------------------------------------------------------
set {
	reference rhf
	basis 6-31G*
}

set_num_threads( 1 )
memory 2 gb

molecule MOL {
0 1

O	 0.814526	 0.788799	 0.934468
C	 1.122059	 0.121804	 -0.000188
C	 0.395619	 0.074480	 -1.322285
O	 2.172624	 -0.688929	 0.000216
C	 -0.823751	 0.989612	 -1.377149
H	 1.114054	 0.329073	 -2.096744
H	 0.119547	 -0.960623	 -1.504219
C	 -1.540978	 0.922249	 -2.726376
H	 -0.515010	 2.010552	 -1.175000
H	 -1.510768	 0.719294	 -0.581259
C	 -2.764727	 1.835183	 -2.789587
H	 -0.847946	 1.193220	 -3.520326
H	 -1.845853	 -0.103237	 -2.925126
H	 -2.487634	 2.872974	 -2.628767
H	 -3.254441	 1.768825	 -3.756051
H	 -3.492924	 1.566864	 -2.029736
C	 3.452279	 -0.082609	 0.000533
H	 3.583069	 0.529321	 -0.880332
H	 4.163299	 -0.894027	 0.001117
H	 3.582335	 0.529955	 0.881077

	symmetry c1
}
set optking {
	frozen_dihedral = ("
		9 5 8 12,
		1 2 3 6,
		9 5 3 6
	")
}

ee = energy('scf')
oeprop('DIPOLE', 'QUADRUPOLE', 'MULLIKEN_CHARGES')
f=open( 'psi4out.xyz', 'w' )
f.write( "20  " )
f.write( str(ee) + "\n" )
f.write( MOL.save_string_xyz() )
f.close()
--------------------------------------------------------------------------

    Molecular point group: c1

    Geometry (in Angstrom), charge = 0, multiplicity = 1:

       Center              X                  Y                   Z               Mass
    ------------   -----------------  -----------------  -----------------  -----------------
           O          0.431508890050     0.292923688613     1.830407383132    15.994914619560
           C          0.739041890050    -0.374071311387     0.895751383132    12.000000000000
           C          0.012601890050    -0.421395311387    -0.426345616868    12.000000000000
           O          1.789606890050    -1.184804311387     0.896155383132    15.994914619560
           C         -1.206768109950     0.493736688613    -0.481209616868    12.000000000000
           H          0.731036890050    -0.166802311387    -1.200804616868     1.007825032070
           H         -0.263470109950    -1.456498311387    -0.608279616868     1.007825032070
           C         -1.923995109950     0.426373688613    -1.830436616868    12.000000000000
           H         -0.898027109950     1.514676688613    -0.279060616868     1.007825032070
           H         -1.893785109950     0.223418688613     0.314680383132     1.007825032070
           C         -3.147744109950     1.339307688613    -1.893647616868    12.000000000000
           H         -1.230963109950     0.697344688613    -2.624386616868     1.007825032070
           H         -2.228870109950    -0.599112311387    -2.029186616868     1.007825032070
           H         -2.870651109950     2.377098688613    -1.732827616868     1.007825032070
           H         -3.637458109950     1.272949688613    -2.860111616868     1.007825032070
           H         -3.875941109950     1.070988688613    -1.133796616868     1.007825032070
           C          3.069261890050    -0.578484311387     0.896472383132    12.000000000000
           H          3.200051890050     0.033445688613     0.015607383132     1.007825032070
           H          3.780281890050    -1.389902311387     0.897056383132     1.007825032070
           H          3.199317890050     0.034079688613     1.777016383132     1.007825032070

  Charge       = 0
  Multiplicity = 1
  Basis Set: 6-31G*
  Basis Set:

    Orbital Energies (a.u.)
    -----------------------

    Doubly Occupied:

       1A    -20.588416     2A    -20.553387     3A    -11.373544
       4A    -11.292036     5A    -11.236626     6A    -11.220983
       7A    -11.219599     8A    -11.211216     9A     -1.464766
      10A     -1.365771    11A     -1.088667    12A     -1.021006
      13A     -0.974197    14A     -0.892309    15A     -0.805746
      16A     -0.768650    17A     -0.695692    18A     -0.681435
      19A     -0.674777    20A     -0.643617    21A     -0.611742
      22A     -0.591053    23A     -0.585584    24A     -0.550270
      25A     -0.536154    26A     -0.511628    27A     -0.499237
      28A     -0.484251    29A     -0.477337    30A     -0.470864
      31A     -0.452097    32A     -0.432430

  @DF-RHF Final Energy:  -383.92376410522655

   => Energetics <=

    Nuclear Repulsion Energy =            381.9006554638302191
    One-Electron Energy =               -1279.6987140806709249
    Two-Electron Energy =                 513.8742945116150622
    DFT Exchange-Correlation Energy =       0.0000000000000000
    Empirical Dispersion Energy =           0.0000000000000000
    PCM Polarization Energy =               0.0000000000000000
    EFP Energy =                            0.0000000000000000
    Total Energy =                       -383.9237641052257004

  Mulliken Charges: (a.u.)
   Center  Symbol    Alpha    Beta     Spin     Total
       1     O     4.26448  4.26448  0.00000 -0.52895
       2     C     2.61115  2.61115  0.00000  0.77770
       3     C     3.21061  3.21061  0.00000 -0.42121
       4     O     4.31125  4.31125  0.00000 -0.62250
       5     C     3.15221  3.15221  0.00000 -0.30442
       6     H     0.40707  0.40707  0.00000  0.18586
       7     H     0.39883  0.39883  0.00000  0.20235
       8     C     3.15395  3.15395  0.00000 -0.30790
       9     H     0.41330  0.41330  0.00000  0.17340
      10     H     0.41090  0.41090  0.00000  0.17819
      11     C     3.23927  3.23927  0.00000 -0.47854
      12     H     0.42398  0.42398  0.00000  0.15203
      13     H     0.42264  0.42264  0.00000  0.15471
      14     H     0.42026  0.42026  0.00000  0.15948
      15     H     0.41879  0.41879  0.00000  0.16241
      16     H     0.41960  0.41960  0.00000  0.16080
      17     C     3.09382  3.09382  0.00000 -0.18765
      18     H     0.42033  0.42033  0.00000  0.15935
      19     H     0.40309  0.40309  0.00000  0.19383
      20     H     0.40448  0.40448  0.00000  0.19105

   Total alpha = 32.00000, Total beta = 32.00000, Total charge =  0.00000
