                              Psi4 1.0.54 Driver

  ==> Input File <==

--------------------------------------------------------------------------
set {
	reference rhf
	basis cc-pvtz
}

set_num_threads( 4 )
memory 2 gb

molecule MOL {
0 1

H	 0.430416	 -3.666891	 -3.957968
O	 1.366272	 -3.605948	 -4.005815
C	 1.781780	 -2.292757	 -3.737200
C	 1.648799	 -1.902128	 -2.272819
H	 2.821679	 -2.246021	 -4.031147
H	 1.238222	 -1.587307	 -4.362768
C	 0.209200	 -1.847735	 -1.766415
H	 2.220719	 -2.605062	 -1.674531
H	 2.112563	 -0.927115	 -2.143703
C	 0.113298	 -1.420414	 -0.302504
H	 -0.251197	 -2.822395	 -1.889199
H	 -0.362049	 -1.152294	 -2.379050
C	 -1.311023	 -1.277304	 0.237018
H	 0.660511	 -2.130236	 0.313076
H	 0.621254	 -0.466885	 -0.187478
C	 -2.041121	 -0.006551	 -0.194127
H	 -1.888548	 -2.136293	 -0.093331
H	 -1.289731	 -1.328757	 1.323321
C	 -3.489218	 0.042606	 0.286507
H	 -2.022185	 0.066287	 -1.279394
H	 -1.518764	 0.869305	 0.178730
C	 -4.219984	 1.311773	 -0.139038
H	 -4.022855	 -0.824300	 -0.093339
H	 -3.510372	 -0.038577	 1.370031
H	 -4.244251	 1.405725	 -1.219696
H	 -5.244345	 1.313233	 0.215630
H	 -3.732090	 2.196311	 0.257073

	symmetry c1
}
set optking {
	frozen_dihedral = ("
		14 10 13 16
	")
}

ee,wfn = optimize('scf', return_wfn=True)
oeprop( wfn, 'DIPOLE', 'QUADRUPOLE', 'MULLIKEN_CHARGES')
f=open( 'psi4out.xyz', 'w' )
f.write( "27  " )
f.write( str(ee) + "\n" )
f.write( MOL.save_string_xyz() )
f.close()
--------------------------------------------------------------------------

    Molecular point group: c1
  Charge       = 0
  Multiplicity = 1
  Basis Set: CC-PVTZ
  Basis Set:
  @DF-RHF Final Energy:  -388.42707562358680
    Total Energy =                       -388.4270756235869158
    Molecular point group: c1
  Basis Set: CC-PVTZ
  Basis Set:
  Basis Set: CC-PVTZ
  Basis Set:
  @DF-RHF Final Energy:  -388.42740468801770
    Total Energy =                       -388.4274046880170772
  Basis Set: CC-PVTZ
  Basis Set:
  Basis Set: CC-PVTZ
  Basis Set:
  @DF-RHF Final Energy:  -388.42744969672572
    Total Energy =                       -388.4274496967256027
  Basis Set: CC-PVTZ
  Basis Set:
  Basis Set: CC-PVTZ
  Basis Set:
  @DF-RHF Final Energy:  -388.42745174278787
    Total Energy =                       -388.4274517427878664
  Basis Set: CC-PVTZ
  Basis Set:
  Basis Set: CC-PVTZ
  Basis Set:
  @DF-RHF Final Energy:  -388.42745314276362
    Total Energy =                       -388.4274531427637385
  Basis Set: CC-PVTZ
  Basis Set:
  Charge       = 0
  Multiplicity = 1
  Basis Set: CC-PVTZ
  Basis Set:

    Orbital Energies (a.u.)
    -----------------------

    Doubly Occupied:

       1A    -20.545269     2A    -11.265012     3A    -11.217168
       4A    -11.214591     5A    -11.214094     6A    -11.213356
       7A    -11.213196     8A    -11.212187     9A    -11.207621
      10A     -1.363215    11A     -1.096182    12A     -1.062923
      13A     -1.012643    14A     -0.949969    15A     -0.887607
      16A     -0.820907    17A     -0.800108    18A     -0.781742
      19A     -0.696658    20A     -0.647164    21A     -0.643133
      22A     -0.615454    23A     -0.606187    24A     -0.584010
      25A     -0.578133    26A     -0.555180    27A     -0.544975
      28A     -0.519920    29A     -0.508664    30A     -0.503739
      31A     -0.482258    32A     -0.474406    33A     -0.468366
      34A     -0.462861    35A     -0.453136    36A     -0.442512
      37A     -0.425563

  @DF-RHF Final Energy:  -388.42745320337832

   => Energetics <=

    Nuclear Repulsion Energy =            458.2755279569977915
    One-Electron Energy =               -1434.8257442206829637
    Two-Electron Energy =                 588.1227630603073067
    DFT Exchange-Correlation Energy =       0.0000000000000000
    Empirical Dispersion Energy =           0.0000000000000000
    PCM Polarization Energy =               0.0000000000000000
    EFP Energy =                            0.0000000000000000
    Total Energy =                       -388.4274532033778087
    Molecular point group: c1
  Basis Set: CC-PVTZ
  Basis Set:

  -Total Gradient:
     Atom            X                  Y                   Z
    ------   -----------------  -----------------  -----------------
       1       -0.000004341793    -0.000001152567    -0.000003162842
       2       -0.000012355190    -0.000003533943     0.000006784831
       3        0.000021462995     0.000002918169     0.000006596151
       4       -0.000005156174     0.000005082089    -0.000004584862
       5        0.000002468176     0.000002002018    -0.000003918998
       6       -0.000001174867    -0.000005723712     0.000005274397
       7       -0.000003017104     0.000001959677     0.000010557840
       8        0.000000595969     0.000003181778    -0.000007504093
       9       -0.000000075105    -0.000000300600     0.000000469178
      10       -0.000375090291    -0.001307002978    -0.000883299702
      11        0.000003227985     0.000004100581    -0.000003718021
      12       -0.000000564063     0.000001812974    -0.000001683489
      13       -0.000460450125    -0.000546335030    -0.001237367267
      14        0.000437864588     0.001254467259     0.001070582393
      15        0.000006298064     0.000002125420    -0.000008448863
      16        0.000399842860     0.000587066412     0.001052633797
      17       -0.000007188766    -0.000001799668     0.000001445218
      18       -0.000000489180     0.000001795160    -0.000000356789
      19        0.000002123162     0.000001845329     0.000002042598
      20        0.000000803853    -0.000001372908     0.000001648699
      21       -0.000002913662     0.000001386752    -0.000000047371
      22       -0.000000880768    -0.000002841762    -0.000002519601
      23        0.000000558205     0.000003226685     0.000002898576
      24       -0.000001432137     0.000002054266    -0.000005785452
      25        0.000001531836     0.000000467896     0.000003274717
      26       -0.000001526803    -0.000000391657    -0.000001011973
      27       -0.000000121669    -0.000005037645    -0.000000799071

  **** Optimization is complete! (in 6 steps) ****
    Final optimized geometry and variables:
    Molecular point group: c1

    Geometry (in Angstrom), charge = 0, multiplicity = 1:

    H            1.143756690087    -2.328254062104    -2.620364173920
    O            2.081274582697    -2.281886836303    -2.644085764979
    C            2.511355780612    -0.982556033816    -2.334758080572
    C            2.335146871029    -0.618595425217    -0.868164616047
    H            3.561355255235    -0.949943479788    -2.592350810588
    H            2.002586650589    -0.254712118208    -2.963897886997
    C            0.880509224874    -0.550440068993    -0.409112790527
    H            2.875822176527    -1.341864461918    -0.265282632829
    H            2.808799440684     0.346365880270    -0.704143868126
    C            0.738207067733    -0.154697117055     1.059336250280
    H            0.406442174779    -1.518005656781    -0.552374600206
    H            0.342521416688     0.155835485206    -1.036100971636
    C           -0.705815096377    -0.080740628564     1.563490161218
    H            1.290208569838    -0.862774719005     1.670290927943
    H            1.219486065696     0.807478245549     1.218789142169
    C           -1.459687055085     1.179937670064     1.143518712214
    H           -1.251150074588    -0.960865642752     1.231342504842
    H           -0.697073749808    -0.125186659978     2.648845697537
    C           -2.890645914742     1.228921885974     1.672209027978
    H           -1.481937701103     1.258933052506     0.060106695424
    H           -0.916807208767     2.051836077822     1.500754310355
    C           -3.637875497921     2.494629487597     1.265501142397
    H           -3.435146925291     0.359196883418     1.314637756965
    H           -2.875213601640     1.152851020820     2.756032798351
    H           -3.701581177363     2.582032940211     0.185872418600
    H           -4.648681347287     2.497409053802     1.656994644193
    H           -3.136729847126     3.381812806854     1.638257776071

  Mulliken Charges: (a.u.)
   Center  Symbol    Alpha    Beta     Spin     Total
       1     H     0.39228  0.39228  0.00000  0.21543
       2     O     4.20568  4.20568  0.00000 -0.41137
       3     C     2.97953  2.97953  0.00000  0.04095
       4     C     3.08912  3.08912  0.00000 -0.17824
       5     H     0.44854  0.44854  0.00000  0.10292
       6     H     0.47000  0.47000  0.00000  0.06001
       7     C     3.10131  3.10131  0.00000 -0.20263
       8     H     0.45045  0.45045  0.00000  0.09910
       9     H     0.45556  0.45556  0.00000  0.08888
      10     C     3.09960  3.09960  0.00000 -0.19919
      11     H     0.45767  0.45767  0.00000  0.08465
      12     H     0.45243  0.45243  0.00000  0.09513
      13     C     3.09868  3.09868  0.00000 -0.19736
      14     H     0.44553  0.44553  0.00000  0.10894
      15     H     0.45413  0.45413  0.00000  0.09174
      16     C     3.08560  3.08560  0.00000 -0.17121
      17     H     0.45460  0.45460  0.00000  0.09080
      18     H     0.44747  0.44747  0.00000  0.10507
      19     C     3.08449  3.08449  0.00000 -0.16898
      20     H     0.45539  0.45539  0.00000  0.08923
      21     H     0.45491  0.45491  0.00000  0.09017
      22     C     3.14963  3.14963  0.00000 -0.29925
      23     H     0.45441  0.45441  0.00000  0.09117
      24     H     0.45398  0.45398  0.00000  0.09205
      25     H     0.45565  0.45565  0.00000  0.08869
      26     H     0.44823  0.44823  0.00000  0.10355
      27     H     0.45512  0.45512  0.00000  0.08975

   Total alpha = 37.00000, Total beta = 37.00000, Total charge = -0.00000

*** Psi4 exiting successfully. Buy a developer a beer!
