                              Psi4 1.0.54 Driver

  ==> Input File <==

--------------------------------------------------------------------------
set {
	reference rhf
	basis cc-pvtz
}

set_num_threads( 4 )
memory 2 gb

molecule MOL {
0 1

H	 -0.132050	 -0.688587	 0.856353
N	 -0.625934	 -0.663929	 -0.000707
C	 -1.978635	 -0.158664	 0.001017
C	 0.006257	 -1.104676	 -1.110959
H	 -2.519057	 -0.493535	 -0.876362
H	 -1.938890	 0.917202	 -0.004137
H	 -2.514266	 -0.485137	 0.884506
C	 1.421975	 -1.585893	 -0.880756
O	 -0.499410	 -1.112782	 -2.194153
H	 1.431142	 -2.412561	 -0.179947
H	 1.839221	 -1.907528	 -1.820716
H	 2.030814	 -0.789425	 -0.468965

	symmetry c1
}
set optking {
	frozen_dihedral = ("
		4 2 3 5
	")
}

ee,wfn = optimize('scf', return_wfn=True)
oeprop( wfn, 'DIPOLE', 'QUADRUPOLE', 'MULLIKEN_CHARGES')
f=open( 'psi4out.xyz', 'w' )
f.write( "12  " )
f.write( str(ee) + "\n" )
f.write( MOL.save_string_xyz() )
f.close()
--------------------------------------------------------------------------

    Molecular point group: c1
  Charge       = 0
  Multiplicity = 1
  Basis Set: CC-PVTZ
  Basis Set:
  @DF-RHF Final Energy:  -247.10032747614878
    Total Energy =                       -247.1003274761490047
    Molecular point group: c1
  Basis Set: CC-PVTZ
  Basis Set:
  Basis Set: CC-PVTZ
  Basis Set:
  @DF-RHF Final Energy:  -247.10090784238864
    Total Energy =                       -247.1009078423885512
  Basis Set: CC-PVTZ
  Basis Set:
  Basis Set: CC-PVTZ
  Basis Set:
  @DF-RHF Final Energy:  -247.10093176678151
    Total Energy =                       -247.1009317667815708
  Basis Set: CC-PVTZ
  Basis Set:
  Basis Set: CC-PVTZ
  Basis Set:
  @DF-RHF Final Energy:  -247.10101373271257
    Total Energy =                       -247.1010137327124312
  Basis Set: CC-PVTZ
  Basis Set:
  @DF-RHF Final Energy:  -247.10104552711800
    Total Energy =                       -247.1010455271180035
  Basis Set: CC-PVTZ
  Basis Set:
  @DF-RHF Final Energy:  -247.10105556504323
    Total Energy =                       -247.1010555650432252
  Basis Set: CC-PVTZ
  Basis Set:
  Basis Set: CC-PVTZ
  Basis Set:
  @DF-RHF Final Energy:  -247.10106532849710
    Total Energy =                       -247.1010653284970431
  Basis Set: CC-PVTZ
  Basis Set:
  Basis Set: CC-PVTZ
  Basis Set:
  @DF-RHF Final Energy:  -247.10106706675921
    Total Energy =                       -247.1010670667592422
  Basis Set: CC-PVTZ
  Basis Set:
  Charge       = 0
  Multiplicity = 1
  Basis Set: CC-PVTZ
  Basis Set:

    Orbital Energies (a.u.)
    -----------------------

    Doubly Occupied:

       1A    -20.506905     2A    -15.574774     3A    -11.336587
       4A    -11.252703     5A    -11.228088     6A     -1.388656
       7A     -1.230932     8A     -1.016649     9A     -0.932859
      10A     -0.788250    11A     -0.690887    12A     -0.651600
      13A     -0.635496    14A     -0.586437    15A     -0.582997
      16A     -0.555909    17A     -0.545463    18A     -0.510599
      19A     -0.417528    20A     -0.389552

  @DF-RHF Final Energy:  -247.10106755700815

   => Energetics <=

    Nuclear Repulsion Energy =            181.6777911378578665
    One-Electron Energy =                -695.9119782962513909
    Two-Electron Energy =                 267.1331196013853742
    DFT Exchange-Correlation Energy =       0.0000000000000000
    Empirical Dispersion Energy =           0.0000000000000000
    PCM Polarization Energy =               0.0000000000000000
    EFP Energy =                            0.0000000000000000
    Total Energy =                       -247.1010675570081503
    Molecular point group: c1
  Basis Set: CC-PVTZ
  Basis Set:

  -Total Gradient:
     Atom            X                  Y                   Z
    ------   -----------------  -----------------  -----------------
       1       -0.000004965178     0.000019258284    -0.000015999018
       2        0.000130119991     0.000316266775    -0.000068673786
       3       -0.000116423186    -0.000286007955     0.000150615928
       4       -0.000077935886    -0.000219132533     0.000051540466
       5        0.000064009418     0.000173712662    -0.000098354369
       6        0.000004493301    -0.000013952515     0.000002536284
       7       -0.000004883521    -0.000006524671    -0.000008487109
       8        0.000021643419     0.000065838144    -0.000018596352
       9       -0.000006357578    -0.000009863532    -0.000006748507
      10       -0.000020880442    -0.000020171035    -0.000009824366
      11       -0.000000177532    -0.000002396908    -0.000003639033
      12        0.000011357192    -0.000017026718     0.000025629861

  **** Optimization is complete! (in 9 steps) ****
    Final optimized geometry and variables:
    Molecular point group: c1

    Geometry (in Angstrom), charge = 0, multiplicity = 1:

    H            0.233647442707     0.278978560160     1.678751919340
    N           -0.283674409318     0.236493779275     0.836331554227
    C           -1.636185267426     0.742528094610     0.834696519158
    C            0.352546629043    -0.179237229291    -0.281406901470
    H           -2.128794162038     0.407663398386    -0.062656362162
    H           -1.661118148911     1.826515023696     0.856742884383
    H           -2.173436539509     0.365015562914     1.695025999531
    C            1.781798275568    -0.626651170200    -0.066479294624
    O           -0.167103254499    -0.202007183216    -1.357592604687
    H            1.821655276395    -1.437465499439     0.651377929379
    H            2.189949124412    -0.957972521683    -1.007174665415
    H            2.380117067841     0.191758956649     0.317261438944

  Mulliken Charges: (a.u.)
   Center  Symbol    Alpha    Beta     Spin     Total
       1     H     0.41082  0.41082  0.00000  0.17835
       2     N     3.62098  3.62098  0.00000 -0.24195
       3     C     3.08413  3.08413  0.00000 -0.16826
       4     C     2.83689  2.83689  0.00000  0.32622
       5     H     0.43293  0.43293  0.00000  0.13413
       6     H     0.45683  0.45683  0.00000  0.08634
       7     H     0.45490  0.45490  0.00000  0.09020
       8     C     3.15374  3.15374  0.00000 -0.30749
       9     O     4.21527  4.21527  0.00000 -0.43053
      10     H     0.44961  0.44961  0.00000  0.10078
      11     H     0.43355  0.43355  0.00000  0.13291
      12     H     0.45035  0.45035  0.00000  0.09930

   Total alpha = 20.00000, Total beta = 20.00000, Total charge =  0.00000

*** Psi4 exiting successfully. Buy a developer a beer!
