  ==> Input File <==

--------------------------------------------------------------------------
set {
	reference rhf
	basis 6-31G*
}

set_num_threads( 4 )
memory 2 gb

molecule MOL {
0 1

O	 -2.042549	 -1.228399	 -0.269030
C	 -1.653912	 -0.146171	 0.050137
C	 -0.332303	 0.024011	 0.778412
C	 -2.438579	 1.106236	 -0.272369
C	 -0.491851	 -0.262188	 2.279914
H	 0.423294	 -0.631976	 0.355166
H	 -0.008405	 1.049202	 0.637000
C	 0.811432	 -0.072198	 3.057338
H	 -0.850309	 -1.279876	 2.424491
H	 -1.257316	 0.396863	 2.678482
C	 0.653580	 -0.347450	 4.552171
H	 1.576107	 -0.728290	 2.647168
H	 1.169512	 0.944321	 2.912299
H	 0.328627	 -1.368398	 4.731404
H	 -0.081888	 0.316364	 4.997008
H	 1.591852	 -0.202093	 5.078046
H	 -3.277823	 0.863061	 -0.908988
H	 -1.806773	 1.843019	 -0.759671
H	 -2.802853	 1.554979	 0.648059

	symmetry c1
}
set optking {
	frozen_dihedral = ("
		5 3 2 4
	")
}

ee = optimize('scf')
oeprop('DIPOLE', 'QUADRUPOLE', 'MULLIKEN_CHARGES')
f=open( 'psi4out.xyz', 'w' )
f.write( "19  " )
f.write( str(ee) + "\n" )
f.write( MOL.save_string_xyz() )
f.close()
--------------------------------------------------------------------------

    Molecular point group: c1
  Charge       = 0
  Multiplicity = 1
  Basis Set: 6-31G*
  Basis Set:
  @DF-RHF Final Energy:  -309.06398671762304
    Total Energy =                       -309.0639867176233793
    Molecular point group: c1
  Basis Set: 6-31G*
  Basis Set:
  Basis Set: 6-31G*
  Basis Set:
  @DF-RHF Final Energy:  -309.06316706663739
    Total Energy =                       -309.0631670666377318
  Basis Set: 6-31G*
  Basis Set:
  Basis Set: 6-31G*
  Basis Set:
  @DF-RHF Final Energy:  -309.06469489932653
    Total Energy =                       -309.0646948993267529
  Basis Set: 6-31G*
  Basis Set:
  Basis Set: 6-31G*
  Basis Set:
  @DF-RHF Final Energy:  -309.06507444572082
    Total Energy =                       -309.0650744457208248
  Basis Set: 6-31G*
  Basis Set:
  @DF-RHF Final Energy:  -309.06464125210505
    Total Energy =                       -309.0646412521054458
  Basis Set: 6-31G*
  Basis Set:
  @DF-RHF Final Energy:  -309.06513507254272
    Total Energy =                       -309.0651350725425459
  Basis Set: 6-31G*
  Basis Set:
  Basis Set: 6-31G*
  Basis Set:
  @DF-RHF Final Energy:  -309.06515883893371
    Total Energy =                       -309.0651588389337121
  Basis Set: 6-31G*
  Basis Set:
  Basis Set: 6-31G*
  Basis Set:
  @DF-RHF Final Energy:  -309.06515710484393
    Total Energy =                       -309.0651571048440474
  Basis Set: 6-31G*
  Basis Set:
  Charge       = 0
  Multiplicity = 1
  Basis Set: 6-31G*
  Basis Set:

    Orbital Energies (a.u.)
    -----------------------

    Doubly Occupied:

       1A    -20.547558     2A    -11.324742     3A    -11.230169
       4A    -11.229400     5A    -11.228396     6A    -11.224588
       7A    -11.214693     8A     -1.393361     9A     -1.091037
      10A     -1.029251    11A     -0.983965    12A     -0.889663
      13A     -0.806469    14A     -0.733244    15A     -0.663389
      16A     -0.645408    17A     -0.622516    18A     -0.613005
      19A     -0.582393    20A     -0.573061    21A     -0.552894
      22A     -0.537138    23A     -0.513345    24A     -0.498667
      25A     -0.481983    26A     -0.475573    27A     -0.467035
      28A     -0.396932

  @DF-RHF Final Energy:  -309.06516035114532

   => Energetics <=

    Nuclear Repulsion Energy =            301.2091517635641367
    One-Electron Energy =               -1015.4488714678910810
    Two-Electron Energy =                 405.1745593531815075
    DFT Exchange-Correlation Energy =       0.0000000000000000
    Empirical Dispersion Energy =           0.0000000000000000
    PCM Polarization Energy =               0.0000000000000000
    EFP Energy =                            0.0000000000000000
    Total Energy =                       -309.0651603511454368
    Molecular point group: c1
  Basis Set: 6-31G*
  Basis Set:

  -Total Gradient:
     Atom            X                  Y                   Z
    ------   -----------------  -----------------  -----------------
       1        0.000011344276    -0.000001289527     0.000007785911
       2       -0.000049086398    -0.000005159156     0.000029768882
       3        0.000003246962     0.000041158814    -0.000001646909
       4        0.000022290681    -0.000022444451    -0.000040555993
       5        0.000003754358    -0.000028617838    -0.000014322336
       6        0.000001340946     0.000001340823    -0.000010041666
       7       -0.000000677185    -0.000003258764    -0.000001669678
       8       -0.000003313004     0.000006674102     0.000005433636
       9        0.000003371334     0.000001582850     0.000002594773
      10       -0.000000877231    -0.000001891044     0.000011657022
      11        0.000004185138    -0.000005740610     0.000001579679
      12       -0.000002935478    -0.000000224281     0.000003218813
      13       -0.000000070967     0.000000850184    -0.000004006650
      14       -0.000001284902    -0.000000489016     0.000002286141
      15        0.000001973852     0.000000266367    -0.000003010652
      16        0.000000184656    -0.000000576527     0.000002015166
      17        0.000002021631     0.000007172511     0.000002331945
      18        0.000003158808     0.000007355038     0.000000869318
      19        0.000001372524     0.000003290528     0.000005712605

  **** Optimization is complete! (in 9 steps) ****
    Final optimized geometry and variables:
    Molecular point group: c1

    Geometry (in Angstrom), charge = 0, multiplicity = 1:

    O           -1.201825731108    -1.104285106189    -1.735326558947
    C           -0.843062136322    -0.007776668805    -1.430217773327
    C            0.459824375917     0.204020256726    -0.678874356337
    C           -1.670643361149     1.216890230258    -1.750874141874
    C            0.287998388734    -0.106457676974     0.816248803369
    H            1.197930194443    -0.466386222302    -1.105596795457
    H            0.813857719101     1.222943942869    -0.807667087656
    C            1.586547681335     0.062754105847     1.606222147158
    H           -0.075265160466    -1.124506412882     0.918351048018
    H           -0.476903724361     0.541715401337     1.240589142135
    C            1.420166536764    -0.253929975818     3.091908776644
    H            2.350451799008    -0.584375698961     1.181610525672
    H            1.949566256766     1.081854533328     1.491741086083
    H            1.089140069817    -1.277708544543     3.239329852791
    H            0.685973430704     0.400520716624     3.553128130315
    H            2.356632158933    -0.128463971543     3.626084414342
    H           -2.623862760388     0.921130749157    -2.166345071414
    H           -1.141095378013     1.837892316738    -2.468612191376
    H           -1.826946029996     1.819118559149    -0.860538855733

  Mulliken Charges: (a.u.)
   Center  Symbol    Alpha    Beta     Spin     Total
       1     O     4.26222  4.26222  0.00000 -0.52445
       2     C     2.73716  2.73716  0.00000  0.52569
       3     C     3.20019  3.20019  0.00000 -0.40038
       4     C     3.28954  3.28954  0.00000 -0.57908
       5     C     3.16065  3.16065  0.00000 -0.32131
       6     H     0.40118  0.40118  0.00000  0.19764
       7     H     0.41688  0.41688  0.00000  0.16623
       8     C     3.15185  3.15185  0.00000 -0.30369
       9     H     0.40601  0.40601  0.00000  0.18797
      10     H     0.42109  0.42109  0.00000  0.15782
      11     C     3.24031  3.24031  0.00000 -0.48063
      12     H     0.41931  0.41931  0.00000  0.16137
      13     H     0.42248  0.42248  0.00000  0.15504
      14     H     0.41879  0.41879  0.00000  0.16242
      15     H     0.42118  0.42118  0.00000  0.15763
      16     H     0.41751  0.41751  0.00000  0.16499
      17     H     0.39704  0.39704  0.00000  0.20593
      18     H     0.40685  0.40685  0.00000  0.18631
      19     H     0.40976  0.40976  0.00000  0.18049

   Total alpha = 28.00000, Total beta = 28.00000, Total charge = -0.00000
