  ==> Input File <==

--------------------------------------------------------------------------
set {
	reference rhf
	basis 6-31G*
}

set_num_threads( 4 )
memory 2 gb

molecule MOL {
0 1

H	 -2.646374	 -0.642757	 1.268656
C	 -2.083525	 -0.384536	 0.393091
O	 -0.807605	 -0.127164	 0.768327
F	 -2.118945	 -1.383102	 -0.486752
F	 -2.621877	 0.670592	 -0.209486
C	 0.084052	 0.273579	 -0.209957
C	 1.045119	 -0.886014	 -0.437674
Cl	 0.965549	 1.724381	 0.295368
H	 -0.404117	 0.496510	 -1.142570
F	 1.920801	 -0.580513	 -1.371477
F	 0.357328	 -1.932783	 -0.848352
F	 1.690287	 -1.215675	 0.654596

	symmetry c1
}
set optking {
	frozen_dihedral = ("
		9 6 3 2
	")
}

ee = optimize('scf')
oeprop('DIPOLE', 'QUADRUPOLE', 'MULLIKEN_CHARGES')
f=open( 'psi4out.xyz', 'w' )
f.write( "12  " )
f.write( str(ee) + "\n" )
f.write( MOL.save_string_xyz() )
f.close()
--------------------------------------------------------------------------

    Molecular point group: c1
  Charge       = 0
  Multiplicity = 1
  Basis Set: 6-31G*
  Basis Set:
  @DF-RHF Final Energy: -1146.31161508993864
    Total Energy =                      -1146.3116150899381864
    Molecular point group: c1
  Basis Set: 6-31G*
  Basis Set:
  Basis Set: 6-31G*
  Basis Set:
  @DF-RHF Final Energy: -1146.31256968920002
    Total Energy =                      -1146.3125696892002452
  Basis Set: 6-31G*
  Basis Set:
  Basis Set: 6-31G*
  Basis Set:
  @DF-RHF Final Energy: -1146.31293744644881
    Total Energy =                      -1146.3129374464494958
  Basis Set: 6-31G*
  Basis Set:
  Basis Set: 6-31G*
  Basis Set:
  @DF-RHF Final Energy: -1146.31303535814595
    Total Energy =                      -1146.3130353581468626
  Basis Set: 6-31G*
  Basis Set:
  Basis Set: 6-31G*
  Basis Set:
  @DF-RHF Final Energy: -1146.31305239945209
    Total Energy =                      -1146.3130523994523173
  Basis Set: 6-31G*
  Basis Set:
  Basis Set: 6-31G*
  Basis Set:
  @DF-RHF Final Energy: -1146.31305447406658
    Total Energy =                      -1146.3130544740661207
  Basis Set: 6-31G*
  Basis Set:
  Charge       = 0
  Multiplicity = 1
  Basis Set: 6-31G*
  Basis Set:

    Orbital Energies (a.u.)
    -----------------------

    Doubly Occupied:

       1A   -104.844670     2A    -26.359527     3A    -26.358669
       4A    -26.357088     5A    -26.346435     6A    -26.345468
       7A    -20.649038     8A    -11.527149     9A    -11.489541
      10A    -11.401586    11A    -10.579305    12A     -8.048669
      13A     -8.045115    14A     -8.045018    15A     -1.761003
      16A     -1.717572    17A     -1.657125    18A     -1.655992
      19A     -1.638062    20A     -1.484701    21A     -1.180823
      22A     -1.047742    23A     -0.988722    24A     -0.918828
      25A     -0.857555    26A     -0.853015    27A     -0.844278
      28A     -0.828403    29A     -0.812079    30A     -0.790405
      31A     -0.728340    32A     -0.724206    33A     -0.705934
      34A     -0.699728    35A     -0.675919    36A     -0.674692
      37A     -0.657943    38A     -0.655311    39A     -0.645674
      40A     -0.637103    41A     -0.595918    42A     -0.577477
      43A     -0.525666    44A     -0.477693    45A     -0.468940

  @DF-RHF Final Energy: -1146.31305492956108

   => Energetics <=

    Nuclear Repulsion Energy =            740.3737762641036397
    One-Electron Energy =               -3063.6054104306567751
    Two-Electron Energy =                1176.9185792369926276
    DFT Exchange-Correlation Energy =       0.0000000000000000
    Empirical Dispersion Energy =           0.0000000000000000
    PCM Polarization Energy =               0.0000000000000000
    EFP Energy =                            0.0000000000000000
    Total Energy =                      -1146.3130549295606215
    Molecular point group: c1
  Basis Set: 6-31G*
  Basis Set:

  -Total Gradient:
     Atom            X                  Y                   Z
    ------   -----------------  -----------------  -----------------
       1        0.000005104653     0.000000161854    -0.000002316634
       2        0.000782943354    -0.003239073888    -0.000574882839
       3       -0.001195301952     0.005842931346     0.001189073542
       4       -0.000015058015    -0.000034515725     0.000000641443
       5       -0.000022657010     0.000050725500     0.000004827188
       6        0.000773585517    -0.006422357849    -0.001751439899
       7       -0.000111198972    -0.000075398723    -0.000004101094
       8       -0.000005852990     0.000009996991     0.000008484908
       9       -0.000329782060     0.003833168045     0.001148654496
      10        0.000032679169    -0.000022311625    -0.000005680861
      11        0.000058117352     0.000043066191    -0.000007508674
      12        0.000027420941     0.000013607993    -0.000005751601

  **** Optimization is complete! (in 7 steps) ****
    Final optimized geometry and variables:
    Molecular point group: c1

    Geometry (in Angstrom), charge = 0, multiplicity = 1:

    H           -2.607646088146    -0.457081531001     1.396241104339
    C           -2.062303646856    -0.162753206892     0.521066939252
    O           -0.774554781134     0.057906832500     0.881271221327
    F           -2.148204252223    -1.102754020048    -0.413768202633
    F           -2.593305995879     0.940452377875    -0.003057223693
    C            0.125053947924     0.428869714518    -0.105317597247
    C            1.131861407350    -0.697583392295    -0.311414948923
    CL           0.963264569131     1.903857302849     0.406849964785
    H           -0.361585396560     0.663999358077    -1.035507241769
    F            1.995414387931    -0.370010050590    -1.249680476742
    F            0.502499296373    -1.786949430424    -0.699169754516
    F            1.788916567686    -0.972218376694     0.789832498310

  Mulliken Charges: (a.u.)
   Center  Symbol    Alpha    Beta     Spin     Total
       1     H     0.40121  0.40121  0.00000  0.19757
       2     C     2.56563  2.56563  0.00000  0.86874
       3     O     4.29791  4.29791  0.00000 -0.59583
       4     F     4.68476  4.68476  0.00000 -0.36953
       5     F     4.68673  4.68673  0.00000 -0.37345
       6     C     3.05045  3.05045  0.00000 -0.10090
       7     C     2.43444  2.43444  0.00000  1.13112
       8    CL     8.49713  8.49713  0.00000  0.00573
       9     H     0.36539  0.36539  0.00000  0.26921
      10     F     4.67365  4.67365  0.00000 -0.34730
      11     F     4.67438  4.67438  0.00000 -0.34875
      12     F     4.66831  4.66831  0.00000 -0.33661

   Total alpha = 45.00000, Total beta = 45.00000, Total charge =  0.00000
