  ==> Input File <==

--------------------------------------------------------------------------
set {
	reference rhf
	basis 6-31G*
}

set_num_threads( 1 )
memory 2 gb

molecule MOL {
0 1

O	 1.214711	 1.306902	 -0.000018
C	 1.122059	 0.121804	 -0.000188
C	 -0.170150	 -0.657997	 -0.000612
O	 2.172624	 -0.688929	 0.000216
C	 -1.412532	 0.227344	 -0.000452
H	 -0.153702	 -1.313099	 -0.867402
H	 -0.153924	 -1.313811	 0.865644
C	 -1.152502	 1.593934	 0.635302
H	 -2.213270	 -0.278872	 0.529706
H	 -1.760809	 0.356284	 -1.020541
C	 -2.391763	 2.487928	 0.638471
H	 -0.803025	 1.458946	 1.656928
H	 -0.347639	 2.095704	 0.101921
H	 -3.204287	 2.028738	 1.193993
H	 -2.180556	 3.450008	 1.094618
H	 -2.745269	 2.670546	 -0.372135
C	 3.452279	 -0.082609	 0.000533
H	 3.583069	 0.529321	 -0.880332
H	 4.163299	 -0.894027	 0.001117
H	 3.582335	 0.529955	 0.881077

	symmetry c1
}
set optking {
	frozen_dihedral = ("
		9 5 8 12,
		1 2 3 6,
		1 2 4 17
	")
}

ee = energy('scf')
oeprop('DIPOLE', 'QUADRUPOLE', 'MULLIKEN_CHARGES')
f=open( 'psi4out.xyz', 'w' )
f.write( "20  " )
f.write( str(ee) + "\n" )
f.write( MOL.save_string_xyz() )
f.close()
--------------------------------------------------------------------------

    Molecular point group: c1

    Geometry (in Angstrom), charge = 0, multiplicity = 1:

       Center              X                  Y                   Z               Mass
    ------------   -----------------  -----------------  -----------------  -----------------
           O          0.824496377545     0.759349871250    -0.159293796903    15.994914619560
           C          0.731844377545    -0.425748128750    -0.159463796903    12.000000000000
           C         -0.560364622455    -1.205549128750    -0.159887796903    12.000000000000
           O          1.782409377545    -1.236481128750    -0.159059796903    15.994914619560
           C         -1.802746622455    -0.320208128750    -0.159727796903    12.000000000000
           H         -0.543916622455    -1.860651128750    -1.026677796903     1.007825032070
           H         -0.544138622455    -1.861363128750     0.706368203097     1.007825032070
           C         -1.542716622455     1.046381871250     0.476026203097    12.000000000000
           H         -2.603484622455    -0.826424128750     0.370430203097     1.007825032070
           H         -2.151023622455    -0.191268128750    -1.179816796903     1.007825032070
           C         -2.781977622455     1.940375871250     0.479195203097    12.000000000000
           H         -1.193239622455     0.911393871250     1.497652203097     1.007825032070
           H         -0.737853622455     1.548151871250    -0.057354796903     1.007825032070
           H         -3.594501622455     1.481185871250     1.034717203097     1.007825032070
           H         -2.570770622455     2.902455871250     0.935342203097     1.007825032070
           H         -3.135483622455     2.122993871250    -0.531410796903     1.007825032070
           C          3.062064377545    -0.630161128750    -0.158742796903    12.000000000000
           H          3.192854377545    -0.018231128750    -1.039607796903     1.007825032070
           H          3.773084377545    -1.441579128750    -0.158158796903     1.007825032070
           H          3.192120377545    -0.017597128750     0.721801203097     1.007825032070

  Charge       = 0
  Multiplicity = 1
  Basis Set: 6-31G*
  Basis Set:

    Orbital Energies (a.u.)
    -----------------------

    Doubly Occupied:

       1A    -20.607404     2A    -20.545979     3A    -11.378127
       4A    -11.283537     5A    -11.236826     6A    -11.216801
       7A    -11.193563     8A    -11.187965     9A     -1.474835
      10A     -1.371284    11A     -1.083428    12A     -1.017172
      13A     -0.966293    14A     -0.879404    15A     -0.799898
      16A     -0.775624    17A     -0.699020    18A     -0.687088
      19A     -0.673703    20A     -0.636620    21A     -0.604372
      22A     -0.579023    23A     -0.569519    24A     -0.542559
      25A     -0.537546    26A     -0.519699    27A     -0.501442
      28A     -0.491666    29A     -0.466352    30A     -0.455656
      31A     -0.451221    32A     -0.399179

  @DF-RHF Final Energy:  -383.91184679318962

   => Energetics <=

    Nuclear Repulsion Energy =            396.8550633030631616
    One-Electron Energy =               -1309.8681973837683472
    Two-Electron Energy =                 529.1012872875155608
    DFT Exchange-Correlation Energy =       0.0000000000000000
    Empirical Dispersion Energy =           0.0000000000000000
    PCM Polarization Energy =               0.0000000000000000
    EFP Energy =                            0.0000000000000000
    Total Energy =                       -383.9118467931896248

  Mulliken Charges: (a.u.)
   Center  Symbol    Alpha    Beta     Spin     Total
       1     O     4.28855  4.28855  0.00000 -0.57709
       2     C     2.60117  2.60117  0.00000  0.79766
       3     C     3.21164  3.21164  0.00000 -0.42329
       4     O     4.30724  4.30724  0.00000 -0.61449
       5     C     3.15485  3.15485  0.00000 -0.30970
       6     H     0.39683  0.39683  0.00000  0.20634
       7     H     0.39785  0.39785  0.00000  0.20430
       8     C     3.16768  3.16768  0.00000 -0.33536
       9     H     0.41809  0.41809  0.00000  0.16381
      10     H     0.41860  0.41860  0.00000  0.16280
      11     C     3.23693  3.23693  0.00000 -0.47386
      12     H     0.43079  0.43079  0.00000  0.13842
      13     H     0.37429  0.37429  0.00000  0.25142
      14     H     0.42994  0.42994  0.00000  0.14013
      15     H     0.42109  0.42109  0.00000  0.15781
      16     H     0.42611  0.42611  0.00000  0.14778
      17     C     3.09290  3.09290  0.00000 -0.18580
      18     H     0.40895  0.40895  0.00000  0.18210
      19     H     0.40771  0.40771  0.00000  0.18458
      20     H     0.40878  0.40878  0.00000  0.18244

   Total alpha = 32.00000, Total beta = 32.00000, Total charge =  0.00000
