  ==> Input File <==

--------------------------------------------------------------------------
set {
	reference rhf
	basis 6-31G*
}

set_num_threads( 4 )
memory 2 gb

molecule MOL {
0 1

H	 3.455811	 0.996119	 -1.169687
N	 2.688605	 0.351963	 -1.168480
C	 1.865559	 0.531981	 0.018834
H	 3.083992	 -0.569025	 -1.185227
C	 0.645745	 -0.382037	 -0.029944
H	 1.537580	 1.566821	 0.038689
H	 2.411359	 0.358694	 0.949679
C	 -0.679275	 0.379305	 0.025956
H	 0.698998	 -0.976915	 -0.937203
H	 0.693479	 -1.083846	 0.802235
C	 -1.903357	 -0.536963	 -0.023547
H	 -0.726309	 1.082987	 -0.803784
H	 -0.717680	 0.977832	 0.934877
C	 -3.225172	 0.228290	 0.028445
H	 -1.867824	 -1.134999	 -0.931459
H	 -1.860449	 -1.239604	 0.805977
H	 -3.313397	 0.915643	 -0.808262
H	 -4.073500	 -0.448134	 -0.008893
H	 -3.306061	 0.809945	 0.942516

	symmetry c1
}
set optking {
	frozen_dihedral = ("
		6 3 5 9
	")
}

ee = optimize('scf')
oeprop('DIPOLE', 'QUADRUPOLE', 'MULLIKEN_CHARGES')
f=open( 'psi4out.xyz', 'w' )
f.write( "19  " )
f.write( str(ee) + "\n" )
f.write( MOL.save_string_xyz() )
f.close()
--------------------------------------------------------------------------

    Molecular point group: c1
  Charge       = 0
  Multiplicity = 1
  Basis Set: 6-31G*
  Basis Set:
  @DF-RHF Final Energy:  -251.34559672510773
    Total Energy =                       -251.3455967251078960
    Molecular point group: c1
  Basis Set: 6-31G*
  Basis Set:
  Basis Set: 6-31G*
  Basis Set:
  @DF-RHF Final Energy:  -251.34586681225804
    Total Energy =                       -251.3458668122580093
  Basis Set: 6-31G*
  Basis Set:
  Basis Set: 6-31G*
  Basis Set:
  @DF-RHF Final Energy:  -251.34596666225696
    Total Energy =                       -251.3459666622568420
  Basis Set: 6-31G*
  Basis Set:
  Charge       = 0
  Multiplicity = 1
  Basis Set: 6-31G*
  Basis Set:

    Orbital Energies (a.u.)
    -----------------------

    Doubly Occupied:

       1A    -15.532821     2A    -11.239740     3A    -11.212003
       4A    -11.210590     5A    -11.209223     6A    -11.206003
       7A     -1.175505     8A     -1.070602     9A     -0.995470
      10A     -0.898851    11A     -0.813691    12A     -0.788317
      13A     -0.655748    14A     -0.648477    15A     -0.613240
      16A     -0.590087    17A     -0.551331    18A     -0.549519
      19A     -0.538627    20A     -0.488863    21A     -0.483814
      22A     -0.461664    23A     -0.458446    24A     -0.451729
      25A     -0.378663

  @DF-RHF Final Energy:  -251.34596745270693

   => Energetics <=

    Nuclear Repulsion Energy =            246.1168636855572345
    One-Electron Energy =                -826.4796122065888540
    Two-Electron Energy =                 329.0167810683246330
    DFT Exchange-Correlation Energy =       0.0000000000000000
    Empirical Dispersion Energy =           0.0000000000000000
    PCM Polarization Energy =               0.0000000000000000
    EFP Energy =                            0.0000000000000000
    Total Energy =                       -251.3459674527069296
    Molecular point group: c1
  Basis Set: 6-31G*
  Basis Set:

  -Total Gradient:
     Atom            X                  Y                   Z
    ------   -----------------  -----------------  -----------------
       1        0.000019649710     0.000007646742    -0.000021925938
       2       -0.000024131828     0.000067882675     0.000066952269
       3        0.000087022375    -0.000147941182    -0.000388737254
       4       -0.000034464476     0.000015516762     0.000038208093
       5       -0.000241118585     0.000286095211    -0.000101025829
       6        0.000014688776    -0.000007936122     0.000243678443
       7        0.000014711265     0.000011432363     0.000021707978
       8        0.000042357416    -0.000029678684     0.000018338159
       9        0.000153796955    -0.000209403351     0.000119211614
      10        0.000005981430     0.000006233798    -0.000002562231
      11       -0.000011169902     0.000005720622    -0.000001105611
      12        0.000007725097    -0.000007773401     0.000004516082
      13       -0.000006085569     0.000014643901     0.000003879324
      14       -0.000009459462    -0.000013956065     0.000003551632
      15       -0.000002245467     0.000000684804     0.000001061637
      16       -0.000004031624    -0.000000488520    -0.000006647239
      17        0.000001094811    -0.000003639663     0.000002662099
      18       -0.000015750361     0.000006221521     0.000001276495
      19        0.000001429440    -0.000001261410    -0.000003039725

  **** Optimization is complete! (in 4 steps) ****
    Final optimized geometry and variables:
    Molecular point group: c1

    Geometry (in Angstrom), charge = 0, multiplicity = 1:

    H            3.537909032800     0.899504392713    -0.964708742966
    N            2.762058382702     0.265147972070    -0.976174958747
    C            1.946914579362     0.430323189222     0.221395226750
    H            3.147511360853    -0.659712818842    -1.011246608211
    C            0.709996360420    -0.488450254444     0.182756984707
    H            1.631687609068     1.468103826676     0.252486752425
    H            2.508136717882     0.254787366850     1.140786436064
    C           -0.616616528007     0.272558262796     0.228507684660
    H            0.748258788702    -1.077786284080    -0.728734037253
    H            0.743891787061    -1.194079885642     1.009564230913
    C           -1.840962742594    -0.642149140704     0.180381116793
    H           -0.652024441028     0.969250064502    -0.606739797425
    H           -0.655736715436     0.876926832692     1.133933231895
    C           -3.162167643216     0.124986220558     0.223701413205
    H           -1.803271964520    -1.244727420280    -0.724618350339
    H           -1.802343072462    -1.340856742163     1.013722435770
    H           -3.246296734893     0.807752781748    -0.617037446824
    H           -4.011462080108    -0.550406040693     0.187281470271
    H           -3.245286558057     0.711759887431     1.134312768812

  Mulliken Charges: (a.u.)
   Center  Symbol    Alpha    Beta     Spin     Total
       1     H     0.33354  0.33354  0.00000  0.33293
       2     N     3.92075  3.92075  0.00000 -0.84149
       3     C     3.06572  3.06572  0.00000 -0.13145
       4     H     0.33547  0.33547  0.00000  0.32905
       5     C     3.15685  3.15685  0.00000 -0.31370
       6     H     0.41768  0.41768  0.00000  0.16464
       7     H     0.43231  0.43231  0.00000  0.13537
       8     C     3.15513  3.15513  0.00000 -0.31027
       9     H     0.41354  0.41354  0.00000  0.17293
      10     H     0.42393  0.42393  0.00000  0.15215
      11     C     3.15216  3.15216  0.00000 -0.30432
      12     H     0.41848  0.41848  0.00000  0.16304
      13     H     0.42548  0.42548  0.00000  0.14904
      14     C     3.23920  3.23920  0.00000 -0.47841
      15     H     0.42207  0.42207  0.00000  0.15586
      16     H     0.42414  0.42414  0.00000  0.15171
      17     H     0.42122  0.42122  0.00000  0.15755
      18     H     0.41986  0.41986  0.00000  0.16028
      19     H     0.42245  0.42245  0.00000  0.15510

   Total alpha = 25.00000, Total beta = 25.00000, Total charge =  0.00000
