  ==> Input File <==

--------------------------------------------------------------------------
set {
	reference rhf
	basis cc-pvtz
}

set_num_threads( 4 )
memory 2 gb

molecule MOL {
0 1

O	 -2.071633	 -1.227563	 -0.223463
C	 -1.652164	 -0.152425	 0.058082
C	 -0.327811	 0.006324	 0.778296
C	 -2.402515	 1.108629	 -0.298924
C	 0.843231	 -0.001575	 -0.211665
H	 -0.319484	 0.928173	 1.350354
H	 -0.227804	 -0.823091	 1.466705
C	 2.197693	 0.138030	 0.476937
H	 0.722944	 0.805202	 -0.930230
H	 0.813976	 -0.926978	 -0.776588
C	 2.455030	 -0.956240	 1.507235
H	 2.985607	 0.122582	 -0.271046
H	 2.253436	 1.109248	 0.959811
H	 2.440342	 -1.938826	 1.047514
H	 1.700190	 -0.945068	 2.285990
H	 3.421199	 -0.827571	 1.980905
H	 -3.240910	 0.874416	 -0.936711
H	 -1.747554	 1.818823	 -0.790984
H	 -2.760419	 1.579708	 0.610998

	symmetry c1
}
set optking {
	frozen_dihedral = ("
		11 8 5 9
	")
}

ee = optimize('scf')
oeprop('DIPOLE', 'QUADRUPOLE', 'MULLIKEN_CHARGES')
f=open( 'psi4out.xyz', 'w' )
f.write( "19  " )
f.write( str(ee) + "\n" )
f.write( MOL.save_string_xyz() )
f.close()
--------------------------------------------------------------------------

    Molecular point group: c1
  Charge       = 0
  Multiplicity = 1
  Basis Set: CC-PVTZ
  Basis Set:
  @DF-RHF Final Energy:  -309.17462156046929
    Total Energy =                       -309.1746215604691770
    Molecular point group: c1
  Basis Set: CC-PVTZ
  Basis Set:
  Basis Set: CC-PVTZ
  Basis Set:
  @DF-RHF Final Energy:  -309.17517410116466
    Total Energy =                       -309.1751741011649415
  Basis Set: CC-PVTZ
  Basis Set:
  Basis Set: CC-PVTZ
  Basis Set:
  @DF-RHF Final Energy:  -309.17555861862962
    Total Energy =                       -309.1755586186294522
  Basis Set: CC-PVTZ
  Basis Set:
  Basis Set: CC-PVTZ
  Basis Set:
  @DF-RHF Final Energy:  -309.17539374470641
    Total Energy =                       -309.1753937447062981
  Basis Set: CC-PVTZ
  Basis Set:
  Basis Set: CC-PVTZ
  Basis Set:
  @DF-RHF Final Energy:  -309.17553169435689
    Total Energy =                       -309.1755316943570051
  Basis Set: CC-PVTZ
  Basis Set:
  Basis Set: CC-PVTZ
  Basis Set:
  @DF-RHF Final Energy:  -309.17559365622628
    Total Energy =                       -309.1755936562262264
  Basis Set: CC-PVTZ
  Basis Set:
  Basis Set: CC-PVTZ
  Basis Set:
  @DF-RHF Final Energy:  -309.17559670245203
    Total Energy =                       -309.1755967024519123
  Basis Set: CC-PVTZ
  Basis Set:
  Charge       = 0
  Multiplicity = 1
  Basis Set: CC-PVTZ
  Basis Set:

    Orbital Energies (a.u.)
    -----------------------

    Doubly Occupied:

       1A    -20.536747     2A    -11.319368     3A    -11.229170
       4A    -11.227359     5A    -11.226987     6A    -11.223551
       7A    -11.212651     8A     -1.396919     9A     -1.092604
      10A     -1.028679    11A     -0.982016    12A     -0.901270
      13A     -0.798209    14A     -0.736129    15A     -0.660191
      16A     -0.653668    17A     -0.623885    18A     -0.602978
      19A     -0.594436    20A     -0.578510    21A     -0.549820
      22A     -0.543881    23A     -0.513687    24A     -0.504053
      25A     -0.482527    26A     -0.474445    27A     -0.464543
      28A     -0.399567

  @DF-RHF Final Energy:  -309.17559782445448

   => Energetics <=

    Nuclear Repulsion Energy =            305.2058980640019854
    One-Electron Energy =               -1023.6472880182684548
    Two-Electron Energy =                 409.2657921298121551
    DFT Exchange-Correlation Energy =       0.0000000000000000
    Empirical Dispersion Energy =           0.0000000000000000
    PCM Polarization Energy =               0.0000000000000000
    EFP Energy =                            0.0000000000000000
    Total Energy =                       -309.1755978244543144
    Molecular point group: c1
  Basis Set: CC-PVTZ
  Basis Set:

  -Total Gradient:
     Atom            X                  Y                   Z
    ------   -----------------  -----------------  -----------------
       1       -0.000006267404    -0.000002114168     0.000001258459
       2        0.000008770474    -0.000001493810    -0.000004802961
       3        0.000003317917    -0.000005457595    -0.000003018587
       4       -0.000007374625     0.000001299646     0.000010352807
       5        0.000570158695    -0.000736583824    -0.000943549148
       6        0.000000663731     0.000002414210     0.000000753480
       7       -0.000002875628     0.000000577977    -0.000002211756
       8        0.000528374135    -0.000697232839    -0.000865498930
       9       -0.000631372597     0.000823413917     0.001034291130
      10        0.000001836503     0.000000659441     0.000002283776
      11       -0.000466764070     0.000616485915     0.000776974316
      12       -0.000002227899     0.000001215628    -0.000001678584
      13       -0.000001826449    -0.000001173750    -0.000000758636
      14       -0.000000194844     0.000001002120     0.000000091704
      15        0.000001586252    -0.000001885389     0.000000726716
      16        0.000000837748    -0.000001497285     0.000001338734
      17        0.000001611842    -0.000001014035    -0.000001120188
      18        0.000000697860    -0.000000773139    -0.000002015651
      19        0.000001048358     0.000002156980    -0.000003416681

  **** Optimization is complete! (in 8 steps) ****
    Final optimized geometry and variables:
    Molecular point group: c1

    Geometry (in Angstrom), charge = 0, multiplicity = 1:

    O           -1.972058866504    -1.033867174278    -0.612497026208
    C           -1.532430686676     0.015781747901    -0.271574790800
    C           -0.225054197631     0.105265276813     0.490180516618
    C           -2.240097896215     1.311437906337    -0.590067576068
    C            0.965493801830     0.102402948989    -0.479621701734
    H           -0.203891261653     1.006241334435     1.095149514059
    H           -0.176952393776    -0.750556746055     1.148479656796
    C            2.324259519078     0.291771465246     0.196523141842
    H            0.830097646278     0.903442105103    -1.200738920109
    H            0.955251922766    -0.828127787696    -1.036384774873
    C            2.671302154497    -0.760190963469     1.246526333114
    H            3.087613268182     0.287988136218    -0.574847823240
    H            2.360428617069     1.277207326708     0.653555958236
    H            2.611150881279    -1.761659502389     0.833096169493
    H            2.007121787511    -0.714572322085     2.100879737965
    H            3.680937129329    -0.614215392504     1.612222489994
    H           -3.062940830663     1.129712260219    -1.264193178253
    H           -1.553309212192     2.028393007154    -1.025487950984
    H           -2.616235257937     1.746113576756     0.330604573563

  Mulliken Charges: (a.u.)
   Center  Symbol    Alpha    Beta     Spin     Total
       1     O     4.17712  4.17712  0.00000 -0.35424
       2     C     2.85805  2.85805  0.00000  0.28389
       3     C     3.10350  3.10350  0.00000 -0.20699
       4     C     3.15469  3.15469  0.00000 -0.30938
       5     C     3.10394  3.10394  0.00000 -0.20789
       6     H     0.44908  0.44908  0.00000  0.10184
       7     H     0.43706  0.43706  0.00000  0.12587
       8     C     3.09082  3.09082  0.00000 -0.18163
       9     H     0.44708  0.44708  0.00000  0.10584
      10     H     0.44011  0.44011  0.00000  0.11977
      11     C     3.15395  3.15395  0.00000 -0.30789
      12     H     0.44649  0.44649  0.00000  0.10703
      13     H     0.45381  0.45381  0.00000  0.09239
      14     H     0.45100  0.45100  0.00000  0.09800
      15     H     0.45308  0.45308  0.00000  0.09385
      16     H     0.44504  0.44504  0.00000  0.10993
      17     H     0.43591  0.43591  0.00000  0.12819
      18     H     0.45100  0.45100  0.00000  0.09799
      19     H     0.44828  0.44828  0.00000  0.10343

   Total alpha = 28.00000, Total beta = 28.00000, Total charge =  0.00000
