                              Psi4 1.0.54 Driver

  ==> Input File <==

--------------------------------------------------------------------------
set {
	reference rhf
	basis cc-pvtz
}

set_num_threads( 4 )
memory 2 gb

molecule MOL {
0 1

H	 2.614283	 2.028610	 0.296620
O	 3.358864	 1.662087	 -0.142800
C	 3.565468	 0.338079	 0.273842
C	 4.195890	 -0.542584	 -0.794655
H	 4.224713	 0.397098	 1.129349
H	 2.631077	 -0.101932	 0.616997
C	 3.313812	 -0.770759	 -2.020104
H	 5.137221	 -0.095349	 -1.099670
H	 4.434393	 -1.500985	 -0.339704
C	 3.965960	 -1.685626	 -3.055749
H	 3.081475	 0.185082	 -2.477696
H	 2.366570	 -1.205933	 -1.706032
C	 3.095962	 -2.008507	 -4.271934
H	 4.898613	 -1.238011	 -3.390452
H	 4.236531	 -2.618987	 -2.569850
C	 2.800441	 -0.822742	 -5.188651
H	 3.595378	 -2.778500	 -4.853503
H	 2.158328	 -2.445733	 -3.936033
C	 2.014498	 -1.214452	 -6.437357
H	 3.738089	 -0.359056	 -5.487450
H	 2.243656	 -0.062743	 -4.648842
C	 1.714487	 -0.032289	 -7.352986
H	 2.571265	 -1.965778	 -6.990619
H	 1.081199	 -1.685536	 -6.140548
H	 2.629487	 0.441200	 -7.693312
H	 1.158784	 -0.345154	 -8.229580
H	 1.125529	 0.720969	 -6.840070

	symmetry c1
}
set optking {
	frozen_dihedral = ("
		4 3 2 1
	")
}

ee,wfn = optimize('scf', return_wfn=True)
oeprop( wfn, 'DIPOLE', 'QUADRUPOLE', 'MULLIKEN_CHARGES')
f=open( 'psi4out.xyz', 'w' )
f.write( "27  " )
f.write( str(ee) + "\n" )
f.write( MOL.save_string_xyz() )
f.close()
--------------------------------------------------------------------------

    Molecular point group: c1
  Charge       = 0
  Multiplicity = 1
  Basis Set: CC-PVTZ
  Basis Set:
  @DF-RHF Final Energy:  -388.42643646529712
    Total Energy =                       -388.4264364652971153
    Molecular point group: c1
  Basis Set: CC-PVTZ
  Basis Set:
  Basis Set: CC-PVTZ
  Basis Set:
  @DF-RHF Final Energy:  -388.42361967997886
    Total Energy =                       -388.4236196799791969
  Basis Set: CC-PVTZ
  Basis Set:
  Basis Set: CC-PVTZ
  Basis Set:
  @DF-RHF Final Energy:  -388.42773784680048
    Total Energy =                       -388.4277378468004827
  Basis Set: CC-PVTZ
  Basis Set:
  Basis Set: CC-PVTZ
  Basis Set:
  @DF-RHF Final Energy:  -388.42777689423463
    Total Energy =                       -388.4277768942351940
  Basis Set: CC-PVTZ
  Basis Set:
  Basis Set: CC-PVTZ
  Basis Set:
  @DF-RHF Final Energy:  -388.42785827749447
    Total Energy =                       -388.4278582774942379
  Basis Set: CC-PVTZ
  Basis Set:
  Charge       = 0
  Multiplicity = 1
  Basis Set: CC-PVTZ
  Basis Set:

    Orbital Energies (a.u.)
    -----------------------

    Doubly Occupied:

       1A    -20.545825     2A    -11.265889     3A    -11.209986
       4A    -11.209426     5A    -11.207968     6A    -11.207368
       7A    -11.205953     8A    -11.205366     9A    -11.203393
      10A     -1.363501    11A     -1.090245    12A     -1.058161
      13A     -1.009540    14A     -0.944724    15A     -0.881384
      16A     -0.812431    17A     -0.795510    18A     -0.771917
      19A     -0.709191    20A     -0.646315    21A     -0.631191
      22A     -0.624331    23A     -0.589025    24A     -0.579579
      25A     -0.576125    26A     -0.548416    27A     -0.537579
      28A     -0.518558    29A     -0.508176    30A     -0.485246
      31A     -0.477755    32A     -0.476239    33A     -0.461460
      34A     -0.453983    35A     -0.450454    36A     -0.440374
      37A     -0.422951

  @DF-RHF Final Energy:  -388.42785758927795

   => Energetics <=

    Nuclear Repulsion Energy =            460.6842747479137756
    One-Electron Energy =               -1439.9731925380533539
    Two-Electron Energy =                 590.8610602008617434
    DFT Exchange-Correlation Energy =       0.0000000000000000
    Empirical Dispersion Energy =           0.0000000000000000
    PCM Polarization Energy =               0.0000000000000000
    EFP Energy =                            0.0000000000000000
    Total Energy =                       -388.4278575892777781
    Molecular point group: c1
  Basis Set: CC-PVTZ
  Basis Set:

  -Total Gradient:
     Atom            X                  Y                   Z
    ------   -----------------  -----------------  -----------------
       1       -0.000518673434    -0.000676454759    -0.001140782604
       2        0.000596984955     0.000495464276     0.001388249423
       3        0.000667406675     0.000151175927     0.000203946836
       4       -0.000676600461    -0.000134898685    -0.000359497224
       5       -0.000110394142     0.000073664498    -0.000105292205
       6        0.000115728801     0.000160952819    -0.000030387576
       7       -0.000106450664    -0.000031288158    -0.000077760707
       8       -0.000023064824    -0.000023853034     0.000023933014
       9       -0.000022751106     0.000077114634    -0.000027436184
      10        0.000015180199    -0.000119419444     0.000124993558
      11       -0.000009754599    -0.000025702629    -0.000051686612
      12        0.000074834475     0.000035032554    -0.000027553387
      13        0.000051718260    -0.000013150691    -0.000091292918
      14       -0.000065011144    -0.000093615546     0.000028065999
      15       -0.000040840786     0.000034266618     0.000012957557
      16        0.000066391914     0.000018051691     0.000067165938
      17       -0.000039262078     0.000072616984    -0.000002400887
      18        0.000102902206     0.000033369307    -0.000029892932
      19       -0.000070719392    -0.000009234342    -0.000030437576
      20       -0.000062714817    -0.000083916524     0.000012079009
      21        0.000034798415     0.000033768194     0.000084938850
      22        0.000010239892     0.000013126993     0.000036569574
      23       -0.000040587964     0.000044929442     0.000034518851
      24        0.000052896016     0.000046657250    -0.000025528489
      25       -0.000053413899    -0.000057395238     0.000017748835
      26        0.000002883657     0.000012281084    -0.000004499950
      27        0.000048273845    -0.000033543219    -0.000030718195

  **** Optimization is complete! (in 6 steps) ****
    Final optimized geometry and variables:
    Molecular point group: c1

    Geometry (in Angstrom), charge = 0, multiplicity = 1:

    H           -0.961714241940     2.176884426057     3.477829539167
    O           -0.145578217349     1.949665357891     3.075110478658
    C            0.272236756558     0.675237546750     3.496490866770
    C            1.083333140498     0.016333754498     2.396892026934
    H            0.874823319594     0.765807288760     4.395637709519
    H           -0.586974743451     0.055254103386     3.739913572952
    C            0.274607744003    -0.309067850890     1.144438931305
    H            1.908568222355     0.674415445775     2.141251993709
    H            1.521708572539    -0.893295445080     2.799357586812
    C            1.122504029530    -0.944686688419     0.044381494965
    H           -0.188924903005     0.599989409811     0.784312964953
    H           -0.533771310968    -0.988656113912     1.408256399367
    C            0.345585404794    -1.364629250347    -1.204745430092
    H            1.912726059086    -0.254690651894    -0.241603739069
    H            1.620279574559    -1.821693840863     0.449789564829
    C           -0.260773318471    -0.212607376669    -2.003631054549
    H            1.015409310447    -1.921280682586    -1.854497126996
    H           -0.442575915960    -2.057867449850    -0.919788754286
    C           -0.955549705321    -0.672529960285    -3.282667776076
    H            0.523206841163     0.497041599251    -2.258377159095
    H           -0.974454229963     0.330007535925    -1.391793971402
    C           -1.565733549193     0.475131570048    -4.080244292269
    H           -0.243394408686    -1.205337318377    -3.906803954992
    H           -1.733293384682    -1.388407526742    -3.030661313450
    H           -0.807414067260     1.192204532916    -4.376459380265
    H           -2.049395474535     0.114942249400    -4.981149947441
    H           -2.309441546491     1.006173001962    -3.495508701001

  Mulliken Charges: (a.u.)
   Center  Symbol    Alpha    Beta     Spin     Total
       1     H     0.39341  0.39341  0.00000  0.21318
       2     O     4.20230  4.20230  0.00000 -0.40460
       3     C     2.97688  2.97688  0.00000  0.04623
       4     C     3.08917  3.08917  0.00000 -0.17834
       5     H     0.46148  0.46148  0.00000  0.07704
       6     H     0.47289  0.47289  0.00000  0.05422
       7     C     3.09441  3.09441  0.00000 -0.18881
       8     H     0.45122  0.45122  0.00000  0.09756
       9     H     0.45309  0.45309  0.00000  0.09382
      10     C     3.09905  3.09905  0.00000 -0.19810
      11     H     0.44365  0.44365  0.00000  0.11270
      12     H     0.45928  0.45928  0.00000  0.08144
      13     C     3.09779  3.09779  0.00000 -0.19558
      14     H     0.45278  0.45278  0.00000  0.09443
      15     H     0.45011  0.45011  0.00000  0.09978
      16     C     3.08776  3.08776  0.00000 -0.17551
      17     H     0.44909  0.44909  0.00000  0.10182
      18     H     0.45480  0.45480  0.00000  0.09039
      19     C     3.08389  3.08389  0.00000 -0.16777
      20     H     0.45475  0.45475  0.00000  0.09050
      21     H     0.45296  0.45296  0.00000  0.09407
      22     C     3.14966  3.14966  0.00000 -0.29932
      23     H     0.45452  0.45452  0.00000  0.09095
      24     H     0.45532  0.45532  0.00000  0.08937
      25     H     0.45511  0.45511  0.00000  0.08978
      26     H     0.44909  0.44909  0.00000  0.10182
      27     H     0.45554  0.45554  0.00000  0.08892

   Total alpha = 37.00000, Total beta = 37.00000, Total charge = -0.00000

*** Psi4 exiting successfully. Buy a developer a beer!
