  ==> Input File <==

--------------------------------------------------------------------------
set {
	reference rhf
	basis 6-31G*
}

set_num_threads( 4 )
memory 2 gb

molecule MOL {
0 1

O	 0.391030	 1.298905	 0.000133
C	 0.503002	 0.111612	 0.000005
C	 -0.702327	 -0.811998	 -0.000075
C	 1.863306	 -0.554493	 0.000030
C	 -0.343615	 -2.283984	 0.163432
H	 -1.372394	 -0.486596	 0.793585
H	 -1.248911	 -0.647610	 -0.926891
H	 0.178695	 -2.454762	 1.096838
H	 -1.240552	 -2.894483	 0.156193
H	 0.303271	 -2.617204	 -0.638891
H	 1.974395	 -1.189404	 -0.874166
H	 2.638695	 0.198920	 -0.000196
H	 1.974487	 -1.188655	 0.874727

	symmetry c1
}
set optking {
	frozen_dihedral = ("
		6 3 2 1
	")
}

ee = optimize('scf')
oeprop('DIPOLE', 'QUADRUPOLE', 'MULLIKEN_CHARGES')
f=open( 'psi4out.xyz', 'w' )
f.write( "13  " )
f.write( str(ee) + "\n" )
f.write( MOL.save_string_xyz() )
f.close()
--------------------------------------------------------------------------

    Molecular point group: c1
  Charge       = 0
  Multiplicity = 1
  Basis Set: 6-31G*
  Basis Set:
  @DF-RHF Final Energy:  -230.99057221290226
    Total Energy =                       -230.9905722129023502
    Molecular point group: c1
  Basis Set: 6-31G*
  Basis Set:
  Basis Set: 6-31G*
  Basis Set:
  @DF-RHF Final Energy:  -230.99197771882794
    Total Energy =                       -230.9919777188278545
  Basis Set: 6-31G*
  Basis Set:
  Basis Set: 6-31G*
  Basis Set:
  @DF-RHF Final Energy:  -230.99311953675098
    Total Energy =                       -230.9931195367509531
  Basis Set: 6-31G*
  Basis Set:
  Basis Set: 6-31G*
  Basis Set:
  @DF-RHF Final Energy:  -230.99321721883831
    Total Energy =                       -230.9932172188382538
  Basis Set: 6-31G*
  Basis Set:
  Basis Set: 6-31G*
  Basis Set:
  @DF-RHF Final Energy:  -230.99307815116887
    Total Energy =                       -230.9930781511689588
  Basis Set: 6-31G*
  Basis Set:
  Basis Set: 6-31G*
  Basis Set:
  @DF-RHF Final Energy:  -230.99324394383584
    Total Energy =                       -230.9932439438358927
  Basis Set: 6-31G*
  Basis Set:
  Charge       = 0
  Multiplicity = 1
  Basis Set: 6-31G*
  Basis Set:

    Orbital Energies (a.u.)
    -----------------------

    Doubly Occupied:

       1A    -20.546269     2A    -11.327066     3A    -11.234442
       4A    -11.228661     5A    -11.228433     6A     -1.393562
       7A     -1.066414     8A     -0.993808     9A     -0.890713
      10A     -0.731503    11A     -0.652330    12A     -0.643035
      13A     -0.625787    14A     -0.583167    15A     -0.556301
      16A     -0.544515    17A     -0.530793    18A     -0.514435
      19A     -0.472491    20A     -0.399325

  @DF-RHF Final Energy:  -230.99324555513746

   => Energetics <=

    Nuclear Repulsion Energy =            176.6217910259724988
    One-Electron Energy =                -662.9039717977215105
    Two-Electron Energy =                 255.2889352166115486
    DFT Exchange-Correlation Energy =       0.0000000000000000
    Empirical Dispersion Energy =           0.0000000000000000
    PCM Polarization Energy =               0.0000000000000000
    EFP Energy =                            0.0000000000000000
    Total Energy =                       -230.9932455551374915
    Molecular point group: c1
  Basis Set: 6-31G*
  Basis Set:

  -Total Gradient:
     Atom            X                  Y                   Z
    ------   -----------------  -----------------  -----------------
       1        0.000033237898     0.000009015374    -0.000618672017
       2        0.000016160789    -0.000083159572     0.000909342333
       3       -0.000344463140     0.000454520474    -0.000700433612
       4        0.000010226801     0.000011978863     0.000028903522
       5       -0.000007419027    -0.000025010538    -0.000020210697
       6        0.000293289771    -0.000367774604     0.000410871766
       7        0.000005124415    -0.000004315219     0.000001069838
       8       -0.000003330974     0.000008356181    -0.000004631592
       9       -0.000001429223    -0.000005070201     0.000001571231
      10       -0.000001197098    -0.000016156217     0.000003599490
      11       -0.000005322274     0.000006225967    -0.000003213755
      12        0.000004387203     0.000003676498     0.000000779795
      13        0.000000734859     0.000007712987    -0.000008976303

  **** Optimization is complete! (in 7 steps) ****
    Final optimized geometry and variables:
    Molecular point group: c1

    Geometry (in Angstrom), charge = 0, multiplicity = 1:

    O            0.007715968777     1.741591177501    -0.042972904143
    C            0.180974660029     0.560952651982    -0.028929462390
    C           -1.028276854148    -0.369359402586    -0.026689203431
    C            1.578584339354    -0.019172562849    -0.038870875525
    C           -0.772916012295    -1.867631842325     0.134415702772
    H           -1.681332070930    -0.013635610975     0.763786188949
    H           -1.555727393202    -0.177913389208    -0.957265744857
    H           -0.284551077783    -2.095879360715     1.076193239358
    H           -1.714798075548    -2.405059429687     0.118981098474
    H           -0.158655296683    -2.266109049344    -0.666055815345
    H            1.726662554897    -0.644751801548    -0.914031091700
    H            2.295278802168     0.789778717993    -0.048901508011
    H            1.746391855770    -0.642157090495     0.833910842454

  Mulliken Charges: (a.u.)
   Center  Symbol    Alpha    Beta     Spin     Total
       1     O     4.26254  4.26254  0.00000 -0.52507
       2     C     2.73971  2.73971  0.00000  0.52058
       3     C     3.20228  3.20228  0.00000 -0.40455
       4     C     3.29155  3.29155  0.00000 -0.58310
       5     C     3.24963  3.24963  0.00000 -0.49926
       6     H     0.39863  0.39863  0.00000  0.20275
       7     H     0.39982  0.39982  0.00000  0.20036
       8     H     0.41694  0.41694  0.00000  0.16612
       9     H     0.41117  0.41117  0.00000  0.17765
      10     H     0.41726  0.41726  0.00000  0.16548
      11     H     0.40778  0.40778  0.00000  0.18443
      12     H     0.39524  0.39524  0.00000  0.20952
      13     H     0.40745  0.40745  0.00000  0.18510

   Total alpha = 20.00000, Total beta = 20.00000, Total charge = -0.00000
