  ==> Input File <==

--------------------------------------------------------------------------
set {
	reference rhf
	basis 6-31G*
}

set_num_threads( 4 )
memory 2 gb

molecule MOL {
0 1

H	 -4.019614	 0.629006	 -0.667837
O	 -3.517110	 -0.026191	 -0.205115
C	 -2.306886	 0.532354	 0.237577
C	 -1.177863	 -0.397191	 -0.171080
H	 -2.156308	 1.517575	 -0.201710
H	 -2.315015	 0.655684	 1.319734
C	 0.198102	 0.111031	 0.262842
H	 -1.208843	 -0.518759	 -1.250427
H	 -1.368741	 -1.376554	 0.258909
C	 1.331804	 -0.827780	 -0.158768
H	 0.361943	 1.100838	 -0.156218
H	 0.217265	 0.229072	 1.345532
C	 2.723619	 -0.410569	 0.329459
H	 1.342964	 -0.912588	 -1.244120
H	 1.116806	 -1.824343	 0.220779
C	 3.243875	 0.895854	 -0.272975
H	 3.424222	 -1.207124	 0.091250
H	 2.714788	 -0.329854	 1.414619
H	 3.251977	 0.848779	 -1.358681
H	 2.637085	 1.747371	 0.016682
H	 4.259473	 1.094070	 0.055697

	symmetry c1
}
set optking {
	frozen_dihedral = ("
		1 2 3 5
	")
}

ee = optimize('scf')
oeprop('DIPOLE', 'QUADRUPOLE', 'MULLIKEN_CHARGES')
f=open( 'psi4out.xyz', 'w' )
f.write( "21  " )
f.write( str(ee) + "\n" )
f.write( MOL.save_string_xyz() )
f.close()
--------------------------------------------------------------------------

    Molecular point group: c1
  Charge       = 0
  Multiplicity = 1
  Basis Set: 6-31G*
  Basis Set:
  @DF-RHF Final Energy:  -310.21070907720656
    Total Energy =                       -310.2107090772069569
    Molecular point group: c1
  Basis Set: 6-31G*
  Basis Set:
  Basis Set: 6-31G*
  Basis Set:
  @DF-RHF Final Energy:  -310.21092911565012
    Total Energy =                       -310.2109291156497761
  Basis Set: 6-31G*
  Basis Set:
  Basis Set: 6-31G*
  Basis Set:
  @DF-RHF Final Energy:  -310.21101692324061
    Total Energy =                       -310.2110169232403791
  Basis Set: 6-31G*
  Basis Set:
  Charge       = 0
  Multiplicity = 1
  Basis Set: 6-31G*
  Basis Set:

    Orbital Energies (a.u.)
    -----------------------

    Doubly Occupied:

       1A    -20.550450     2A    -11.267391     3A    -11.215770
       4A    -11.215389     5A    -11.213919     6A    -11.210385
       7A    -11.208607     8A     -1.357002     9A     -1.086339
      10A     -1.033169    11A     -0.954519    12A     -0.876546
      13A     -0.809084    14A     -0.778874    15A     -0.699000
      16A     -0.651336    17A     -0.623290    18A     -0.602179
      19A     -0.590562    20A     -0.570358    21A     -0.537874
      22A     -0.521047    23A     -0.509881    24A     -0.487775
      25A     -0.477812    26A     -0.462281    27A     -0.457184
      28A     -0.453822    29A     -0.422505

  @DF-RHF Final Energy:  -310.21101697580565

   => Energetics <=

    Nuclear Repulsion Energy =            312.1890736487413847
    One-Electron Energy =               -1039.1114799169799880
    Two-Electron Energy =                 416.7113892924328979
    DFT Exchange-Correlation Energy =       0.0000000000000000
    Empirical Dispersion Energy =           0.0000000000000000
    PCM Polarization Energy =               0.0000000000000000
    EFP Energy =                            0.0000000000000000
    Total Energy =                       -310.2110169758056486
    Molecular point group: c1
  Basis Set: 6-31G*
  Basis Set:

  -Total Gradient:
     Atom            X                  Y                   Z
    ------   -----------------  -----------------  -----------------
       1        0.000376939930    -0.000271568462    -0.000825089575
       2       -0.000518609812     0.000464912455     0.001214774063
       3        0.000496326281    -0.000554272813    -0.001050361350
       4       -0.000000190761    -0.000007726558     0.000044405761
       5       -0.000380642025     0.000370665501     0.000646940422
       6       -0.000001460813    -0.000003280406     0.000001432219
       7       -0.000021264161     0.000004255703    -0.000045365514
       8       -0.000003880712     0.000011783187     0.000007611328
       9       -0.000003750372    -0.000014148081    -0.000011936698
      10       -0.000007510676    -0.000001751464     0.000046202433
      11        0.000027916603     0.000023074227     0.000000058994
      12        0.000009860398    -0.000001792061    -0.000029714030
      13        0.000040348717    -0.000040829978    -0.000027968657
      14        0.000009009295    -0.000005965783     0.000014633660
      15       -0.000029574000     0.000009292147     0.000003202718
      16       -0.000016260122     0.000005821119     0.000015635823
      17        0.000028238365     0.000015111404    -0.000006257871
      18        0.000012278191    -0.000016372311    -0.000006531267
      19        0.000006571768    -0.000008158864     0.000009059417
      20       -0.000019398700     0.000011618237    -0.000008370999
      21       -0.000004947394     0.000009332801     0.000007639122

  **** Optimization is complete! (in 4 steps) ****
    Final optimized geometry and variables:
    Molecular point group: c1

    Geometry (in Angstrom), charge = 0, multiplicity = 1:

    H           -4.073974707120     0.610624548798    -0.594951017900
    O           -3.542084897555    -0.029790010910    -0.148738567927
    C           -2.306203058621     0.534542550030     0.221279643509
    C           -1.174585391322    -0.395253967443    -0.185998908224
    H           -2.175018374883     1.511328135187    -0.239183103983
    H           -2.293786406314     0.688113351658     1.297572888836
    C            0.200545077634     0.111662824743     0.252251218665
    H           -1.201480664273    -0.521880745399    -1.265367943005
    H           -1.367224267106    -1.373715702345     0.245740888829
    C            1.335702349605    -0.829407212264    -0.160537054534
    H            0.368428504841     1.100590665903    -0.168159206272
    H            0.213893773423     0.232885908796     1.334538989793
    C            2.724872171057    -0.414691359321     0.337422042789
    H            1.354799973673    -0.915144058693    -1.245767836159
    H            1.115811076210    -1.825201394991     0.218136914050
    C            3.248602807731     0.894531768840    -0.255847352906
    H            3.426905988553    -1.210105421190     0.099569945875
    H            2.709785061025    -0.338959523983     1.422822713606
    H            3.264205871592     0.852080097264    -1.341697339728
    H            2.639458025302     1.744530194567     0.033368057513
    H            4.261827503934     1.091839654451     0.080562690059

  Mulliken Charges: (a.u.)
   Center  Symbol    Alpha    Beta     Spin     Total
       1     H     0.27979  0.27979  0.00000  0.44042
       2     O     4.37421  4.37421  0.00000 -0.74842
       3     C     2.99124  2.99124  0.00000  0.01752
       4     C     3.15713  3.15713  0.00000 -0.31426
       5     H     0.43317  0.43317  0.00000  0.13365
       6     H     0.42634  0.42634  0.00000  0.14732
       7     C     3.16265  3.16265  0.00000 -0.32530
       8     H     0.41996  0.41996  0.00000  0.16009
       9     H     0.41425  0.41425  0.00000  0.17150
      10     C     3.15153  3.15153  0.00000 -0.30305
      11     H     0.42273  0.42273  0.00000  0.15454
      12     H     0.42311  0.42311  0.00000  0.15377
      13     C     3.15247  3.15247  0.00000 -0.30494
      14     H     0.42361  0.42361  0.00000  0.15278
      15     H     0.42068  0.42068  0.00000  0.15864
      16     C     3.24119  3.24119  0.00000 -0.48238
      17     H     0.42063  0.42063  0.00000  0.15875
      18     H     0.42324  0.42324  0.00000  0.15351
      19     H     0.42230  0.42230  0.00000  0.15540
      20     H     0.42065  0.42065  0.00000  0.15871
      21     H     0.41912  0.41912  0.00000  0.16177

   Total alpha = 29.00000, Total beta = 29.00000, Total charge = -0.00000
