                              Psi4 1.0.54 Driver

  ==> Input File <==

--------------------------------------------------------------------------
set {
	reference rhf
	basis cc-pvtz
}

set_num_threads( 4 )
memory 2 gb

molecule MOL {
0 1

H	 -1.835082	 1.385983	 0.000069
C	 -1.300516	 0.441153	 -0.000028
O	 -0.006604	 0.654344	 -0.000106
O	 -1.828920	 -0.612308	 0.000113
C	 0.824647	 -0.315710	 0.630640
C	 2.255721	 0.148870	 0.500659
H	 0.670457	 -1.272168	 0.151713
H	 0.528033	 -0.409906	 1.665585
H	 2.537619	 0.242414	 -0.540375
H	 2.916048	 -0.569319	 0.971856
H	 2.394476	 1.109030	 0.981086

	symmetry c1
}
set optking {
	frozen_dihedral = ("
		5 3 2 4
	")
}

ee,wfn = optimize('scf', return_wfn=True)
oeprop( wfn, 'DIPOLE', 'QUADRUPOLE', 'MULLIKEN_CHARGES')
f=open( 'psi4out.xyz', 'w' )
f.write( "11  " )
f.write( str(ee) + "\n" )
f.write( MOL.save_string_xyz() )
f.close()
--------------------------------------------------------------------------

    Molecular point group: c1
  Charge       = 0
  Multiplicity = 1
  Basis Set: CC-PVTZ
  Basis Set:
  @DF-RHF Final Energy:  -266.92663113679316
    Total Energy =                       -266.9266311367931621
    Molecular point group: c1
  Basis Set: CC-PVTZ
  Basis Set:
  Basis Set: CC-PVTZ
  Basis Set:
  @DF-RHF Final Energy:  -266.91880739768180
    Total Energy =                       -266.9188073976816895
  Basis Set: CC-PVTZ
  Basis Set:
  Basis Set: CC-PVTZ
  Basis Set:
  @DF-RHF Final Energy:  -266.92599749481474
    Total Energy =                       -266.9259974948148511
  Basis Set: CC-PVTZ
  Basis Set:
  Basis Set: CC-PVTZ
  Basis Set:
  @DF-RHF Final Energy:  -266.92712700257459
    Total Energy =                       -266.9271270025747071
  Basis Set: CC-PVTZ
  Basis Set:
  Basis Set: CC-PVTZ
  Basis Set:
  @DF-RHF Final Energy:  -266.92713710931213
    Total Energy =                       -266.9271371093120138
  Basis Set: CC-PVTZ
  Basis Set:
  Basis Set: CC-PVTZ
  Basis Set:
  @DF-RHF Final Energy:  -266.92713914320279
    Total Energy =                       -266.9271391432029077
  Basis Set: CC-PVTZ
  Basis Set:
  Charge       = 0
  Multiplicity = 1
  Basis Set: CC-PVTZ
  Basis Set:

    Orbital Energies (a.u.)
    -----------------------

    Doubly Occupied:

       1A    -20.600798     2A    -20.548538     3A    -11.370850
       4A    -11.291980     5A    -11.225602     6A     -1.476381
       7A     -1.378116     8A     -1.053171     9A     -0.901634
      10A     -0.808736    11A     -0.740975    12A     -0.691240
      13A     -0.680082    14A     -0.603359    15A     -0.569504
      16A     -0.559006    17A     -0.521519    18A     -0.515645
      19A     -0.465162    20A     -0.455359

  @DF-RHF Final Energy:  -266.92713936966493

   => Energetics <=

    Nuclear Repulsion Energy =            179.1043883185008099
    One-Electron Energy =                -719.1477447753952674
    Two-Electron Energy =                 273.1162170872295292
    DFT Exchange-Correlation Energy =       0.0000000000000000
    Empirical Dispersion Energy =           0.0000000000000000
    PCM Polarization Energy =               0.0000000000000000
    EFP Energy =                            0.0000000000000000
    Total Energy =                       -266.9271393696649284
    Molecular point group: c1
  Basis Set: CC-PVTZ
  Basis Set:

  -Total Gradient:
     Atom            X                  Y                   Z
    ------   -----------------  -----------------  -----------------
       1        0.000034604810    -0.000037138019    -0.000000613998
       2        0.000646052465     0.003164502634     0.016790509042
       3       -0.000088073777    -0.006279332722    -0.013359366715
       4       -0.000479614395    -0.000750963987    -0.009118421816
       5       -0.000119742961     0.003893858454     0.005668283479
       6        0.000008600147     0.000007288832     0.000021725902
       7        0.000002835230    -0.000017645461     0.000017848431
       8       -0.000006705974     0.000020237932    -0.000030161715
       9       -0.000013365629    -0.000005171064     0.000010732741
      10        0.000008367013     0.000001273764     0.000000913779
      11        0.000007043067     0.000003089637    -0.000001449131

  **** Optimization is complete! (in 7 steps) ****
    Final optimized geometry and variables:
    Molecular point group: c1

    Geometry (in Angstrom), charge = 0, multiplicity = 1:

    H           -1.803393912298     1.333041715619    -0.363483560786
    C           -1.290273863539     0.385685194700    -0.226671656236
    O            0.013301204295     0.552347554857    -0.306210231924
    O           -1.848029871509    -0.644498019951    -0.110359448711
    C            0.848162368057    -0.387968681562     0.365887660692
    C            2.271097918333     0.108773721164     0.273827863694
    H            0.737015671167    -1.358785928587    -0.094813175279
    H            0.520476061745    -0.464819524529     1.393997475118
    H            2.582571301357     0.187893285883    -0.759860742522
    H            2.932798264287    -0.584384303493     0.779480657219
    H            2.371579990531     1.081588531770     0.737899898183

  Mulliken Charges: (a.u.)
   Center  Symbol    Alpha    Beta     Spin     Total
       1     H     0.45179  0.45179  0.00000  0.09643
       2     C     2.84371  2.84371  0.00000  0.31259
       3     O     4.14852  4.14852  0.00000 -0.29704
       4     O     4.18887  4.18887  0.00000 -0.37773
       5     C     2.97195  2.97195  0.00000  0.05610
       6     C     3.13313  3.13313  0.00000 -0.26627
       7     H     0.44902  0.44902  0.00000  0.10197
       8     H     0.45843  0.45843  0.00000  0.08313
       9     H     0.44904  0.44904  0.00000  0.10192
      10     H     0.45453  0.45453  0.00000  0.09094
      11     H     0.45101  0.45101  0.00000  0.09797

   Total alpha = 20.00000, Total beta = 20.00000, Total charge =  0.00000

*** Psi4 exiting successfully. Buy a developer a beer!
