  ==> Input File <==

--------------------------------------------------------------------------
set {
	reference rhf
	basis 6-31G*
}

set_num_threads( 4 )
memory 2 gb

molecule MOL {
0 1

O	 -2.343476	 0.099893	 -1.155942
C	 -1.921153	 0.064240	 -0.045697
C	 -2.762591	 -0.080200	 1.193442
O	 -0.632575	 0.154573	 0.251549
H	 -2.607697	 0.773709	 1.842900
H	 -3.804202	 -0.151421	 0.918105
H	 -2.461194	 -0.966709	 1.739352
C	 0.160891	 -1.019931	 0.106212
C	 1.589627	 -0.672828	 0.480843
H	 0.089836	 -1.367806	 -0.916050
H	 -0.238459	 -1.792301	 0.749618
C	 2.246377	 0.346236	 -0.452210
H	 2.163194	 -1.597435	 0.473358
H	 1.604769	 -0.303424	 1.502885
C	 3.691736	 0.652107	 -0.061850
H	 2.219579	 -0.032311	 -1.472055
H	 1.666466	 1.263317	 -0.447249
H	 4.134505	 1.377213	 -0.737283
H	 4.305508	 -0.243868	 -0.089969
H	 3.748266	 1.059562	 0.943567

	symmetry c1
}
set optking {
	frozen_dihedral = ("
		1 2 4 8
	")
}

ee = optimize('scf')
oeprop('DIPOLE', 'QUADRUPOLE', 'MULLIKEN_CHARGES')
f=open( 'psi4out.xyz', 'w' )
f.write( "20  " )
f.write( str(ee) + "\n" )
f.write( MOL.save_string_xyz() )
f.close()
--------------------------------------------------------------------------

    Molecular point group: c1
  Charge       = 0
  Multiplicity = 1
  Basis Set: 6-31G*
  Basis Set:
  @DF-RHF Final Energy:  -383.92634959696670
    Total Energy =                       -383.9263495969665883
    Molecular point group: c1
  Basis Set: 6-31G*
  Basis Set:
  Basis Set: 6-31G*
  Basis Set:
  @DF-RHF Final Energy:  -383.92506553686889
    Total Energy =                       -383.9250655368690559
  Basis Set: 6-31G*
  Basis Set:
  Basis Set: 6-31G*
  Basis Set:
  @DF-RHF Final Energy:  -383.92725560643538
    Total Energy =                       -383.9272556064352102
  Basis Set: 6-31G*
  Basis Set:
  Basis Set: 6-31G*
  Basis Set:
  @DF-RHF Final Energy:  -383.92755845188196
    Total Energy =                       -383.9275584518821915
  Basis Set: 6-31G*
  Basis Set:
  Basis Set: 6-31G*
  Basis Set:
  @DF-RHF Final Energy:  -383.92756496892002
    Total Energy =                       -383.9275649689202510
  Basis Set: 6-31G*
  Basis Set:
  Basis Set: 6-31G*
  Basis Set:
  @DF-RHF Final Energy:  -383.92757036148691
    Total Energy =                       -383.9275703614865733
  Basis Set: 6-31G*
  Basis Set:
  Charge       = 0
  Multiplicity = 1
  Basis Set: 6-31G*
  Basis Set:

    Orbital Energies (a.u.)
    -----------------------

    Doubly Occupied:

       1A    -20.583671     2A    -20.555967     3A    -11.377202
       4A    -11.292042     5A    -11.236688     6A    -11.227066
       7A    -11.217660     8A    -11.211529     9A     -1.458250
      10A     -1.366143    11A     -1.083410    12A     -1.022432
      13A     -0.986749    14A     -0.880544    15A     -0.808278
      16A     -0.776630    17A     -0.695853    18A     -0.682252
      19A     -0.652189    20A     -0.632863    21A     -0.612546
      22A     -0.591041    23A     -0.579029    24A     -0.561828
      25A     -0.542700    26A     -0.528658    27A     -0.494698
      28A     -0.484550    29A     -0.480676    30A     -0.472984
      31A     -0.446645    32A     -0.436537

  @DF-RHF Final Energy:  -383.92757046735636

   => Energetics <=

    Nuclear Repulsion Energy =            384.1175418119299252
    One-Electron Energy =               -1284.1316066704553123
    Two-Electron Energy =                 516.0864943911687988
    DFT Exchange-Correlation Energy =       0.0000000000000000
    Empirical Dispersion Energy =           0.0000000000000000
    PCM Polarization Energy =               0.0000000000000000
    EFP Energy =                            0.0000000000000000
    Total Energy =                       -383.9275704673566452
    Molecular point group: c1
  Basis Set: 6-31G*
  Basis Set:

  -Total Gradient:
     Atom            X                  Y                   Z
    ------   -----------------  -----------------  -----------------
       1       -0.000388222202     0.004774296742     0.000697182039
       2        0.000166903494    -0.007627214877     0.000707409913
       3        0.000021862618     0.000064185322    -0.000006257738
       4        0.001167326502     0.003978272499    -0.004907202084
       5        0.000002182161    -0.000031459727    -0.000014451229
       6       -0.000042267836    -0.000009676267     0.000029140582
       7        0.000011039459    -0.000001879100    -0.000025673301
       8       -0.000954139364    -0.001162483908     0.003492491754
       9        0.000029512771     0.000008770377     0.000020931744
      10       -0.000019983882    -0.000006200001    -0.000003469986
      11        0.000019310813    -0.000004972614    -0.000016227518
      12       -0.000017827476     0.000025108248     0.000020271118
      13        0.000002425232     0.000008602512     0.000014172408
      14       -0.000005894729     0.000013126093     0.000006165954
      15        0.000007346407    -0.000027263516    -0.000023187471
      16       -0.000005561203     0.000000033442    -0.000005722494
      17        0.000006432482     0.000007262800     0.000021962682
      18        0.000002757205    -0.000009413259    -0.000007547083
      19        0.000008065364    -0.000003012041     0.000009536978
      20       -0.000011267811     0.000003917272    -0.000009526267

  **** Optimization is complete! (in 7 steps) ****
    Final optimized geometry and variables:
    Molecular point group: c1

    Geometry (in Angstrom), charge = 0, multiplicity = 1:

    O           -2.273888889200     0.212236242138    -1.192538992348
    C           -1.918517626180     0.109305177918    -0.070174150687
    C           -2.841147415613    -0.024378609660     1.110959981664
    O           -0.616913303318     0.188524848796     0.282990448106
    H           -2.699877040451     0.825489435665     1.769515513245
    H           -3.868515004366    -0.070228517254     0.780991168564
    H           -2.593344262995    -0.915876548669     1.677498223686
    C            0.176031960821    -0.975967033230     0.091361672139
    C            1.616698796310    -0.639357240699     0.427478453035
    H            0.081679969848    -1.304382044663    -0.937406450036
    H           -0.190148847296    -1.766609543612     0.740487359904
    C            2.237439531209     0.401405110706    -0.505508971279
    H            2.190022462312    -1.563302978875     0.383337921869
    H            1.660244718831    -0.290541850485     1.455714426433
    C            3.691771868999     0.709387276053    -0.151741131881
    H            2.182162512671     0.041206888205    -1.530448534420
    H            1.649769089266     1.311878927007    -0.466637785352
    H            4.110139369915     1.447010948470    -0.829023532110
    H            4.310499008464    -0.181920192158    -0.210623775317
    H            3.775170494081     1.103074785152     0.857356213921

  Mulliken Charges: (a.u.)
   Center  Symbol    Alpha    Beta     Spin     Total
       1     O     4.25209  4.25209  0.00000 -0.50419
       2     C     2.62537  2.62537  0.00000  0.74926
       3     C     3.28566  3.28566  0.00000 -0.57133
       4     O     4.31924  4.31924  0.00000 -0.63847
       5     H     0.39775  0.39775  0.00000  0.20451
       6     H     0.39737  0.39737  0.00000  0.20526
       7     H     0.40677  0.40677  0.00000  0.18647
       8     C     3.00314  3.00314  0.00000 -0.00628
       9     C     3.16292  3.16292  0.00000 -0.32583
      10     H     0.40997  0.40997  0.00000  0.18006
      11     H     0.42215  0.42215  0.00000  0.15570
      12     C     3.15497  3.15497  0.00000 -0.30993
      13     H     0.41946  0.41946  0.00000  0.16108
      14     H     0.41398  0.41398  0.00000  0.17203
      15     C     3.24089  3.24089  0.00000 -0.48177
      16     H     0.42125  0.42125  0.00000  0.15750
      17     H     0.40652  0.40652  0.00000  0.18696
      18     H     0.41672  0.41672  0.00000  0.16655
      19     H     0.42277  0.42277  0.00000  0.15445
      20     H     0.42101  0.42101  0.00000  0.15798

   Total alpha = 32.00000, Total beta = 32.00000, Total charge = -0.00000
