  ==> Input File <==

--------------------------------------------------------------------------
set {
	reference rhf
	basis 6-31G*
}

set_num_threads( 4 )
memory 2 gb

molecule MOL {
0 1

O	 -1.492863	 -0.483586	 -0.816471
C	 -1.083277	 0.139568	 0.115197
C	 0.323299	 -0.082943	 0.642902
C	 -1.943845	 1.157346	 0.830304
C	 1.355627	 -0.005344	 -0.493127
H	 0.396251	 -1.044647	 1.143147
H	 0.528637	 0.693580	 1.371677
C	 2.786168	 -0.195604	 0.007473
H	 1.132807	 -0.760304	 -1.243899
H	 1.259610	 0.958506	 -0.981915
H	 3.495561	 -0.130713	 -0.811210
H	 2.912696	 -1.165395	 0.480041
H	 3.049284	 0.565503	 0.735850
H	 -1.948779	 0.973579	 1.900758
H	 -2.954020	 1.122341	 0.446825
H	 -1.534598	 2.152602	 0.678029

	symmetry c1
}
set optking {
	frozen_dihedral = ("
		4 2 3 5
	")
}

ee = optimize('scf')
oeprop('DIPOLE', 'QUADRUPOLE', 'MULLIKEN_CHARGES')
f=open( 'psi4out.xyz', 'w' )
f.write( "16  " )
f.write( str(ee) + "\n" )
f.write( MOL.save_string_xyz() )
f.close()
--------------------------------------------------------------------------

    Molecular point group: c1
  Charge       = 0
  Multiplicity = 1
  Basis Set: 6-31G*
  Basis Set:
  @DF-RHF Final Energy:  -270.02975194470076
    Total Energy =                       -270.0297519447008199
    Molecular point group: c1
  Basis Set: 6-31G*
  Basis Set:
  Basis Set: 6-31G*
  Basis Set:
  @DF-RHF Final Energy:  -270.02882454278154
    Total Energy =                       -270.0288245427813081
  Basis Set: 6-31G*
  Basis Set:
  Basis Set: 6-31G*
  Basis Set:
  @DF-RHF Final Energy:  -270.03023740474760
    Total Energy =                       -270.0302374047478224
  Basis Set: 6-31G*
  Basis Set:
  Basis Set: 6-31G*
  Basis Set:
  @DF-RHF Final Energy:  -270.03065967049474
    Total Energy =                       -270.0306596704950834
  Basis Set: 6-31G*
  Basis Set:
  @DF-RHF Final Energy:  -270.02985856300779
    Total Energy =                       -270.0298585630076786
  Basis Set: 6-31G*
  Basis Set:
  @DF-RHF Final Energy:  -270.03059665525342
    Total Energy =                       -270.0305966552535892
  Basis Set: 6-31G*
  Basis Set:
  Basis Set: 6-31G*
  Basis Set:
  @DF-RHF Final Energy:  -270.03067146951963
    Total Energy =                       -270.0306714695194614
  Basis Set: 6-31G*
  Basis Set:
  Basis Set: 6-31G*
  Basis Set:
  @DF-RHF Final Energy:  -270.03067260751271
    Total Energy =                       -270.0306726075127131
  Basis Set: 6-31G*
  Basis Set:
  Charge       = 0
  Multiplicity = 1
  Basis Set: 6-31G*
  Basis Set:

    Orbital Energies (a.u.)
    -----------------------

    Doubly Occupied:

       1A    -20.548708     2A    -11.326230     3A    -11.230953
       4A    -11.229088     5A    -11.225818     6A    -11.215925
       7A     -1.394737     8A     -1.078313     9A     -1.014909
      10A     -0.947928    11A     -0.825729    12A     -0.733628
      13A     -0.657684    14A     -0.648222    15A     -0.616791
      16A     -0.602388    17A     -0.571719    18A     -0.559941
      19A     -0.544456    20A     -0.508771    21A     -0.496729
      22A     -0.481388    23A     -0.472089    24A     -0.399054

  @DF-RHF Final Energy:  -270.03067291911623

   => Energetics <=

    Nuclear Repulsion Energy =            236.7760419672567878
    One-Electron Energy =                -834.9510339172248905
    Two-Electron Energy =                 328.1443190308518183
    DFT Exchange-Correlation Energy =       0.0000000000000000
    Empirical Dispersion Energy =           0.0000000000000000
    PCM Polarization Energy =               0.0000000000000000
    EFP Energy =                            0.0000000000000000
    Total Energy =                       -270.0306729191162844
    Molecular point group: c1
  Basis Set: 6-31G*
  Basis Set:

  -Total Gradient:
     Atom            X                  Y                   Z
    ------   -----------------  -----------------  -----------------
       1        0.000008366542    -0.000006131450    -0.000008933782
       2       -0.000306510643    -0.000472255043     0.000717012139
       3        0.000040420451    -0.000720277682    -0.000335480512
       4        0.000210311701     0.000480649913    -0.000438979229
       5        0.000044119238     0.000688040599     0.000084747245
       6       -0.000004757384     0.000002265561     0.000003951112
       7       -0.000006909468    -0.000000153255     0.000007083608
       8       -0.000000436861    -0.000014321606    -0.000008455516
       9        0.000012286443     0.000004413612    -0.000002725471
      10       -0.000004981717     0.000008132304    -0.000003119198
      11        0.000001356189    -0.000002953149     0.000001050470
      12        0.000001920157    -0.000000305745     0.000006080731
      13       -0.000002968639     0.000003687645    -0.000005233245
      14        0.000001330792     0.000014831286    -0.000004145866
      15        0.000002282026     0.000006563216    -0.000003059652
      16        0.000004171177     0.000007813795    -0.000009792836

  **** Optimization is complete! (in 9 steps) ****
    Final optimized geometry and variables:
    Molecular point group: c1

    Geometry (in Angstrom), charge = 0, multiplicity = 1:

    O           -1.492661414879    -0.619187485920    -0.827942251724
    C           -1.087151775306     0.038138919346     0.081719350856
    C            0.339813944040    -0.120740375312     0.585344931336
    C           -1.960874358886     1.059224900449     0.773818394256
    C            1.368738246471    -0.066364937246    -0.548950001859
    H            0.394911032338    -1.086545699729     1.083427635263
    H            0.562213557358     0.633293864094     1.334892584053
    C            2.794991913635    -0.296394471590    -0.053011201444
    H            1.106283705271    -0.810428254421    -1.291365351313
    H            1.307784418021     0.900383194543    -1.043127135448
    H            3.503188633759    -0.250329995720    -0.874040051599
    H            2.894626728512    -1.271358329092     0.415466968267
    H            3.086669203297     0.453072756611     0.677442025892
    H           -2.007006555316     0.857981370495     1.840475465948
    H           -2.956946882562     1.040759248777     0.354119406986
    H           -1.532707103128     2.050952671734     0.653858549868

  Mulliken Charges: (a.u.)
   Center  Symbol    Alpha    Beta     Spin     Total
       1     O     4.26320  4.26320  0.00000 -0.52639
       2     C     2.73520  2.73520  0.00000  0.52961
       3     C     3.20402  3.20402  0.00000 -0.40804
       4     C     3.28893  3.28893  0.00000 -0.57785
       5     C     3.15568  3.15568  0.00000 -0.31136
       6     H     0.40301  0.40301  0.00000  0.19398
       7     H     0.41618  0.41618  0.00000  0.16764
       8     C     3.24096  3.24096  0.00000 -0.48191
       9     H     0.40196  0.40196  0.00000  0.19608
      10     H     0.41987  0.41987  0.00000  0.16026
      11     H     0.41563  0.41563  0.00000  0.16875
      12     H     0.41974  0.41974  0.00000  0.16053
      13     H     0.42209  0.42209  0.00000  0.15583
      14     H     0.40857  0.40857  0.00000  0.18286
      15     H     0.39714  0.39714  0.00000  0.20572
      16     H     0.40785  0.40785  0.00000  0.18430

   Total alpha = 24.00000, Total beta = 24.00000, Total charge = -0.00000
