  ==> Input File <==

--------------------------------------------------------------------------
set {
	reference rhf
	basis 6-31G*
}

set_num_threads( 4 )
memory 2 gb

molecule MOL {
0 1

H	 1.324496	 -1.580511	 -0.157522
O	 1.586534	 -0.678666	 -0.000226
C	 0.489431	 0.077273	 0.000046
C	 -0.764129	 -0.759190	 0.000191
O	 0.537743	 1.263962	 0.000257
C	 -2.038368	 0.075731	 -0.000248
H	 -0.717284	 -1.412404	 -0.866059
H	 -0.717458	 -1.411724	 0.866967
H	 -2.086483	 0.712501	 -0.875098
H	 -2.908485	 -0.571682	 -0.000042
H	 -2.086576	 0.713280	 0.874068

	symmetry c1
}
set optking {
	frozen_dihedral = ("
		1 2 3 5
	")
}

ee = optimize('scf')
oeprop('DIPOLE', 'QUADRUPOLE', 'MULLIKEN_CHARGES')
f=open( 'psi4out.xyz', 'w' )
f.write( "11  " )
f.write( str(ee) + "\n" )
f.write( MOL.save_string_xyz() )
f.close()
--------------------------------------------------------------------------

    Molecular point group: c1
  Charge       = 0
  Multiplicity = 1
  Basis Set: 6-31G*
  Basis Set:
  @DF-RHF Final Energy:  -266.83310201674345
    Total Energy =                       -266.8331020167435668
    Molecular point group: c1
  Basis Set: 6-31G*
  Basis Set:
  Basis Set: 6-31G*
  Basis Set:
  @DF-RHF Final Energy:  -266.83451361342514
    Total Energy =                       -266.8345136134250311
  Basis Set: 6-31G*
  Basis Set:
  Basis Set: 6-31G*
  Basis Set:
  @DF-RHF Final Energy:  -266.83471605268727
    Total Energy =                       -266.8347160526873267
  Basis Set: 6-31G*
  Basis Set:
  Basis Set: 6-31G*
  Basis Set:
  @DF-RHF Final Energy:  -266.83471953536161
    Total Energy =                       -266.8347195353617280
  Basis Set: 6-31G*
  Basis Set:
  Basis Set: 6-31G*
  Basis Set:
  @DF-RHF Final Energy:  -266.83471724886601
    Total Energy =                       -266.8347172488664114
  Basis Set: 6-31G*
  Basis Set:
  Charge       = 0
  Multiplicity = 1
  Basis Set: 6-31G*
  Basis Set:

    Orbital Energies (a.u.)
    -----------------------

    Doubly Occupied:

       1A    -20.613617     2A    -20.548716     3A    -11.381489
       4A    -11.256494     5A    -11.226653     6A     -1.469331
       7A     -1.371226     8A     -1.069690     9A     -0.908862
      10A     -0.829811    11A     -0.718948    12A     -0.667056
      13A     -0.657712    14A     -0.609487    15A     -0.596241
      16A     -0.534372    17A     -0.528121    18A     -0.514163
      19A     -0.476518    20A     -0.442067

  @DF-RHF Final Energy:  -266.83471991201964

   => Energetics <=

    Nuclear Repulsion Energy =            179.6616000863072031
    One-Electron Energy =                -720.1514932553760673
    Two-Electron Energy =                 273.6551732570490003
    DFT Exchange-Correlation Energy =       0.0000000000000000
    Empirical Dispersion Energy =           0.0000000000000000
    PCM Polarization Energy =               0.0000000000000000
    EFP Energy =                            0.0000000000000000
    Total Energy =                       -266.8347199120198638
    Molecular point group: c1
  Basis Set: 6-31G*
  Basis Set:

  -Total Gradient:
     Atom            X                  Y                   Z
    ------   -----------------  -----------------  -----------------
       1        0.000230946419     0.000350594742    -0.002424604911
       2       -0.000286612876    -0.000461856286     0.002127053942
       3        0.000078211704     0.000096407237     0.002407228640
       4        0.000003550991     0.000012044756     0.000006495295
       5       -0.000011356738     0.000013587799    -0.002115861609
       6        0.000000314253    -0.000008135238    -0.000000524070
       7       -0.000002027113     0.000001569645     0.000003698800
       8       -0.000003607771    -0.000001748873    -0.000003355304
       9        0.000001532453    -0.000002071920     0.000003265668
      10       -0.000012771154     0.000002414553     0.000000256131
      11        0.000001819830    -0.000002806417    -0.000003652581

  **** Optimization is complete! (in 6 steps) ****
    Final optimized geometry and variables:
    Molecular point group: c1

    Geometry (in Angstrom), charge = 0, multiplicity = 1:

    H            1.477121516986    -1.553727388433    -0.147445287541
    O            1.635680998188    -0.631419912173     0.003024526427
    C            0.501612748129     0.079479322444     0.001332859046
    C           -0.771331275032    -0.743648433767     0.002319425209
    O            0.537379453770     1.260117434097    -0.001390208437
    C           -2.033271102395     0.109715544874     0.004928441243
    H           -0.751363313439    -1.395378127778    -0.869466113493
    H           -0.743858471116    -1.397291797911     0.871404344780
    H           -2.069382886491     0.747947668654    -0.868799538704
    H           -2.913405236044    -0.523853344576     0.006166380048
    H           -2.065854957206     0.746200711337     0.880033173936

  Mulliken Charges: (a.u.)
   Center  Symbol    Alpha    Beta     Spin     Total
       1     H     0.26872  0.26872  0.00000  0.46256
       2     O     4.35111  4.35111  0.00000 -0.70221
       3     C     2.60960  2.60960  0.00000  0.78080
       4     C     3.23437  3.23437  0.00000 -0.46874
       5     O     4.26256  4.26256  0.00000 -0.52511
       6     C     3.23648  3.23648  0.00000 -0.47296
       7     H     0.40639  0.40639  0.00000  0.18723
       8     H     0.40212  0.40212  0.00000  0.19577
       9     H     0.40607  0.40607  0.00000  0.18787
      10     H     0.41696  0.41696  0.00000  0.16607
      11     H     0.40564  0.40564  0.00000  0.18873

   Total alpha = 20.00000, Total beta = 20.00000, Total charge = -0.00000
