                              Psi4 1.0.54 Driver

  ==> Input File <==

--------------------------------------------------------------------------
set {
	reference rhf
	basis cc-pvtz
}

set_num_threads( 4 )
memory 2 gb

molecule MOL {
0 1

H	 -3.294565	 0.569785	 0.000000
C	 -2.246225	 0.343737	 0.000000
C	 -1.809462	 -0.973484	 0.000000
C	 -1.312577	 1.353775	 0.000000
H	 -2.523539	 -1.775124	 0.000000
C	 -0.467257	 -1.267606	 0.000000
H	 -1.631287	 2.379013	 0.000000
C	 0.046966	 1.074396	 0.000000
H	 -0.119372	 -2.281828	 0.000000
C	 0.471772	 -0.241514	 0.000000
H	 0.748162	 1.882966	 0.000000
O	 1.760432	 -0.625184	 0.000000
C	 2.083450	 -1.983056	 -0.000000
H	 1.703122	 -2.482393	 0.884150
H	 3.160543	 -2.039975	 -0.000000
H	 1.703122	 -2.482393	 -0.884150

	symmetry c1
}
set optking {
	frozen_dihedral = ("
		13 12 10 8
	")
}

ee,wfn = optimize('scf', return_wfn=True)
oeprop( wfn, 'DIPOLE', 'QUADRUPOLE', 'MULLIKEN_CHARGES')
f=open( 'psi4out.xyz', 'w' )
f.write( "16  " )
f.write( str(ee) + "\n" )
f.write( MOL.save_string_xyz() )
f.close()
--------------------------------------------------------------------------

    Molecular point group: c1
  Charge       = 0
  Multiplicity = 1
  Basis Set: CC-PVTZ
  Basis Set:
  @DF-RHF Final Energy:  -344.69539666914875
    Total Energy =                       -344.6953966691489200
    Molecular point group: c1
  Basis Set: CC-PVTZ
  Basis Set:
  Basis Set: CC-PVTZ
  Basis Set:
  @DF-RHF Final Energy:  -344.69705125425520
    Total Energy =                       -344.6970512542551432
  Basis Set: CC-PVTZ
  Basis Set:
  Basis Set: CC-PVTZ
  Basis Set:
  @DF-RHF Final Energy:  -344.70275424737423
    Total Energy =                       -344.7027542473741164
  Basis Set: CC-PVTZ
  Basis Set:
  Basis Set: CC-PVTZ
  Basis Set:
  @DF-RHF Final Energy:  -344.70366490363023
    Total Energy =                       -344.7036649036302265
  Basis Set: CC-PVTZ
  Basis Set:
  Basis Set: CC-PVTZ
  Basis Set:
  @DF-RHF Final Energy:  -344.70374624278821
    Total Energy =                       -344.7037462427882133
  Basis Set: CC-PVTZ
  Basis Set:
  Basis Set: CC-PVTZ
  Basis Set:
  @DF-RHF Final Energy:  -344.70375626385862
    Total Energy =                       -344.7037562638586223
  Basis Set: CC-PVTZ
  Basis Set:
  Charge       = 0
  Multiplicity = 1
  Basis Set: CC-PVTZ
  Basis Set:

    Orbital Energies (a.u.)
    -----------------------

    Doubly Occupied:

       1A    -20.580691     2A    -11.293785     3A    -11.278593
       4A    -11.231231     5A    -11.229993     6A    -11.221806
       7A    -11.217966     8A    -11.216840     9A     -1.420153
      10A     -1.150944    11A     -1.025817    12A     -1.016634
      13A     -0.944422    14A     -0.834528    15A     -0.808281
      16A     -0.726413    17A     -0.667819    18A     -0.666348
      19A     -0.661238    20A     -0.619479    21A     -0.590105
      22A     -0.579354    23A     -0.528321    24A     -0.523807
      25A     -0.512468    26A     -0.478715    27A     -0.467954
      28A     -0.339779    29A     -0.309954

  @DF-RHF Final Energy:  -344.70375785710115

   => Energetics <=

    Nuclear Repulsion Energy =            348.9135874029580577
    One-Electron Energy =               -1158.9478138737667905
    Two-Electron Energy =                 465.3304686137079216
    DFT Exchange-Correlation Energy =       0.0000000000000000
    Empirical Dispersion Energy =           0.0000000000000000
    PCM Polarization Energy =               0.0000000000000000
    EFP Energy =                            0.0000000000000000
    Total Energy =                       -344.7037578571008680
    Molecular point group: c1
  Basis Set: CC-PVTZ
  Basis Set:

  -Total Gradient:
     Atom            X                  Y                   Z
    ------   -----------------  -----------------  -----------------
       1       -0.000004893419    -0.000003826104    -0.000000001470
       2        0.000015416284     0.000028226824    -0.000000006390
       3        0.000011094435    -0.000001572746     0.000000008521
       4       -0.000036232754    -0.000005573691     0.000000005178
       5       -0.000009121820     0.000008087832    -0.000000002095
       6        0.000007574762    -0.000033053795    -0.000000001722
       7       -0.000006002506     0.000000232317    -0.000000002348
       8        0.000014774842    -0.000024138845     0.000000003702
       9        0.000009550968     0.000008688494    -0.000000001550
      10       -0.000052095024     0.000057853342     0.000000003835
      11        0.000008014660    -0.000011853009    -0.000000001915
      12        0.000055637619    -0.000007451371    -0.000000004842
      13       -0.000032480908    -0.000010068548     0.000000002423
      14        0.000007894031    -0.000010881920     0.000003253131
      15        0.000002975593     0.000016212512    -0.000000000852
      16        0.000007893240    -0.000010881291    -0.000003253606

  **** Optimization is complete! (in 7 steps) ****
    Final optimized geometry and variables:
    Molecular point group: c1

    Geometry (in Angstrom), charge = 0, multiplicity = 1:

    H           -3.187845562501     1.008564929328    -0.000000122183
    C           -2.152932652740     0.727302942398    -0.000000038730
    C           -1.788192193805    -0.598836913174     0.000000023564
    C           -1.159502175499     1.696278386178     0.000000016174
    H           -2.542635972331    -1.362718179966    -0.000000029284
    C           -0.452381491261    -0.975837112623     0.000000034002
    H           -1.425165014519     2.736457336486    -0.000000045852
    C            0.167620484859     1.340380900871     0.000000060632
    H           -0.201457442591    -2.016246940651    -0.000000000373
    C            0.529794324654    -0.002556064878     0.000000033778
    H            0.942992792420     2.080973707292     0.000000031990
    O            1.850796569440    -0.253954195049    -0.000000065166
    C            2.309894354832    -1.572140500800    -0.000000023711
    H            1.982307416688    -2.107549162053     0.884166368204
    H            3.387217931254    -1.519332394954    -0.000000146871
    H            1.982307232839    -2.107549273788    -0.884166280040

  Mulliken Charges: (a.u.)
   Center  Symbol    Alpha    Beta     Spin     Total
       1     H     0.42442  0.42442  0.00000  0.15115
       2     C     3.10099  3.10099  0.00000 -0.20197
       3     C     3.06154  3.06154  0.00000 -0.12308
       4     C     3.05793  3.05793  0.00000 -0.11586
       5     H     0.42366  0.42366  0.00000  0.15268
       6     C     3.14418  3.14418  0.00000 -0.28837
       7     H     0.42300  0.42300  0.00000  0.15400
       8     C     3.11174  3.11174  0.00000 -0.22349
       9     H     0.42253  0.42253  0.00000  0.15494
      10     C     2.84990  2.84990  0.00000  0.30019
      11     H     0.42101  0.42101  0.00000  0.15799
      12     O     4.15068  4.15068  0.00000 -0.30136
      13     C     3.04490  3.04490  0.00000 -0.08980
      14     H     0.46239  0.46239  0.00000  0.07521
      15     H     0.43873  0.43873  0.00000  0.12254
      16     H     0.46239  0.46239  0.00000  0.07521

   Total alpha = 29.00000, Total beta = 29.00000, Total charge =  0.00000

*** Psi4 exiting successfully. Buy a developer a beer!
