  ==> Input File <==

--------------------------------------------------------------------------
set {
	reference rhf
	basis 6-31G*
}

set_num_threads( 1 )
memory 2 gb

molecule MOL {
0 1

H	 3.276176	 0.174363	 -0.109463
N	 2.434251	 -0.367735	 -0.081097
C	 1.267428	 0.496480	 0.024474
H	 2.501951	 -0.965776	 0.720575
C	 -0.016086	 -0.325158	 -0.029487
H	 1.288818	 1.183521	 -0.816092
H	 1.267576	 1.109062	 0.929528
C	 -1.282277	 0.529072	 0.046735
H	 -0.012495	 -0.908639	 -0.945788
H	 -0.015903	 -1.041248	 0.791956
C	 -2.485766	 -0.130646	 -0.625640
H	 -1.094544	 1.494045	 -0.419710
H	 -1.520483	 0.735015	 1.088273
H	 -2.292119	 -0.317845	 -1.677865
H	 -3.368181	 0.498069	 -0.557953
H	 -2.721578	 -1.083156	 -0.159443

	symmetry c1
}
set optking {
	frozen_dihedral = ("
		6 3 5 9,
		1 2 3 6
	")
}

ee = energy('scf')
oeprop('DIPOLE', 'QUADRUPOLE', 'MULLIKEN_CHARGES')
f=open( 'psi4out.xyz', 'w' )
f.write( "16  " )
f.write( str(ee) + "\n" )
f.write( MOL.save_string_xyz() )
f.close()
--------------------------------------------------------------------------

    Molecular point group: c1

    Geometry (in Angstrom), charge = 0, multiplicity = 1:

       Center              X                  Y                   Z               Mass
    ------------   -----------------  -----------------  -----------------  -----------------
           H          3.260103197757     0.139175391816     0.017883548299     1.007825032070
           N          2.418178197757    -0.402922608184     0.046249548299    14.003074004780
           C          1.251355197757     0.461292391816     0.151820548299    12.000000000000
           H          2.485878197757    -1.000963608184     0.847921548299     1.007825032070
           C         -0.032158802243    -0.360345608184     0.097859548299    12.000000000000
           H          1.272745197757     1.148333391816    -0.688745451701     1.007825032070
           H          1.251503197757     1.073874391816     1.056874548299     1.007825032070
           C         -1.298349802243     0.493884391816     0.174081548299    12.000000000000
           H         -0.028567802243    -0.943826608184    -0.818441451701     1.007825032070
           H         -0.031975802243    -1.076435608184     0.919302548299     1.007825032070
           C         -2.501838802243    -0.165833608184    -0.498293451701    12.000000000000
           H         -1.110616802243     1.458857391816    -0.292363451701     1.007825032070
           H         -1.536555802243     0.699827391816     1.215619548299     1.007825032070
           H         -2.308191802243    -0.353032608184    -1.550518451701     1.007825032070
           H         -3.384253802243     0.462881391816    -0.430606451701     1.007825032070
           H         -2.737650802243    -1.118343608184    -0.032096451701     1.007825032070

  Charge       = 0
  Multiplicity = 1
  Basis Set: 6-31G*
  Basis Set:

    Orbital Energies (a.u.)
    -----------------------

    Doubly Occupied:

       1A    -15.532558     2A    -11.240129     3A    -11.214493
       4A    -11.208991     5A    -11.207657     6A     -1.176730
       7A     -1.059398     8A     -0.958245     9A     -0.844317
      10A     -0.791578    11A     -0.663498    12A     -0.633186
      13A     -0.612312    14A     -0.574513    15A     -0.561728
      16A     -0.528044    17A     -0.497910    18A     -0.471361
      19A     -0.463261    20A     -0.460378    21A     -0.381062

  @DF-RHF Final Energy:  -212.31480972418581

   => Energetics <=

    Nuclear Repulsion Energy =            186.4354277497947123
    One-Electron Energy =                -655.3377826877168673
    Two-Electron Energy =                 256.5875452137368598
    DFT Exchange-Correlation Energy =       0.0000000000000000
    Empirical Dispersion Energy =           0.0000000000000000
    PCM Polarization Energy =               0.0000000000000000
    EFP Energy =                            0.0000000000000000
    Total Energy =                       -212.3148097241852952

  Mulliken Charges: (a.u.)
   Center  Symbol    Alpha    Beta     Spin     Total
       1     H     0.33252  0.33252  0.00000  0.33496
       2     N     3.92175  3.92175  0.00000 -0.84351
       3     C     3.06191  3.06191  0.00000 -0.12382
       4     H     0.33534  0.33534  0.00000  0.32931
       5     C     3.15148  3.15148  0.00000 -0.30295
       6     H     0.42063  0.42063  0.00000  0.15875
       7     H     0.43464  0.43464  0.00000  0.13072
       8     C     3.15632  3.15632  0.00000 -0.31264
       9     H     0.41269  0.41269  0.00000  0.17462
      10     H     0.42643  0.42643  0.00000  0.14715
      11     C     3.23909  3.23909  0.00000 -0.47818
      12     H     0.42297  0.42297  0.00000  0.15406
      13     H     0.42208  0.42208  0.00000  0.15585
      14     H     0.42034  0.42034  0.00000  0.15933
      15     H     0.42032  0.42032  0.00000  0.15936
      16     H     0.42150  0.42150  0.00000  0.15700

   Total alpha = 21.00000, Total beta = 21.00000, Total charge =  0.00000
