  ==> Input File <==

--------------------------------------------------------------------------
set {
	reference rhf
	basis cc-pvtz
}

set_num_threads( 4 )
memory 2 gb

molecule MOL {
0 1

H	 -2.861681	 0.112972	 -2.252142
C	 -1.901541	 -0.020001	 -1.793271
C	 -1.589982	 -1.205097	 -1.141878
C	 -0.958831	 0.980474	 -1.840418
H	 -2.313097	 -1.997198	 -1.094855
C	 -0.361041	 -1.379694	 -0.552606
H	 -1.181546	 1.904411	 -2.339846
C	 0.287326	 0.820749	 -1.250511
H	 -0.110354	 -2.291345	 -0.046920
C	 0.587842	 -0.364001	 -0.603875
H	 0.998945	 1.618320	 -1.304735
O	 1.760432	 -0.625184	 0.000000
C	 2.773565	 0.334879	 0.000000
H	 2.728295	 0.960928	 -0.884150
H	 3.706387	 -0.206610	 0.000000
H	 2.728295	 0.960928	 0.884150

	symmetry c1
}
set optking {
	frozen_dihedral = ("
		10 12 13 14
	")
}

ee = optimize('scf')
oeprop('DIPOLE', 'QUADRUPOLE', 'MULLIKEN_CHARGES')
f=open( 'psi4out.xyz', 'w' )
f.write( "16  " )
f.write( str(ee) + "\n" )
f.write( MOL.save_string_xyz() )
f.close()
--------------------------------------------------------------------------

    Molecular point group: c1
  Charge       = 0
  Multiplicity = 1
  Basis Set: CC-PVTZ
  Basis Set:
  @DF-RHF Final Energy:  -344.69985247026142
    Total Energy =                       -344.6998524702617601
    Molecular point group: c1
  Basis Set: CC-PVTZ
  Basis Set:
  Basis Set: CC-PVTZ
  Basis Set:
  @DF-RHF Final Energy:  -344.70009219304615
    Total Energy =                       -344.7000921930460891
  Basis Set: CC-PVTZ
  Basis Set:
  Basis Set: CC-PVTZ
  Basis Set:
  @DF-RHF Final Energy:  -344.70148378662179
    Total Energy =                       -344.7014837866215657
  Basis Set: CC-PVTZ
  Basis Set:
  Basis Set: CC-PVTZ
  Basis Set:
  @DF-RHF Final Energy:  -344.70174124527341
    Total Energy =                       -344.7017412452732401
  Basis Set: CC-PVTZ
  Basis Set:
  Basis Set: CC-PVTZ
  Basis Set:
  @DF-RHF Final Energy:  -344.70179671547879
    Total Energy =                       -344.7017967154788494
  Basis Set: CC-PVTZ
  Basis Set:
  Basis Set: CC-PVTZ
  Basis Set:
  @DF-RHF Final Energy:  -344.70179975846850
    Total Energy =                       -344.7017997584683826
  Basis Set: CC-PVTZ
  Basis Set:
  Charge       = 0
  Multiplicity = 1
  Basis Set: CC-PVTZ
  Basis Set:

    Orbital Energies (a.u.)
    -----------------------

    Doubly Occupied:

       1A    -20.577329     2A    -11.293030     3A    -11.277935
       4A    -11.231409     5A    -11.230057     6A    -11.222210
       7A    -11.218212     8A    -11.217567     9A     -1.416458
      10A     -1.151084    11A     -1.024992    12A     -1.016888
      13A     -0.943242    14A     -0.835162    15A     -0.808545
      16A     -0.724971    17A     -0.667661    18A     -0.666589
      19A     -0.656873    20A     -0.618789    21A     -0.591467
      22A     -0.582082    23A     -0.527767    24A     -0.521309
      25A     -0.512221    26A     -0.482092    27A     -0.461463
      28A     -0.339678    29A     -0.311177

  @DF-RHF Final Energy:  -344.70180071126168

   => Energetics <=

    Nuclear Repulsion Energy =            348.6759376882545780
    One-Electron Energy =               -1158.4989576598768508
    Two-Electron Energy =                 465.1212192603605899
    DFT Exchange-Correlation Energy =       0.0000000000000000
    Empirical Dispersion Energy =           0.0000000000000000
    PCM Polarization Energy =               0.0000000000000000
    EFP Energy =                            0.0000000000000000
    Total Energy =                       -344.7018007112616260
    Molecular point group: c1
  Basis Set: CC-PVTZ
  Basis Set:

  -Total Gradient:
     Atom            X                  Y                   Z
    ------   -----------------  -----------------  -----------------
       1       -0.000017864455    -0.000017581292     0.000011776891
       2        0.000047801631     0.000109827168    -0.000016735430
       3        0.000092524644    -0.000094380729     0.000050153907
       4       -0.000065208833    -0.000040505618    -0.000047511796
       5       -0.000002864621     0.000009906702    -0.000007208739
       6       -0.000069870711    -0.000011312557    -0.000023235384
       7        0.000014929563    -0.000000856313     0.000018552361
       8        0.000031014310    -0.000069366381     0.000041966297
       9        0.000001733090    -0.000015174052     0.000004248371
      10        0.000693318821    -0.001642326446    -0.001909372891
      11        0.000029150518     0.000010594524     0.000003673552
      12       -0.001644123055     0.003408475896     0.003034247868
      13        0.002512674261    -0.004138977013    -0.001920624290
      14       -0.001606728363     0.002562957536     0.000732006131
      15        0.000039798277    -0.000009866860     0.000007017992
      16       -0.000056285072    -0.000061414564     0.000021045162

  **** Optimization is complete! (in 7 steps) ****
    Final optimized geometry and variables:
    Molecular point group: c1

    Geometry (in Angstrom), charge = 0, multiplicity = 1:

    H           -2.964552568561     0.205087654062    -1.532443516874
    C           -2.030685850468     0.107012711015    -1.014240937096
    C           -1.699500979302    -1.080820844066    -0.380574978808
    C           -1.144088017355     1.159335505068    -0.964588077621
    H           -2.379791566868    -1.910855519094    -0.408111013079
    C           -0.501366760097    -1.212641031875     0.282508822894
    H           -1.387456098970     2.089283586164    -1.442693763940
    C            0.064773118851     1.043752821263    -0.295831158412
    H           -0.234486668572    -2.127566097182     0.773778907727
    C            0.390803612669    -0.148886949694     0.324440224327
    H            0.728882748078     1.883286108596    -0.255961261964
    O            1.527544759433    -0.350098878179     1.016627915051
    C            2.660679372575     0.429139775452     0.757579114711
    H            2.696548098024     0.753319582080    -0.274200201411
    H            3.523845955955    -0.179335580745     0.979981907278
    H            2.675882372959     1.308061494594     1.393253192546

  Mulliken Charges: (a.u.)
   Center  Symbol    Alpha    Beta     Spin     Total
       1     H     0.42435  0.42435  0.00000  0.15130
       2     C     3.09945  3.09945  0.00000 -0.19890
       3     C     3.05900  3.05900  0.00000 -0.11801
       4     C     3.06302  3.06302  0.00000 -0.12604
       5     H     0.42291  0.42291  0.00000  0.15419
       6     C     3.11007  3.11007  0.00000 -0.22014
       7     H     0.42314  0.42314  0.00000  0.15371
       8     C     3.13681  3.13681  0.00000 -0.27362
       9     H     0.42010  0.42010  0.00000  0.15979
      10     C     2.85473  2.85473  0.00000  0.29054
      11     H     0.42320  0.42320  0.00000  0.15360
      12     O     4.15655  4.15655  0.00000 -0.31310
      13     C     3.04243  3.04243  0.00000 -0.08486
      14     H     0.46380  0.46380  0.00000  0.07240
      15     H     0.44192  0.44192  0.00000  0.11617
      16     H     0.45852  0.45852  0.00000  0.08296

   Total alpha = 29.00000, Total beta = 29.00000, Total charge =  0.00000
