                              Psi4 1.0.54 Driver

  ==> Input File <==

--------------------------------------------------------------------------
set {
	reference rhf
	basis cc-pvtz
}

set_num_threads( 4 )
memory 2 gb

molecule MOL {
0 1

O	 1.707442	 -0.521754	 -0.264061
C	 0.860843	 0.273204	 -0.013120
C	 -0.623368	 -0.117453	 -0.005652
C	 1.244470	 1.705849	 0.300540
C	 -0.892588	 -1.253841	 -1.002900
C	 -1.473463	 1.100646	 -0.372896
C	 -0.981836	 -0.579025	 1.418506
H	 -0.609333	 -0.970024	 -2.010649
H	 -1.950451	 -1.487353	 -1.013175
H	 -0.360848	 -2.161259	 -0.746463
H	 -1.232203	 1.461623	 -1.364827
H	 -2.524364	 0.834451	 -0.354500
H	 -1.312381	 1.914833	 0.318657
H	 -2.035706	 -0.826342	 1.468082
H	 -0.425078	 -1.458934	 1.716857
H	 -0.788494	 0.205047	 2.140903
H	 1.206025	 1.857994	 1.373450
H	 2.254935	 1.876425	 -0.037595
H	 0.576150	 2.423744	 -0.154659

	symmetry c1
}
set optking {
	frozen_dihedral = ("
		1 2 3 5
	")
}

ee,wfn = optimize('scf', return_wfn=True)
oeprop( wfn, 'DIPOLE', 'QUADRUPOLE', 'MULLIKEN_CHARGES')
f=open( 'psi4out.xyz', 'w' )
f.write( "19  " )
f.write( str(ee) + "\n" )
f.write( MOL.save_string_xyz() )
f.close()
--------------------------------------------------------------------------

    Molecular point group: c1
  Charge       = 0
  Multiplicity = 1
  Basis Set: CC-PVTZ
  Basis Set:
  @DF-RHF Final Energy:  -309.17027738637188
    Total Energy =                       -309.1702773863715379
    Molecular point group: c1
  Basis Set: CC-PVTZ
  Basis Set:
  Basis Set: CC-PVTZ
  Basis Set:
  @DF-RHF Final Energy:  -308.92014372988729
    Total Energy =                       -308.9201437298873998
  Basis Set: CC-PVTZ
  Basis Set:
  Basis Set: CC-PVTZ
  Basis Set:
  @DF-RHF Final Energy:  -309.05486620271080
    Total Energy =                       -309.0548662027107412
  Basis Set: CC-PVTZ
  Basis Set:
  Basis Set: CC-PVTZ
  Basis Set:
  @DF-RHF Final Energy:  -309.15461883341038
    Total Energy =                       -309.1546188334105523
  Basis Set: CC-PVTZ
  Basis Set:
  @DF-RHF Final Energy:  -309.16985740379914
    Total Energy =                       -309.1698574037994831
  @DF-RHF Final Energy:  -309.17245050169305
    Total Energy =                       -309.1724505016928788
  @DF-RHF Final Energy:  -309.16883475572405
    Total Energy =                       -309.1688347557238785
  @DF-RHF Final Energy:  -309.17327543483447
    Total Energy =                       -309.1732754348342951
  @DF-RHF Final Energy:  -309.17375655476371
    Total Energy =                       -309.1737565547635995
  @DF-RHF Final Energy:  -309.17367368864524
    Total Energy =                       -309.1736736886454651
  @DF-RHF Final Energy:  -309.17333737524734
    Total Energy =                       -309.1733373752474563
  @DF-RHF Final Energy:  -309.17392795808496
    Total Energy =                       -309.1739279580848461
  Basis Set: CC-PVTZ
  Basis Set:
  @DF-RHF Final Energy:  -309.17393800339141
    Total Energy =                       -309.1739380033910720
  Basis Set: CC-PVTZ
  Basis Set:
  Basis Set: CC-PVTZ
  Basis Set:
  @DF-RHF Final Energy:  -309.17394066831901
    Total Energy =                       -309.1739406683194602
  Basis Set: CC-PVTZ
  Basis Set:
  Basis Set: CC-PVTZ
  Basis Set:
  @DF-RHF Final Energy:  -309.17394786780744
    Total Energy =                       -309.1739478678074988
  Basis Set: CC-PVTZ
  Basis Set:
  Charge       = 0
  Multiplicity = 1
  Basis Set: CC-PVTZ
  Basis Set:

    Orbital Energies (a.u.)
    -----------------------

    Doubly Occupied:

       1A    -20.536971     2A    -11.318062     3A    -11.245651
       4A    -11.225623     5A    -11.221249     6A    -11.220864
       7A    -11.207909     8A     -1.398312     9A     -1.110349
      10A     -1.003856    11A     -0.946547    12A     -0.936841
      13A     -0.835075    14A     -0.705583    15A     -0.666777
      16A     -0.634108    17A     -0.622865    18A     -0.595005
      19A     -0.590389    20A     -0.568638    21A     -0.547976
      22A     -0.546584    23A     -0.525383    24A     -0.514145
      25A     -0.503045    26A     -0.472696    27A     -0.466147
      28A     -0.394162

  @DF-RHF Final Energy:  -309.17394794964798

   => Energetics <=

    Nuclear Repulsion Energy =            326.9195749272350895
    One-Electron Energy =               -1067.0654227425106910
    Two-Electron Energy =                 430.9718998656276199
    DFT Exchange-Correlation Energy =       0.0000000000000000
    Empirical Dispersion Energy =           0.0000000000000000
    PCM Polarization Energy =               0.0000000000000000
    EFP Energy =                            0.0000000000000000
    Total Energy =                       -309.1739479496479817
    Molecular point group: c1
  Basis Set: CC-PVTZ
  Basis Set:

  -Total Gradient:
     Atom            X                  Y                   Z
    ------   -----------------  -----------------  -----------------
       1       -0.000210163917    -0.000820224089     0.000836781035
       2        0.000277377458     0.001385709168    -0.001269516295
       3       -0.000069077391    -0.001381759652     0.000693467529
       4       -0.000003786614     0.000000788323    -0.000034743215
       5       -0.000003607108     0.000812866087    -0.000258927400
       6        0.000007108343     0.000019994178     0.000004664739
       7        0.000009074052     0.000001346379     0.000002384370
       8       -0.000004253896    -0.000004539400     0.000004461763
       9        0.000004724288    -0.000001654484     0.000002960511
      10        0.000002951506    -0.000006264721     0.000000549740
      11       -0.000008250740    -0.000001727154     0.000005270648
      12        0.000005523628     0.000000378452     0.000000886470
      13       -0.000000983562    -0.000003216289    -0.000010005913
      14        0.000002916858    -0.000001306592    -0.000001176800
      15       -0.000003340357    -0.000009008711     0.000001101740
      16        0.000001379926    -0.000001718917    -0.000007282789
      17       -0.000015218035     0.000000236044     0.000018417449
      18        0.000007600518     0.000000377080     0.000007887420
      19        0.000000025047     0.000009724299     0.000002818998

  **** Optimization is complete! (in 16 steps) ****
    Final optimized geometry and variables:
    Molecular point group: c1

    Geometry (in Angstrom), charge = 0, multiplicity = 1:

    O            1.750554137682    -0.565000351549    -0.143400686030
    C            0.858333941848     0.104257506155     0.266760854285
    C           -0.574734876313    -0.096731258404    -0.250454852391
    C            1.117912587712     1.126756224813     1.353008760002
    C           -0.523822712051    -0.596967744941    -1.697087713195
    C           -1.400924053553     1.194793085214    -0.189030932303
    C           -1.219937255421    -1.167352235846     0.647578391101
    H           -0.064155844822     0.138032021469    -2.347604833266
    H           -1.528796308051    -0.783726438091    -2.058539179270
    H            0.047206660987    -1.509842420348    -1.775885485895
    H           -0.949583407102     1.984567792528    -0.779469407683
    H           -2.390067207408     1.012273985657    -0.591435426552
    H           -1.524421632379     1.559474809805     0.822645282278
    H           -2.235500054498    -1.359213498162     0.321338651319
    H           -0.666218806322    -2.096235055700     0.598239228640
    H           -1.261965000127    -0.852608137810     1.684486130192
    H            0.421641497045     1.016138996460     2.175010540878
    H            2.128319013001     1.004771601050     1.711038858439
    H            0.996631328112     2.128884029483     0.958938934536

  Mulliken Charges: (a.u.)
   Center  Symbol    Alpha    Beta     Spin     Total
       1     O     4.17848  4.17848  0.00000 -0.35695
       2     C     2.84975  2.84975  0.00000  0.30049
       3     C     3.00708  3.00708  0.00000 -0.01416
       4     C     3.16456  3.16456  0.00000 -0.32913
       5     C     3.15184  3.15184  0.00000 -0.30368
       6     C     3.16533  3.16533  0.00000 -0.33066
       7     C     3.15563  3.15563  0.00000 -0.31125
       8     H     0.44909  0.44909  0.00000  0.10182
       9     H     0.45160  0.45160  0.00000  0.09680
      10     H     0.43606  0.43606  0.00000  0.12788
      11     H     0.44409  0.44409  0.00000  0.11182
      12     H     0.44263  0.44263  0.00000  0.11473
      13     H     0.44564  0.44564  0.00000  0.10871
      14     H     0.44682  0.44682  0.00000  0.10637
      15     H     0.43965  0.43965  0.00000  0.12069
      16     H     0.44748  0.44748  0.00000  0.10505
      17     H     0.44636  0.44636  0.00000  0.10727
      18     H     0.43175  0.43175  0.00000  0.13650
      19     H     0.44616  0.44616  0.00000  0.10768

   Total alpha = 28.00000, Total beta = 28.00000, Total charge =  0.00000

*** Psi4 exiting successfully. Buy a developer a beer!
