  ==> Input File <==

--------------------------------------------------------------------------
set {
	reference rhf
	basis 6-31G*
}

set_num_threads( 1 )
memory 2 gb

molecule MOL {
0 1

O	 -2.042549	 -1.228399	 -0.269030
C	 -1.653912	 -0.146171	 0.050137
C	 -0.332303	 0.024011	 0.778412
C	 -2.438579	 1.106236	 -0.272369
C	 0.199795	 1.457390	 0.622948
H	 -0.443958	 -0.216759	 1.831952
H	 0.374719	 -0.674393	 0.344508
C	 1.546872	 1.663978	 1.317020
H	 -0.523324	 2.164123	 1.026321
H	 0.293838	 1.678752	 -0.435965
C	 2.082670	 3.086070	 1.156447
H	 1.447850	 1.431725	 2.375169
H	 2.268850	 0.957525	 0.914232
H	 1.397368	 3.814272	 1.580872
H	 2.222948	 3.335673	 0.108849
H	 3.039398	 3.202458	 1.655598
H	 -3.277823	 0.863061	 -0.908988
H	 -1.806773	 1.843019	 -0.759671
H	 -2.802853	 1.554979	 0.648059

	symmetry c1
}
set optking {
	frozen_dihedral = ("
		11 8 5 9,
		9 5 3 2
	")
}

ee = energy('scf')
oeprop('DIPOLE', 'QUADRUPOLE', 'MULLIKEN_CHARGES')
f=open( 'psi4out.xyz', 'w' )
f.write( "19  " )
f.write( str(ee) + "\n" )
f.write( MOL.save_string_xyz() )
f.close()
--------------------------------------------------------------------------

    Molecular point group: c1

    Geometry (in Angstrom), charge = 0, multiplicity = 1:

       Center              X                  Y                   Z               Mass
    ------------   -----------------  -----------------  -----------------  -----------------
           O         -1.666797701902    -2.095235219074    -0.748349744277    15.994914619560
           C         -1.278160701902    -1.013007219074    -0.429182744277    12.000000000000
           C          0.043448298098    -0.842825219074     0.299092255723    12.000000000000
           C         -2.062827701902     0.239399780926    -0.751688744277    12.000000000000
           C          0.575546298098     0.590553780926     0.143628255723    12.000000000000
           H         -0.068206701902    -1.083595219074     1.352632255723     1.007825032070
           H          0.750470298098    -1.541229219074    -0.134811744277     1.007825032070
           C          1.922623298098     0.797141780926     0.837700255723    12.000000000000
           H         -0.147572701902     1.297286780926     0.547001255723     1.007825032070
           H          0.669589298098     0.811915780926    -0.915284744277     1.007825032070
           C          2.458421298098     2.219233780926     0.677127255723    12.000000000000
           H          1.823601298098     0.564888780926     1.895849255723     1.007825032070
           H          2.644601298098     0.090688780926     0.434912255723     1.007825032070
           H          1.773119298098     2.947435780926     1.101552255723     1.007825032070
           H          2.598699298098     2.468836780926    -0.370470744277     1.007825032070
           H          3.415149298098     2.335621780926     1.176278255723     1.007825032070
           H         -2.902071701902    -0.003775219074    -1.388307744277     1.007825032070
           H         -1.431021701902     0.976182780926    -1.238990744277     1.007825032070
           H         -2.427101701902     0.688142780926     0.168739255723     1.007825032070

  Charge       = 0
  Multiplicity = 1
  Basis Set: 6-31G*
  Basis Set:

    Orbital Energies (a.u.)
    -----------------------

    Doubly Occupied:

       1A    -20.546524     2A    -11.324870     3A    -11.231237
       4A    -11.230523     5A    -11.226462     6A    -11.226323
       7A    -11.217178     8A     -1.392301     9A     -1.097654
      10A     -1.030717    11A     -0.979644    12A     -0.894641
      13A     -0.810651    14A     -0.732613    15A     -0.665471
      16A     -0.650275    17A     -0.628374    18A     -0.612320
      19A     -0.584604    20A     -0.573490    21A     -0.547902
      22A     -0.536413    23A     -0.525338    24A     -0.488576
      25A     -0.486512    26A     -0.479245    27A     -0.470204
      28A     -0.396467

  @DF-RHF Final Energy:  -309.05847040304621

   => Energetics <=

    Nuclear Repulsion Energy =            303.3290388942800178
    One-Electron Energy =               -1019.6020181178622579
    Two-Electron Energy =                 407.2145088205350021
    DFT Exchange-Correlation Energy =       0.0000000000000000
    Empirical Dispersion Energy =           0.0000000000000000
    PCM Polarization Energy =               0.0000000000000000
    EFP Energy =                            0.0000000000000000
    Total Energy =                       -309.0584704030472949

  Mulliken Charges: (a.u.)
   Center  Symbol    Alpha    Beta     Spin     Total
       1     O     4.26305  4.26305  0.00000 -0.52611
       2     C     2.73328  2.73328  0.00000  0.53345
       3     C     3.20173  3.20173  0.00000 -0.40346
       4     C     3.29603  3.29603  0.00000 -0.59206
       5     C     3.17101  3.17101  0.00000 -0.34202
       6     H     0.40198  0.40198  0.00000  0.19603
       7     H     0.39905  0.39905  0.00000  0.20191
       8     C     3.15041  3.15041  0.00000 -0.30082
       9     H     0.41796  0.41796  0.00000  0.16407
      10     H     0.41811  0.41811  0.00000  0.16378
      11     C     3.23988  3.23988  0.00000 -0.47977
      12     H     0.42123  0.42123  0.00000  0.15754
      13     H     0.42003  0.42003  0.00000  0.15994
      14     H     0.42126  0.42126  0.00000  0.15747
      15     H     0.42068  0.42068  0.00000  0.15864
      16     H     0.41683  0.41683  0.00000  0.16635
      17     H     0.39557  0.39557  0.00000  0.20885
      18     H     0.40525  0.40525  0.00000  0.18950
      19     H     0.40664  0.40664  0.00000  0.18671

   Total alpha = 28.00000, Total beta = 28.00000, Total charge =  0.00000
