  ==> Input File <==

--------------------------------------------------------------------------
set {
	reference rhf
	basis 6-31G*
}

set_num_threads( 4 )
memory 2 gb

molecule MOL {
0 1

O	 2.980295	 -2.853183	 -0.920150
C	 2.569672	 -1.984964	 -0.219690
C	 1.130097	 -1.792732	 0.191965
O	 3.347903	 -1.046386	 0.304773
C	 0.195868	 -2.857911	 -0.377881
H	 1.109338	 -1.771512	 1.276543
H	 0.832053	 -0.798190	 -0.130140
C	 -1.283061	 -2.617793	 -0.055999
H	 0.498481	 -3.833949	 -0.010603
H	 0.324350	 -2.890320	 -1.454386
C	 -1.647390	 -2.731018	 1.427091
H	 -1.871220	 -3.342311	 -0.614450
H	 -1.580442	 -1.638065	 -0.427088
C	 -3.149491	 -2.592432	 1.682992
H	 -1.305193	 -3.692438	 1.807080
H	 -1.121937	 -1.971130	 2.001061
C	 -3.524688	 -2.698718	 3.162202
H	 -3.682167	 -3.358510	 1.122087
H	 -3.494358	 -1.635794	 1.293621
C	 -5.026856	 -2.563109	 3.408779
H	 -3.179912	 -3.653671	 3.553146
H	 -2.996573	 -1.930992	 3.723870
H	 -5.261139	 -2.642613	 4.465849
H	 -5.581195	 -3.338801	 2.888004
H	 -5.396448	 -1.603083	 3.059456
C	 4.728119	 -1.109107	 -0.004993
H	 4.882018	 -1.033965	 -1.071845
H	 5.068212	 -2.067527	 0.355250
H	 5.265056	 -0.311663	 0.488280

	symmetry c1
}
set optking {
	frozen_dihedral = ("
		2 4 26 27
	")
}

ee = optimize('scf')
oeprop('DIPOLE', 'QUADRUPOLE', 'MULLIKEN_CHARGES')
f=open( 'psi4out.xyz', 'w' )
f.write( "29  " )
f.write( str(ee) + "\n" )
f.write( MOL.save_string_xyz() )
f.close()
--------------------------------------------------------------------------

    Molecular point group: c1
  Charge       = 0
  Multiplicity = 1
  Basis Set: 6-31G*
  Basis Set:
  @DF-RHF Final Energy:  -501.04245353673878
    Total Energy =                       -501.0424535367384351
    Molecular point group: c1
  Basis Set: 6-31G*
  Basis Set:
  Basis Set: 6-31G*
  Basis Set:
  @DF-RHF Final Energy:  -501.04375528996422
    Total Energy =                       -501.0437552899643379
  Basis Set: 6-31G*
  Basis Set:
  Basis Set: 6-31G*
  Basis Set:
  @DF-RHF Final Energy:  -501.04394587204820
    Total Energy =                       -501.0439458720481980
  Basis Set: 6-31G*
  Basis Set:
  Basis Set: 6-31G*
  Basis Set:
  @DF-RHF Final Energy:  -501.04367586347644
    Total Energy =                       -501.0436758634765511
  Basis Set: 6-31G*
  Basis Set:
  Basis Set: 6-31G*
  Basis Set:
  @DF-RHF Final Energy:  -501.04411188648430
    Total Energy =                       -501.0441118864850978
  Basis Set: 6-31G*
  Basis Set:
  Charge       = 0
  Multiplicity = 1
  Basis Set: 6-31G*
  Basis Set:

    Orbital Energies (a.u.)
    -----------------------

    Doubly Occupied:

       1A    -20.603363     2A    -20.545204     3A    -11.372005
       4A    -11.280638     5A    -11.234738     6A    -11.219092
       7A    -11.217637     8A    -11.215999     9A    -11.215855
      10A    -11.214458    11A    -11.209068    12A     -1.469099
      13A     -1.362536    14A     -1.098079    15A     -1.066815
      16A     -1.019507    17A     -0.977226    18A     -0.928558
      19A     -0.861595    20A     -0.799266    21A     -0.790499
      22A     -0.763800    23A     -0.700762    24A     -0.682336
      25A     -0.672178    26A     -0.650899    27A     -0.628802
      28A     -0.604694    29A     -0.594938    30A     -0.580922
      31A     -0.567042    32A     -0.549197    33A     -0.531846
      34A     -0.530451    35A     -0.516017    36A     -0.511863
      37A     -0.496349    38A     -0.477819    39A     -0.470191
      40A     -0.462410    41A     -0.458828    42A     -0.455788
      43A     -0.441130    44A     -0.435410

  @DF-RHF Final Energy:  -501.04411237379156

   => Energetics <=

    Nuclear Repulsion Energy =            610.2099001267828271
    One-Electron Energy =               -1891.5382070807515902
    Two-Electron Energy =                 780.2841945801768588
    DFT Exchange-Correlation Energy =       0.0000000000000000
    Empirical Dispersion Energy =           0.0000000000000000
    PCM Polarization Energy =               0.0000000000000000
    EFP Energy =                            0.0000000000000000
    Total Energy =                       -501.0441123737920179
    Molecular point group: c1
  Basis Set: 6-31G*
  Basis Set:

  -Total Gradient:
     Atom            X                  Y                   Z
    ------   -----------------  -----------------  -----------------
       1       -0.000013369533     0.000014586239    -0.000007073529
       2        0.000038387566    -0.000012681023    -0.000043703228
       3       -0.000005962902     0.000012800903     0.000003374829
       4        0.000111893993    -0.000002203923     0.000025623472
       5        0.000010649961    -0.000006937803     0.000000358369
       6       -0.000003239036    -0.000001381125     0.000010272867
       7        0.000006772961    -0.000005091946     0.000000184134
       8       -0.000001126818    -0.000002396858    -0.000001359970
       9       -0.000001334497    -0.000000145987    -0.000004650617
      10        0.000002164977     0.000003018953    -0.000001622159
      11        0.000002908164    -0.000002122618     0.000000872223
      12        0.000000951628    -0.000001691652     0.000001497689
      13       -0.000003844165    -0.000001969856    -0.000001778833
      14        0.000000494788     0.000004558786     0.000000777855
      15       -0.000000770249     0.000001048302     0.000000145256
      16        0.000005002572     0.000001518892    -0.000000340029
      17        0.000000056722     0.000001895745     0.000000225329
      18       -0.000000635602     0.000001836611    -0.000001109515
      19        0.000000904679     0.000001740609     0.000001220488
      20       -0.000000326863    -0.000004094966    -0.000000455210
      21        0.000001851752     0.000000956874     0.000000947451
      22       -0.000001574712     0.000001285054    -0.000000833475
      23       -0.000000158291    -0.000001393340    -0.000000129458
      24       -0.000001109665     0.000000396370    -0.000000708278
      25        0.000001035844     0.000000131033     0.000000724841
      26       -0.000012623340     0.000036123311     0.000000661697
      27       -0.000053810510    -0.000051690182    -0.000022340196
      28       -0.000044712377    -0.000006254100     0.000014743817
      29       -0.000038477054     0.000018157694     0.000024474186

  **** Optimization is complete! (in 6 steps) ****
    Final optimized geometry and variables:
    Molecular point group: c1

    Geometry (in Angstrom), charge = 0, multiplicity = 1:

    O            2.905198968260    -0.607607480417    -1.702731385376
    C            2.496936529057     0.259535424998    -0.999571510634
    C            1.057993850915     0.454003171574    -0.586801134952
    O            3.277561239163     1.194761365895    -0.472681512665
    C            0.121126815480    -0.607556056901    -1.159063999169
    H            1.037734276383     0.472412883047     0.497842465943
    H            0.762134792108     1.450065812115    -0.906192080731
    C           -1.357100840122    -0.364905973853    -0.835908100530
    H            0.421682953391    -1.585240077355    -0.794495617103
    H            0.249088909072    -0.637410765562    -2.235704845222
    C           -1.720807783226    -0.480044296128     0.647195700759
    H           -1.947102734267    -1.087178763656    -1.395322111145
    H           -1.652638974595     0.616116310074    -1.205046377521
    C           -3.222426863261    -0.338375654888     0.904260424675
    H           -1.380667422766    -1.442981960350     1.025171864447
    H           -1.193209933509     0.277514973452     1.222269070091
    C           -3.597018787935    -0.446738968736     2.383467189347
    H           -3.757254918037    -1.102048151568     0.342131339830
    H           -3.565227089454     0.619858355618     0.517004138400
    C           -5.098753097880    -0.308350266162     2.631164034389
    H           -3.254103043468    -1.403200440642     2.772348572387
    H           -3.066918978665     0.318736476855     2.946334420672
    H           -5.332604538630    -0.389454295641     3.688210846055
    H           -5.655074024652    -1.081787537410     2.109155869396
    H           -5.466445639731     0.653173403524     2.283965914085
    C            4.657377442590     1.129388678917    -0.783116116480
    H            4.811061344779     1.207108571578    -1.849792959889
    H            5.082389914124     0.200859487856    -0.429842722735
    H            5.113566721406     1.965921233193    -0.277045847811

  Mulliken Charges: (a.u.)
   Center  Symbol    Alpha    Beta     Spin     Total
       1     O     4.28596  4.28596  0.00000 -0.57192
       2     C     2.60484  2.60484  0.00000  0.79032
       3     C     3.20974  3.20974  0.00000 -0.41948
       4     O     4.30744  4.30744  0.00000 -0.61488
       5     C     3.15378  3.15378  0.00000 -0.30755
       6     H     0.39878  0.39878  0.00000  0.20243
       7     H     0.40125  0.40125  0.00000  0.19751
       8     C     3.15663  3.15663  0.00000 -0.31325
       9     H     0.41309  0.41309  0.00000  0.17383
      10     H     0.40874  0.40874  0.00000  0.18252
      11     C     3.15508  3.15508  0.00000 -0.31016
      12     H     0.41823  0.41823  0.00000  0.16355
      13     H     0.42386  0.42386  0.00000  0.15228
      14     C     3.15029  3.15029  0.00000 -0.30058
      15     H     0.42261  0.42261  0.00000  0.15478
      16     H     0.42361  0.42361  0.00000  0.15279
      17     C     3.15146  3.15146  0.00000 -0.30291
      18     H     0.42332  0.42332  0.00000  0.15336
      19     H     0.42397  0.42397  0.00000  0.15205
      20     C     3.23935  3.23935  0.00000 -0.47870
      21     H     0.42280  0.42280  0.00000  0.15440
      22     H     0.42343  0.42343  0.00000  0.15314
      23     H     0.41923  0.41923  0.00000  0.16154
      24     H     0.42154  0.42154  0.00000  0.15691
      25     H     0.42183  0.42183  0.00000  0.15634
      26     C     3.09242  3.09242  0.00000 -0.18483
      27     H     0.40899  0.40899  0.00000  0.18202
      28     H     0.40922  0.40922  0.00000  0.18156
      29     H     0.40852  0.40852  0.00000  0.18296

   Total alpha = 44.00000, Total beta = 44.00000, Total charge =  0.00000
