  ==> Input File <==

--------------------------------------------------------------------------
set {
	reference rhf
	basis cc-pvtz
}

set_num_threads( 4 )
memory 2 gb

molecule MOL {
0 1

H	 0.368932	 0.067620	 2.090526
C	 0.209919	 -0.484981	 1.189483
C	 0.208597	 -1.865081	 1.181972
C	 0.000000	 0.179985	 0.000046
H	 0.370006	 -2.400843	 2.096532
C	 -0.000003	 -2.552036	 -0.000010
N	 0.000000	 1.644631	 0.000076
C	 -0.209918	 -0.484932	 -1.189418
H	 -0.000000	 -3.625035	 -0.000032
C	 -0.208599	 -1.865032	 -1.181964
O	 1.050559	 2.194174	 -0.000073
O	 -1.050559	 2.194174	 -0.000074
H	 -0.368940	 0.067705	 -2.090438
H	 -0.370004	 -2.400757	 -2.096546

	symmetry c1
}
set optking {
	frozen_dihedral = ("
		2 4 7 11
	")
}

ee = optimize('scf')
oeprop('DIPOLE', 'QUADRUPOLE', 'MULLIKEN_CHARGES')
f=open( 'psi4out.xyz', 'w' )
f.write( "14  " )
f.write( str(ee) + "\n" )
f.write( MOL.save_string_xyz() )
f.close()
--------------------------------------------------------------------------

    Molecular point group: c1
  Charge       = 0
  Multiplicity = 1
  Basis Set: CC-PVTZ
  Basis Set:
  @DF-RHF Final Energy:  -434.32010414206638
    Total Energy =                       -434.3201041420667252
    Molecular point group: c1
  Basis Set: CC-PVTZ
  Basis Set:
  Basis Set: CC-PVTZ
  Basis Set:
  @DF-RHF Final Energy:  -434.31628487695212
    Total Energy =                       -434.3162848769516131
  Basis Set: CC-PVTZ
  Basis Set:
  Basis Set: CC-PVTZ
  Basis Set:
  @DF-RHF Final Energy:  -434.31988476932855
    Total Energy =                       -434.3198847693279276
  Basis Set: CC-PVTZ
  Basis Set:
  Basis Set: CC-PVTZ
  Basis Set:
  @DF-RHF Final Energy:  -434.32038434572291
    Total Energy =                       -434.3203843457228004
  Basis Set: CC-PVTZ
  Basis Set:
  Charge       = 0
  Multiplicity = 1
  Basis Set: CC-PVTZ
  Basis Set:

    Orbital Energies (a.u.)
    -----------------------

    Doubly Occupied:

       1A    -20.598545     2A    -20.598485     3A    -15.848368
       4A    -11.308161     5A    -11.267357     6A    -11.267287
       7A    -11.260876     8A    -11.260558     9A    -11.258000
      10A     -1.645762    11A     -1.428983    12A     -1.206498
      13A     -1.096679    14A     -1.056875    15A     -0.959249
      16A     -0.874935    17A     -0.831530    18A     -0.786427
      19A     -0.740724    20A     -0.738679    21A     -0.718224
      22A     -0.651977    23A     -0.650491    24A     -0.625877
      25A     -0.561712    26A     -0.553005    27A     -0.533701
      28A     -0.500857    29A     -0.485670    30A     -0.459485
      31A     -0.371595    32A     -0.370568

  @DF-RHF Final Energy:  -434.32038534454949

   => Energetics <=

    Nuclear Repulsion Energy =            417.3137683680940313
    One-Electron Energy =               -1418.2340310918871182
    Two-Electron Energy =                 566.5998773792434804
    DFT Exchange-Correlation Energy =       0.0000000000000000
    Empirical Dispersion Energy =           0.0000000000000000
    PCM Polarization Energy =               0.0000000000000000
    EFP Energy =                            0.0000000000000000
    Total Energy =                       -434.3203853445495497
    Molecular point group: c1
  Basis Set: CC-PVTZ
  Basis Set:

  -Total Gradient:
     Atom            X                  Y                   Z
    ------   -----------------  -----------------  -----------------
       1        0.000003700964    -0.000012551591    -0.000033115762
       2       -0.002231542322    -0.000110670842     0.000454432560
       3        0.000056759025     0.000034395112     0.000044977486
       4        0.003139869078     0.000222878338    -0.001509408301
       5       -0.000012344160    -0.000002909159     0.000007460097
       6       -0.000001203787     0.000000367990    -0.000021923590
       7       -0.001038671420    -0.000063060908     0.003680712431
       8        0.000074556911    -0.000030141062    -0.000069140025
       9        0.000005416270     0.000005506963     0.000002057741
      10       -0.000067553277    -0.000008050644    -0.000012510917
      11        0.000196077187     0.000006980801    -0.002579186672
      12       -0.000136634195    -0.000030353161     0.000012442377
      13        0.000002988598    -0.000014764223     0.000031006681
      14        0.000008581128     0.000002372386    -0.000007804107

  **** Optimization is complete! (in 5 steps) ****
    Final optimized geometry and variables:
    Molecular point group: c1

    Geometry (in Angstrom), charge = 0, multiplicity = 1:

    H            0.384805238087     0.070775028767     2.094481631646
    C            0.218237766503    -0.479408015453     1.189777381817
    C            0.206224015032    -1.860884587654     1.182018886502
    C            0.016041267570     0.177979575679     0.000630219988
    H            0.359503776681    -2.397334536088     2.097785285557
    C           -0.002239459144    -2.547302416400     0.000464751867
    N           -0.000900215880     1.643703285901     0.003863631474
    C           -0.209141664126    -0.476284896611    -1.186318590721
    H           -0.007100536589    -3.619881257756    -0.000151906804
    C           -0.207459364206    -1.857619111997    -1.180009993394
    O            1.046753917610     2.195897099810     0.018262195869
    O           -1.061296542076     2.169985032194    -0.027086014823
    H           -0.380336455891     0.076282204685    -2.088637139059
    H           -0.371494514083    -2.391768858200    -2.095260531659

  Mulliken Charges: (a.u.)
   Center  Symbol    Alpha    Beta     Spin     Total
       1     H     0.41445  0.41445  0.00000  0.17110
       2     C     3.08497  3.08497  0.00000 -0.16994
       3     C     3.06414  3.06414  0.00000 -0.12827
       4     C     2.92413  2.92413  0.00000  0.15173
       5     H     0.41735  0.41735  0.00000  0.16530
       6     C     3.07821  3.07821  0.00000 -0.15641
       7     N     3.29230  3.29230  0.00000  0.41540
       8     C     3.08450  3.08450  0.00000 -0.16899
       9     H     0.41801  0.41801  0.00000  0.16398
      10     C     3.06404  3.06404  0.00000 -0.12809
      11     O     4.16321  4.16321  0.00000 -0.32643
      12     O     4.16300  4.16300  0.00000 -0.32601
      13     H     0.41433  0.41433  0.00000  0.17134
      14     H     0.41735  0.41735  0.00000  0.16530

   Total alpha = 32.00000, Total beta = 32.00000, Total charge =  0.00000
