                              Psi4 1.0.54 Driver

  ==> Input File <==

--------------------------------------------------------------------------
set {
	reference rhf
	basis cc-pvtz
}

set_num_threads( 4 )
memory 2 gb

molecule MOL {
0 1

O	 1.847685	 1.294399	 -0.000190
C	 1.704209	 0.119472	 -0.000093
C	 0.380337	 -0.600947	 -0.000234
O	 2.715427	 -0.733672	 0.000025
C	 -0.824290	 0.329213	 -0.000115
H	 0.371455	 -1.255476	 -0.865660
H	 0.371410	 -1.255787	 0.864952
C	 -2.146151	 -0.432825	 -0.000068
H	 -0.773936	 0.979158	 -0.866319
H	 -0.773838	 0.979034	 0.866186
C	 -3.366283	 0.483552	 0.000557
H	 -2.189286	 -1.084450	 -0.869996
H	 -2.188867	 -1.085083	 0.869399
C	 -4.683260	 -0.272347	 -0.139448
H	 -3.274842	 1.201764	 -0.809361
H	 -3.378641	 1.062390	 0.919770
H	 -4.715600	 -0.834498	 -1.066904
H	 -5.527841	 0.406919	 -0.135600
H	 -4.820413	 -0.974692	 0.676110
C	 4.020999	 -0.192556	 0.000019
H	 4.182809	 0.412891	 -0.879449
H	 4.692590	 -1.035653	 0.000152
H	 4.182726	 0.413087	 0.879368

	symmetry c1
}
set optking {
	frozen_dihedral = ("
		15 11 8 12
	")
}

ee,wfn = optimize('scf', return_wfn=True)
oeprop( wfn, 'DIPOLE', 'QUADRUPOLE', 'MULLIKEN_CHARGES')
f=open( 'psi4out.xyz', 'w' )
f.write( "23  " )
f.write( str(ee) + "\n" )
f.write( MOL.save_string_xyz() )
f.close()
--------------------------------------------------------------------------

    Molecular point group: c1
  Charge       = 0
  Multiplicity = 1
  Basis Set: CC-PVTZ
  Basis Set:
  @DF-RHF Final Energy:  -423.13097247012956
    Total Energy =                       -423.1309724701299047
    Molecular point group: c1
  Basis Set: CC-PVTZ
  Basis Set:
  Basis Set: CC-PVTZ
  Basis Set:
  @DF-RHF Final Energy:  -423.13098579086903
    Total Energy =                       -423.1309857908695449
  Basis Set: CC-PVTZ
  Basis Set:
  Basis Set: CC-PVTZ
  Basis Set:
  @DF-RHF Final Energy:  -423.13099381246224
    Total Energy =                       -423.1309938124621794
  Basis Set: CC-PVTZ
  Basis Set:
  Charge       = 0
  Multiplicity = 1
  Basis Set: CC-PVTZ
  Basis Set:

    Orbital Energies (a.u.)
    -----------------------

    Doubly Occupied:

       1A    -20.596299     2A    -20.534116     3A    -11.364557
       4A    -11.278473     5A    -11.233797     6A    -11.217253
       7A    -11.215786     8A    -11.214468     9A    -11.207838
      10A     -1.472193    11A     -1.365770    12A     -1.094515
      13A     -1.044805    14A     -0.988092    15A     -0.932772
      16A     -0.844239    17A     -0.795715    18A     -0.769315
      19A     -0.699135    20A     -0.686901    21A     -0.675382
      22A     -0.652468    23A     -0.609636    24A     -0.601104
      25A     -0.573719    26A     -0.560469    27A     -0.557304
      28A     -0.525282    29A     -0.522146    30A     -0.508442
      31A     -0.484909    32A     -0.470629    33A     -0.466620
      34A     -0.463387    35A     -0.458978    36A     -0.438451

  @DF-RHF Final Energy:  -423.13099389998899

   => Energetics <=

    Nuclear Repulsion Energy =            452.8890177314079892
    One-Electron Energy =               -1473.7900916202302142
    Two-Electron Energy =                 597.7700799888330039
    DFT Exchange-Correlation Energy =       0.0000000000000000
    Empirical Dispersion Energy =           0.0000000000000000
    PCM Polarization Energy =               0.0000000000000000
    EFP Energy =                            0.0000000000000000
    Total Energy =                       -423.1309938999892211
    Molecular point group: c1
  Basis Set: CC-PVTZ
  Basis Set:

  -Total Gradient:
     Atom            X                  Y                   Z
    ------   -----------------  -----------------  -----------------
       1        0.000003372340    -0.000003492289     0.000071936087
       2       -0.000008696209     0.000002621379    -0.000191075752
       3       -0.000002512272    -0.000001430216     0.000074338655
       4        0.000002933366    -0.000001780439     0.000057526850
       5       -0.000000359487     0.000004318813    -0.000042635565
       6        0.000006381187     0.000014941966     0.000003955040
       7       -0.000008546305    -0.000011128934     0.000000049395
       8        0.000799000207     0.001078394958    -0.000555376602
       9        0.000004900382    -0.000001304189     0.000001436239
      10       -0.000010150370    -0.000007941851    -0.000002539885
      11       -0.000782049044    -0.001020303491    -0.000663782926
      12       -0.000539620336    -0.000735264454     0.000580576667
      13       -0.000005892358    -0.000005491261    -0.000000390853
      14       -0.000003762406    -0.000008289157    -0.000013964032
      15        0.000517895416     0.000676072386     0.000674949776
      16        0.000000437475     0.000007011852     0.000002665535
      17       -0.000003675313     0.000005922833     0.000018535947
      18        0.000020716233    -0.000012385905    -0.000002957773
      19        0.000005773707     0.000018119524    -0.000014531208
      20        0.000003392072     0.000002130892    -0.000001145453
      21       -0.000001073283    -0.000001628884     0.000002002488
      22        0.000000095309     0.000001563764     0.000001301309
      23        0.000001439693    -0.000000657296    -0.000000873937

  **** Optimization is complete! (in 4 steps) ****
    Final optimized geometry and variables:
    Molecular point group: c1

    Geometry (in Angstrom), charge = 0, multiplicity = 1:

    O            1.847617662910     1.293719661521     0.012017646644
    C            1.704061422463     0.118799641905     0.015676773860
    C            0.380180974479    -0.601514203528     0.012363454204
    O            2.715281848202    -0.734362397864     0.024722752252
    C           -0.824205153608     0.328857666978     0.002958469407
    H            0.375177478109    -1.259465156671    -0.850495107305
    H            0.367247444112    -1.252780685764     0.880156228617
    C           -2.145895849505    -0.432555327171    -0.002540755278
    H           -0.768778325644     0.976451030998    -0.864596206679
    H           -0.778776264853     0.980989106346     0.867901003391
    C           -3.367403669029     0.482265363136     0.012774286761
    H           -2.193544860084    -1.081032595371    -0.874634763437
    H           -2.187555026654    -1.092793746857     0.861195406095
    C           -4.686002881625    -0.273441343962    -0.106188679319
    H           -3.285561610451     1.205336907158    -0.793869330401
    H           -3.365558426913     1.060721676636     0.932559077127
    H           -4.737687622660    -0.826911930264    -1.037864134140
    H           -5.530929567126     0.404728456931    -0.077477349279
    H           -4.804747381719    -0.983564194821     0.705573692216
    C            4.020782162543    -0.193283093142     0.029390997512
    H            4.187369789636     0.408488905382    -0.851719743552
    H            4.692403280715    -1.036344670524     0.036608071390
    H            4.177949034186     0.416037926347     0.907038117802

  Mulliken Charges: (a.u.)
   Center  Symbol    Alpha    Beta     Spin     Total
       1     O     4.19703  4.19703  0.00000 -0.39405
       2     C     2.80689  2.80689  0.00000  0.38621
       3     C     3.10123  3.10123  0.00000 -0.20245
       4     O     4.14646  4.14646  0.00000 -0.29293
       5     C     3.08318  3.08318  0.00000 -0.16635
       6     H     0.44010  0.44010  0.00000  0.11980
       7     H     0.44009  0.44009  0.00000  0.11982
       8     C     3.08948  3.08948  0.00000 -0.17896
       9     H     0.44631  0.44631  0.00000  0.10739
      10     H     0.44637  0.44637  0.00000  0.10727
      11     C     3.08403  3.08403  0.00000 -0.16806
      12     H     0.45603  0.45603  0.00000  0.08794
      13     H     0.45571  0.45571  0.00000  0.08859
      14     C     3.15029  3.15029  0.00000 -0.30058
      15     H     0.45344  0.45344  0.00000  0.09311
      16     H     0.45326  0.45326  0.00000  0.09348
      17     H     0.45524  0.45524  0.00000  0.08951
      18     H     0.44772  0.44772  0.00000  0.10457
      19     H     0.45531  0.45531  0.00000  0.08938
      20     C     3.03780  3.03780  0.00000 -0.07560
      21     H     0.45436  0.45436  0.00000  0.09129
      22     H     0.44534  0.44534  0.00000  0.10933
      23     H     0.45435  0.45435  0.00000  0.09130

   Total alpha = 36.00000, Total beta = 36.00000, Total charge = -0.00000

*** Psi4 exiting successfully. Buy a developer a beer!
