                              Psi4 1.0.54 Driver

  ==> Input File <==

--------------------------------------------------------------------------
set {
	reference rhf
	basis cc-pvtz
}

set_num_threads( 4 )
memory 2 gb

molecule MOL {
0 1

O	 2.868453	 1.353349	 -0.000734
C	 2.841259	 0.166180	 -0.000295
C	 1.542794	 -0.614730	 -0.000853
C	 4.113372	 -0.651103	 0.000743
C	 0.288398	 0.247429	 0.000314
H	 1.557171	 -1.273139	 -0.866508
H	 1.557484	 -1.274998	 0.863344
C	 -0.993089	 -0.581367	 -0.000217
H	 0.305153	 0.900562	 -0.864701
H	 0.305567	 0.898805	 0.866656
C	 -2.258482	 0.271340	 0.000669
H	 -1.002280	 -1.233920	 -0.870484
H	 -1.002061	 -1.235367	 0.868958
C	 -3.515260	 -0.506574	 -0.378928
H	 -2.130509	 1.103192	 -0.687632
H	 -2.393388	 0.711407	 0.985691
C	 -4.775528	 0.352207	 -0.375902
H	 -3.381775	 -0.945825	 -1.363906
H	 -3.644680	 -1.337519	 0.309330
H	 -4.691262	 1.173056	 -1.080279
H	 -5.648351	 -0.229529	 -0.649371
H	 -4.956254	 0.778247	 0.605359
H	 4.145311	 -1.294584	 -0.871587
H	 4.970080	 0.004978	 -0.000091
H	 4.145223	 -1.291980	 0.874988

	symmetry c1
}
set optking {
	frozen_dihedral = ("
		15 11 8 12
	")
}

ee,wfn = optimize('scf', return_wfn=True)
oeprop( wfn, 'DIPOLE', 'QUADRUPOLE', 'MULLIKEN_CHARGES')
f=open( 'psi4out.xyz', 'w' )
f.write( "25  " )
f.write( str(ee) + "\n" )
f.write( MOL.save_string_xyz() )
f.close()
--------------------------------------------------------------------------

    Molecular point group: c1
  Charge       = 0
  Multiplicity = 1
  Basis Set: CC-PVTZ
  Basis Set:
  @DF-RHF Final Energy:  -387.27379539151997
    Total Energy =                       -387.2737953915197977
    Molecular point group: c1
  Basis Set: CC-PVTZ
  Basis Set:
  Basis Set: CC-PVTZ
  Basis Set:
  @DF-RHF Final Energy:  -387.27385168514377
    Total Energy =                       -387.2738516851430859
  Basis Set: CC-PVTZ
  Basis Set:
  Basis Set: CC-PVTZ
  Basis Set:
  @DF-RHF Final Energy:  -387.27392935209929
    Total Energy =                       -387.2739293520995716
  Basis Set: CC-PVTZ
  Basis Set:
  Basis Set: CC-PVTZ
  Basis Set:
  @DF-RHF Final Energy:  -387.27392405674044
    Total Energy =                       -387.2739240567404977
  Basis Set: CC-PVTZ
  Basis Set:
  Basis Set: CC-PVTZ
  Basis Set:
  @DF-RHF Final Energy:  -387.27393220287178
    Total Energy =                       -387.2739322028718334
  Basis Set: CC-PVTZ
  Basis Set:
  Charge       = 0
  Multiplicity = 1
  Basis Set: CC-PVTZ
  Basis Set:

    Orbital Energies (a.u.)
    -----------------------

    Doubly Occupied:

       1A    -20.538933     2A    -11.320568     3A    -11.230216
       4A    -11.226620     5A    -11.215361     6A    -11.214677
       7A    -11.213795     8A    -11.211424     9A    -11.206497
      10A     -1.398978    11A     -1.095028    12A     -1.057736
      13A     -1.015634    14A     -0.970126    15A     -0.891704
      16A     -0.815290    17A     -0.791784    18A     -0.731130
      19A     -0.661509    20A     -0.654435    21A     -0.633284
      22A     -0.626560    23A     -0.597247    24A     -0.585384
      25A     -0.567929    26A     -0.559905    27A     -0.541276
      28A     -0.527917    29A     -0.512701    30A     -0.492232
      31A     -0.490019    32A     -0.474240    33A     -0.464602
      34A     -0.460593    35A     -0.453291    36A     -0.401502

  @DF-RHF Final Energy:  -387.27393270020843

   => Energetics <=

    Nuclear Repulsion Energy =            439.1112085852510063
    One-Electron Energy =               -1395.0700298785968698
    Two-Electron Energy =                 568.6848885931376572
    DFT Exchange-Correlation Energy =       0.0000000000000000
    Empirical Dispersion Energy =           0.0000000000000000
    PCM Polarization Energy =               0.0000000000000000
    EFP Energy =                            0.0000000000000000
    Total Energy =                       -387.2739327002082064
    Molecular point group: c1
  Basis Set: CC-PVTZ
  Basis Set:

  -Total Gradient:
     Atom            X                  Y                   Z
    ------   -----------------  -----------------  -----------------
       1        0.000001415454     0.000009274027    -0.000011285364
       2       -0.000005312516     0.000002718319     0.000029131366
       3       -0.000002751550    -0.000000891867    -0.000019918660
       4       -0.000002198091    -0.000001412457    -0.000014467894
       5        0.000003894163     0.000008789341     0.000014424879
       6        0.000002011116    -0.000003430030    -0.000000777467
       7       -0.000005398694    -0.000003131658     0.000003841214
       8        0.001799853552     0.002698233944    -0.001311270588
       9        0.000000448503    -0.000002743013     0.000000086647
      10        0.000002526778     0.000008283197     0.000003880106
      11       -0.001562557584    -0.002292238384    -0.002134435464
      12       -0.001262185635    -0.001903548372     0.001434816131
      13       -0.000004053954     0.000000221688    -0.000000976125
      14       -0.000008517593    -0.000017589724     0.000018703964
      15        0.001032984946     0.001505635009     0.001993152817
      16        0.000005009501    -0.000000333487     0.000000958067
      17        0.000008731146     0.000003026122    -0.000009290857
      18        0.000002537130     0.000002657570    -0.000001993643
      19       -0.000004706393    -0.000015301947     0.000003249649
      20       -0.000005347242     0.000008345820    -0.000007819914
      21        0.000001870837    -0.000002450432    -0.000000270042
      22        0.000001701260     0.000000209817     0.000005873124
      23        0.000000981032    -0.000000326822     0.000000699762
      24       -0.000003239196     0.000001422555    -0.000001914051
      25        0.000002303029    -0.000005419213     0.000005602344

  **** Optimization is complete! (in 6 steps) ****
    Final optimized geometry and variables:
    Molecular point group: c1

    Geometry (in Angstrom), charge = 0, multiplicity = 1:

    O            2.867974910831     1.341707025759     0.087160178620
    C            2.838351898145     0.154782237431     0.105020826682
    C            1.538589763787    -0.623928142699     0.088118884925
    C            4.108398406400    -0.664783573295     0.146026868884
    C            0.286481861417     0.240407662638     0.047810980302
    H            1.570480073866    -1.295660661955    -0.766793318579
    H            1.532899821768    -1.270652559262     0.962549367410
    C           -0.995946498872    -0.584654656117     0.023620684647
    H            0.326241414232     0.883772970614    -0.823553605157
    H            0.282531500079     0.901680605208     0.907132358156
    C           -2.264658127124     0.266581660418     0.037170500726
    H           -1.005839390616    -1.237428962753    -0.846530955493
    H           -1.012873036182    -1.251410749728     0.883381934742
    C           -3.530137821569    -0.514497949764    -0.300557431146
    H           -2.149622085312     1.102260862030    -0.648781685891
    H           -2.374854334835     0.715904369836     1.021531757729
    C           -4.795573103224     0.333531706529    -0.230130982843
    H           -3.434906188016    -0.936852436132    -1.297124524188
    H           -3.623403371856    -1.357651459563     0.379068512878
    H           -4.745097271187     1.168964946511    -0.920508308644
    H           -5.674094926450    -0.249845360508    -0.480946013266
    H           -4.940604373391     0.738304163863     0.765922557084
    H            4.157266357464    -1.322067130829    -0.715136088129
    H            4.966507161157    -0.010515253944     0.152942195408
    H            4.120218953366    -1.291681583178     1.030860809932

  Mulliken Charges: (a.u.)
   Center  Symbol    Alpha    Beta     Spin     Total
       1     O     4.17073  4.17073  0.00000 -0.34146
       2     C     2.86216  2.86216  0.00000  0.27569
       3     C     3.11428  3.11428  0.00000 -0.22856
       4     C     3.15129  3.15129  0.00000 -0.30257
       5     C     3.08268  3.08268  0.00000 -0.16535
       6     H     0.44539  0.44539  0.00000  0.10922
       7     H     0.44543  0.44543  0.00000  0.10915
       8     C     3.09099  3.09099  0.00000 -0.18198
       9     H     0.44603  0.44603  0.00000  0.10793
      10     H     0.44581  0.44581  0.00000  0.10837
      11     C     3.08688  3.08688  0.00000 -0.17376
      12     H     0.45623  0.45623  0.00000  0.08753
      13     H     0.45584  0.45584  0.00000  0.08832
      14     C     3.08403  3.08403  0.00000 -0.16807
      15     H     0.45352  0.45352  0.00000  0.09296
      16     H     0.45410  0.45410  0.00000  0.09180
      17     C     3.15032  3.15032  0.00000 -0.30064
      18     H     0.45490  0.45490  0.00000  0.09021
      19     H     0.45517  0.45517  0.00000  0.08965
      20     H     0.45451  0.45451  0.00000  0.09097
      21     H     0.44870  0.44870  0.00000  0.10260
      22     H     0.45488  0.45488  0.00000  0.09025
      23     H     0.45040  0.45040  0.00000  0.09920
      24     H     0.43534  0.43534  0.00000  0.12931
      25     H     0.45039  0.45039  0.00000  0.09921

   Total alpha = 36.00000, Total beta = 36.00000, Total charge = -0.00000

*** Psi4 exiting successfully. Buy a developer a beer!
