  ==> Input File <==

--------------------------------------------------------------------------
set {
	reference rhf
	basis 6-31G*
}

set_num_threads( 1 )
memory 2 gb

molecule MOL {
0 1

H	 1.845734	 6.259853	 -0.944553
C	 0.835253	 5.997542	 -1.242282
C	 0.563167	 4.510009	 -1.022300
H	 0.150308	 6.608572	 -0.661907
H	 0.717283	 6.269345	 -2.287751
C	 -0.852429	 4.104535	 -1.438826
H	 0.715182	 4.268957	 0.024785
H	 1.286194	 3.924759	 -1.588344
C	 -1.148263	 2.616932	 -1.247022
H	 -1.576777	 4.683096	 -0.876482
H	 -0.997688	 4.349289	 -2.488605
C	 -1.280884	 2.186553	 0.206397
H	 -2.089748	 2.364000	 -1.732204
H	 -0.392834	 2.004456	 -1.734234
C	 -1.181045	 0.701995	 0.511084
O	 -1.474849	 2.979195	 1.078465
C	 -2.285934	 -0.139295	 -0.145128
H	 -1.220103	 0.596449	 1.588604
H	 -0.209157	 0.344673	 0.175764
C	 -3.651768	 0.085446	 0.506485
H	 -2.346596	 0.110469	 -1.202272
H	 -2.034737	 -1.195320	 -0.088721
C	 -4.759797	 -0.746382	 -0.137905
H	 -3.908762	 1.140117	 0.445781
H	 -3.588286	 -0.154158	 1.565709
H	 -4.868882	 -0.505166	 -1.191300
H	 -4.548009	 -1.809175	 -0.062213
H	 -5.715422	 -0.564821	 0.343442

	symmetry c1
}
set optking {
	frozen_dihedral = ("
		10 6 3 2,
		16 12 15 17
	")
}

ee = energy('scf')
oeprop('DIPOLE', 'QUADRUPOLE', 'MULLIKEN_CHARGES')
f=open( 'psi4out.xyz', 'w' )
f.write( "28  " )
f.write( str(ee) + "\n" )
f.write( MOL.save_string_xyz() )
f.close()
--------------------------------------------------------------------------

    Molecular point group: c1

    Geometry (in Angstrom), charge = 0, multiplicity = 1:

       Center              X                  Y                   Z               Mass
    ------------   -----------------  -----------------  -----------------  -----------------
           H          3.377635600915     4.019331925478    -0.651436410653     1.007825032070
           C          2.367154600915     3.757020925478    -0.949165410653    12.000000000000
           C          2.095068600915     2.269487925478    -0.729183410653    12.000000000000
           H          1.682209600915     4.368050925478    -0.368790410653     1.007825032070
           H          2.249184600915     4.028823925478    -1.994634410653     1.007825032070
           C          0.679472600915     1.864013925478    -1.145709410653    12.000000000000
           H          2.247083600915     2.028435925478     0.317901589347     1.007825032070
           H          2.818095600915     1.684237925478    -1.295227410653     1.007825032070
           C          0.383638600915     0.376410925478    -0.953905410653    12.000000000000
           H         -0.044875399085     2.442574925478    -0.583365410653     1.007825032070
           H          0.534213600915     2.108767925478    -2.195488410653     1.007825032070
           C          0.251017600915    -0.053968074522     0.499513589347    12.000000000000
           H         -0.557846399085     0.123478925478    -1.439087410653     1.007825032070
           H          1.139067600915    -0.236065074522    -1.441117410653     1.007825032070
           C          0.350856600915    -1.538526074522     0.804200589347    12.000000000000
           O          0.057052600915     0.738673925478     1.371581589347    15.994914619560
           C         -0.754032399085    -2.379816074522     0.147988589347    12.000000000000
           H          0.311798600915    -1.644072074522     1.881720589347     1.007825032070
           H          1.322744600915    -1.895848074522     0.468880589347     1.007825032070
           C         -2.119866399085    -2.155075074522     0.799601589347    12.000000000000
           H         -0.814694399085    -2.130052074522    -0.909155410653     1.007825032070
           H         -0.502835399085    -3.435841074522     0.204395589347     1.007825032070
           C         -3.227895399085    -2.986903074522     0.155211589347    12.000000000000
           H         -2.376860399085    -1.100404074522     0.738897589347     1.007825032070
           H         -2.056384399085    -2.394679074522     1.858825589347     1.007825032070
           H         -3.336980399085    -2.745687074522    -0.898183410653     1.007825032070
           H         -3.016107399085    -4.049696074522     0.230903589347     1.007825032070
           H         -4.183520399085    -2.805342074522     0.636558589347     1.007825032070

  Charge       = 0
  Multiplicity = 1
  Basis Set: 6-31G*
  Basis Set:

    Orbital Energies (a.u.)
    -----------------------

    Doubly Occupied:

       1A    -20.548751     2A    -11.322520     3A    -11.231463
       4A    -11.230570     5A    -11.228523     6A    -11.222210
       7A    -11.216978     8A    -11.214362     9A    -11.212689
      10A    -11.206008    11A     -1.393905    12A     -1.095363
      13A     -1.077248    14A     -1.020800    15A     -0.990702
      16A     -0.906148    17A     -0.873948    18A     -0.811165
      19A     -0.798660    20A     -0.721924    21A     -0.667614
      22A     -0.650525    23A     -0.629728    24A     -0.612233
      25A     -0.608845    26A     -0.588878    27A     -0.584264
      28A     -0.573251    29A     -0.542980    30A     -0.535388
      31A     -0.518771    32A     -0.511052    33A     -0.501629
      34A     -0.484175    35A     -0.476926    36A     -0.472830
      37A     -0.467183    38A     -0.461518    39A     -0.455310
      40A     -0.393796

  @DF-RHF Final Energy:  -426.16796402007606

   => Energetics <=

    Nuclear Repulsion Energy =            540.5295034836747163
    One-Electron Energy =               -1649.2732703242702428
    Two-Electron Energy =                 682.5758028205194705
    DFT Exchange-Correlation Energy =       0.0000000000000000
    Empirical Dispersion Energy =           0.0000000000000000
    PCM Polarization Energy =               0.0000000000000000
    EFP Energy =                            0.0000000000000000
    Total Energy =                       -426.1679640200760559

  Mulliken Charges: (a.u.)
   Center  Symbol    Alpha    Beta     Spin     Total
       1     H     0.41926  0.41926  0.00000  0.16149
       2     C     3.24014  3.24014  0.00000 -0.48028
       3     C     3.15652  3.15652  0.00000 -0.31305
       4     H     0.41829  0.41829  0.00000  0.16342
       5     H     0.42357  0.42357  0.00000  0.15285
       6     C     3.14871  3.14871  0.00000 -0.29741
       7     H     0.41043  0.41043  0.00000  0.17913
       8     H     0.42758  0.42758  0.00000  0.14485
       9     C     3.21235  3.21235  0.00000 -0.42470
      10     H     0.40670  0.40670  0.00000  0.18661
      11     H     0.42188  0.42188  0.00000  0.15625
      12     C     2.73185  2.73185  0.00000  0.53630
      13     H     0.40359  0.40359  0.00000  0.19282
      14     H     0.41258  0.41258  0.00000  0.17483
      15     C     3.20309  3.20309  0.00000 -0.40618
      16     O     4.26685  4.26685  0.00000 -0.53371
      17     C     3.16511  3.16511  0.00000 -0.33022
      18     H     0.39994  0.39994  0.00000  0.20012
      19     H     0.41040  0.41040  0.00000  0.17919
      20     C     3.15389  3.15389  0.00000 -0.30779
      21     H     0.41910  0.41910  0.00000  0.16181
      22     H     0.41431  0.41431  0.00000  0.17138
      23     C     3.24009  3.24009  0.00000 -0.48018
      24     H     0.41654  0.41654  0.00000  0.16692
      25     H     0.41762  0.41762  0.00000  0.16475
      26     H     0.42216  0.42216  0.00000  0.15568
      27     H     0.42118  0.42118  0.00000  0.15765
      28     H     0.41626  0.41626  0.00000  0.16747

   Total alpha = 40.00000, Total beta = 40.00000, Total charge = -0.00000
