  ==> Input File <==

--------------------------------------------------------------------------
set {
	reference rhf
	basis cc-pvtz
}

set_num_threads( 4 )
memory 2 gb

molecule MOL {
0 1

H	 1.998484	 -1.081498	 -0.806434
C	 1.144643	 -1.691194	 -1.130284
C	 -0.161890	 -0.954652	 -1.236466
O	 1.293274	 -2.840763	 -1.362739
C	 -0.554654	 -0.292621	 0.086567
H	 -0.921211	 -1.649545	 -1.570221
H	 -0.043210	 -0.189998	 -2.001383
C	 -1.846385	 0.513195	 -0.016346
H	 -0.666508	 -1.057968	 0.849241
H	 0.249264	 0.358962	 0.419475
C	 -3.089953	 -0.365049	 -0.098564
H	 -1.798267	 1.154820	 -0.891143
H	 -1.925398	 1.173265	 0.842889
H	 -3.055079	 -1.012299	 -0.968245
H	 -3.988403	 0.236438	 -0.170014
H	 -3.183055	 -0.995885	 0.779079

	symmetry c1
}
set optking {
	frozen_dihedral = ("
		9 5 8 12
	")
}

ee = optimize('scf')
oeprop('DIPOLE', 'QUADRUPOLE', 'MULLIKEN_CHARGES')
f=open( 'psi4out.xyz', 'w' )
f.write( "16  " )
f.write( str(ee) + "\n" )
f.write( MOL.save_string_xyz() )
f.close()
--------------------------------------------------------------------------

    Molecular point group: c1
  Charge       = 0
  Multiplicity = 1
  Basis Set: CC-PVTZ
  Basis Set:
  @DF-RHF Final Energy:  -270.11718201816382
    Total Energy =                       -270.1171820181636463
    Molecular point group: c1
  Basis Set: CC-PVTZ
  Basis Set:
  Basis Set: CC-PVTZ
  Basis Set:
  @DF-RHF Final Energy:  -270.11735091328524
    Total Energy =                       -270.1173509132852359
  Basis Set: CC-PVTZ
  Basis Set:
  Basis Set: CC-PVTZ
  Basis Set:
  @DF-RHF Final Energy:  -270.11738306222981
    Total Energy =                       -270.1173830622299761
  Basis Set: CC-PVTZ
  Basis Set:
  Basis Set: CC-PVTZ
  Basis Set:
  @DF-RHF Final Energy:  -270.11738167083496
    Total Energy =                       -270.1173816708350159
  Basis Set: CC-PVTZ
  Basis Set:
  Basis Set: CC-PVTZ
  Basis Set:
  @DF-RHF Final Energy:  -270.11739348428659
    Total Energy =                       -270.1173934842865378
  Basis Set: CC-PVTZ
  Basis Set:
  Charge       = 0
  Multiplicity = 1
  Basis Set: CC-PVTZ
  Basis Set:

    Orbital Energies (a.u.)
    -----------------------

    Doubly Occupied:

       1A    -20.552185     2A    -11.321274     3A    -11.234875
       4A    -11.233664     5A    -11.227731     6A    -11.215787
       7A     -1.406908     8A     -1.097372     9A     -1.016922
      10A     -0.911932    11A     -0.810579    12A     -0.791912
      13A     -0.680996    14A     -0.648633    15A     -0.627111
      16A     -0.611762    17A     -0.581742    18A     -0.550773
      19A     -0.540584    20A     -0.507644    21A     -0.487780
      22A     -0.481574    23A     -0.474904    24A     -0.412029

  @DF-RHF Final Energy:  -270.11739441466995

   => Energetics <=

    Nuclear Repulsion Energy =            232.1127444405606752
    One-Electron Energy =                -825.6069305807327510
    Two-Electron Energy =                 323.3767917255021302
    DFT Exchange-Correlation Energy =       0.0000000000000000
    Empirical Dispersion Energy =           0.0000000000000000
    PCM Polarization Energy =               0.0000000000000000
    EFP Energy =                            0.0000000000000000
    Total Energy =                       -270.1173944146700023
    Molecular point group: c1
  Basis Set: CC-PVTZ
  Basis Set:

  -Total Gradient:
     Atom            X                  Y                   Z
    ------   -----------------  -----------------  -----------------
       1       -0.000001087976    -0.000002945273    -0.000003448685
       2       -0.000023601309    -0.000019688710     0.000039460328
       3        0.000014696564     0.000007774483     0.000008755765
       4        0.000017920058    -0.000009974408    -0.000027969345
       5        0.000581716831     0.001029191906     0.001196946090
       6       -0.000010043095     0.000010630919    -0.000011551191
       7        0.000006219191    -0.000002304251     0.000008077513
       8        0.000693231454     0.001233169086     0.000899081019
       9       -0.000569275866    -0.001061933522    -0.001168197753
      10       -0.000000413321     0.000017220114    -0.000007137553
      11       -0.000000455058     0.000013103125    -0.000004010643
      12       -0.000698688576    -0.001226225543    -0.000931153551
      13       -0.000007787730     0.000011975064     0.000009468781
      14       -0.000000109664    -0.000008717585    -0.000000490106
      15       -0.000006767767    -0.000001207698    -0.000005351585
      16        0.000004446267     0.000009932290    -0.000002479087

  **** Optimization is complete! (in 6 steps) ****
    Final optimized geometry and variables:
    Molecular point group: c1

    Geometry (in Angstrom), charge = 0, multiplicity = 1:

    H            2.546032859217    -0.106310750887    -0.175752749801
    C            1.703080063917    -0.731864333892    -0.497872773846
    C            0.386007122964    -0.016050276065    -0.618627454447
    O            1.870094937725    -1.881384381076    -0.717844497857
    C           -0.017816301209     0.650474414846     0.701497129890
    H           -0.354502094378    -0.726960636452    -0.956821322606
    H            0.500152058197     0.747333870569    -1.385530236377
    C           -1.314315793030     1.458671415337     0.609658650462
    H           -0.126128811309    -0.118973162268     1.460583081511
    H            0.786735456926     1.303121084496     1.026468167101
    C           -2.576704007247     0.603070877036     0.532787918686
    H           -1.271490023246     2.105671541276    -0.261978410298
    H           -1.382703947378     2.107468279969     1.476179545149
    H           -2.583887498536    -0.030097582510    -0.346496204290
    H           -3.461434131648     1.227478430113     0.491481760993
    H           -2.665099050457    -0.038404214750     1.403034693289

  Mulliken Charges: (a.u.)
   Center  Symbol    Alpha    Beta     Spin     Total
       1     H     0.46403  0.46403  0.00000  0.07194
       2     C     2.90993  2.90993  0.00000  0.18015
       3     C     3.07909  3.07909  0.00000 -0.15817
       4     O     4.16362  4.16362  0.00000 -0.32724
       5     C     3.10839  3.10839  0.00000 -0.21677
       6     H     0.44276  0.44276  0.00000  0.11448
       7     H     0.44998  0.44998  0.00000  0.10004
       8     C     3.09022  3.09022  0.00000 -0.18044
       9     H     0.44612  0.44612  0.00000  0.10775
      10     H     0.44553  0.44553  0.00000  0.10894
      11     C     3.14894  3.14894  0.00000 -0.29789
      12     H     0.45438  0.45438  0.00000  0.09124
      13     H     0.44540  0.44540  0.00000  0.10920
      14     H     0.45259  0.45259  0.00000  0.09482
      15     H     0.44584  0.44584  0.00000  0.10832
      16     H     0.45318  0.45318  0.00000  0.09363

   Total alpha = 24.00000, Total beta = 24.00000, Total charge = -0.00000
