  ==> Input File <==

--------------------------------------------------------------------------
set {
	reference rhf
	basis 6-31G*
}

set_num_threads( 4 )
memory 2 gb

molecule MOL {
0 1

H	 3.481769	 -1.573176	 -2.329685
C	 3.081811	 -1.444006	 -1.329136
C	 1.812262	 -0.593837	 -1.349664
H	 2.885905	 -2.432195	 -0.922528
H	 3.856018	 -0.984316	 -0.721241
C	 1.217350	 -0.386724	 0.039429
H	 1.061149	 -1.056991	 -1.981889
H	 2.035317	 0.375427	 -1.792569
N	 0.000003	 0.397874	 -0.023260
H	 0.970432	 -1.352891	 0.471305
H	 1.969351	 0.062620	 0.696668
C	 -1.217365	 -0.386708	 0.039277
H	 -0.000031	 1.072115	 0.718656
C	 -2.452633	 0.504241	 -0.042481
H	 -1.215291	 -1.074557	 -0.802042
H	 -1.269739	 -1.003477	 0.942735
C	 -3.758029	 -0.289423	 -0.010781
H	 -2.394220	 1.093569	 -0.952170
H	 -2.440793	 1.210787	 0.785871
H	 -3.816659	 -0.981993	 -0.845726
H	 -4.617837	 0.370165	 -0.069296
H	 -3.847478	 -0.867502	 0.904682

	symmetry c1
}
set optking {
	frozen_dihedral = ("
		10 6 9 12
	")
}

ee = optimize('scf')
oeprop('DIPOLE', 'QUADRUPOLE', 'MULLIKEN_CHARGES')
f=open( 'psi4out.xyz', 'w' )
f.write( "22  " )
f.write( str(ee) + "\n" )
f.write( MOL.save_string_xyz() )
f.close()
--------------------------------------------------------------------------

    Molecular point group: c1
  Charge       = 0
  Multiplicity = 1
  Basis Set: 6-31G*
  Basis Set:
  @DF-RHF Final Energy:  -290.37890687759023
    Total Energy =                       -290.3789068775903388
    Molecular point group: c1
  Basis Set: 6-31G*
  Basis Set:
  Basis Set: 6-31G*
  Basis Set:
  @DF-RHF Final Energy:  -290.37976596893895
    Total Energy =                       -290.3797659689390684
  Basis Set: 6-31G*
  Basis Set:
  Basis Set: 6-31G*
  Basis Set:
  @DF-RHF Final Energy:  -290.37996749998558
    Total Energy =                       -290.3799674999859803
  Basis Set: 6-31G*
  Basis Set:
  Basis Set: 6-31G*
  Basis Set:
  @DF-RHF Final Energy:  -290.37997173277108
    Total Energy =                       -290.3799717327713665
  Basis Set: 6-31G*
  Basis Set:
  Basis Set: 6-31G*
  Basis Set:
  @DF-RHF Final Energy:  -290.37997555343918
    Total Energy =                       -290.3799755534390670
  Basis Set: 6-31G*
  Basis Set:
  Charge       = 0
  Multiplicity = 1
  Basis Set: 6-31G*
  Basis Set:

    Orbital Energies (a.u.)
    -----------------------

    Doubly Occupied:

       1A    -15.532972     2A    -11.238742     3A    -11.238596
       4A    -11.213485     5A    -11.209871     6A    -11.206663
       7A    -11.206052     8A     -1.202656     9A     -1.056239
      10A     -1.024910    11A     -0.927690    12A     -0.871500
      13A     -0.804917    14A     -0.791541    15A     -0.666461
      16A     -0.636559    17A     -0.613457    18A     -0.598957
      19A     -0.580469    20A     -0.555826    21A     -0.544616
      22A     -0.522553    23A     -0.500140    24A     -0.489762
      25A     -0.481318    26A     -0.471680    27A     -0.463318
      28A     -0.452866    29A     -0.356445

  @DF-RHF Final Energy:  -290.37997572803499

   => Energetics <=

    Nuclear Repulsion Energy =            315.4407719744256156
    One-Electron Energy =               -1016.7209767937279139
    Two-Electron Energy =                 410.9002290912674198
    DFT Exchange-Correlation Energy =       0.0000000000000000
    Empirical Dispersion Energy =           0.0000000000000000
    PCM Polarization Energy =               0.0000000000000000
    EFP Energy =                            0.0000000000000000
    Total Energy =                       -290.3799757280348786
    Molecular point group: c1
  Basis Set: 6-31G*
  Basis Set:

  -Total Gradient:
     Atom            X                  Y                   Z
    ------   -----------------  -----------------  -----------------
       1        0.000005274197     0.000002899313     0.000001840854
       2        0.000005309753     0.000011719339    -0.000003565610
       3       -0.000010352586    -0.000021285676     0.000004595554
       4       -0.000004301783    -0.000003300603    -0.000004848418
       5       -0.000006240748    -0.000003546772     0.000001446786
       6        0.000639645121     0.001260403869     0.003872582859
       7       -0.000000252010    -0.000002702854     0.000000912260
       8        0.000004100862     0.000001316443    -0.000003067225
       9       -0.000172343464    -0.000482622166    -0.003492434822
      10       -0.000510507596    -0.000926959207    -0.002394512843
      11        0.000008381175     0.000001962571     0.000009921097
      12        0.000053916229     0.000161478962     0.001999749518
      13        0.000000432583     0.000013063997     0.000001396256
      14       -0.000000354916    -0.000001675778     0.000000268715
      15       -0.000006867061    -0.000003670279     0.000001416635
      16       -0.000004189427    -0.000003407645     0.000002078685
      17       -0.000004285883     0.000000237892     0.000001184744
      18        0.000002078218    -0.000002270783     0.000001862283
      19        0.000001237893    -0.000001929187    -0.000000690008
      20        0.000000769234     0.000000353351     0.000000150952
      21       -0.000001624364    -0.000000338901    -0.000000003996
      22        0.000000174573     0.000000274114    -0.000000284275

  **** Optimization is complete! (in 6 steps) ****
    Final optimized geometry and variables:
    Molecular point group: c1

    Geometry (in Angstrom), charge = 0, multiplicity = 1:

    H            3.705958745577    -1.206425750936    -1.964038232312
    C            3.289810941401    -1.108270367806    -0.966420810738
    C            2.019978546020    -0.258233481567    -0.978266448612
    H            3.092715684660    -2.109470434779    -0.592350948555
    H            4.054871662659    -0.665980873804    -0.333574018321
    C            1.408206109518    -0.088009610945     0.411739204946
    H            1.282219894426    -0.709631076067    -1.636975841903
    H            2.231141344798     0.726025450582    -1.385190782558
    N            0.183437434792     0.701942282219     0.367568657800
    H            1.224139163698    -1.076555517070     0.835760566628
    H            2.128449893170     0.403781270814     1.059196219443
    C           -1.043459680021    -0.069174997100     0.438466083176
    H            0.186232172256     1.376225750164     1.106334244372
    C           -2.267575824029     0.832075040979     0.317409036347
    H           -1.043815483907    -0.782117570471    -0.381378565598
    H           -1.109910525018    -0.657550527253     1.359162723820
    C           -3.582460895539     0.055394472698     0.371124696982
    H           -2.197323448602     1.387646830435    -0.612430868264
    H           -2.250955672751     1.568182485234     1.119618554146
    H           -3.644927434778    -0.667214227898    -0.437678186342
    H           -4.434022482021     0.722353557221     0.282967278774
    H           -3.683859494489    -0.486951335041     1.307006300637

  Mulliken Charges: (a.u.)
   Center  Symbol    Alpha    Beta     Spin     Total
       1     H     0.41809  0.41809  0.00000  0.16382
       2     C     3.24589  3.24589  0.00000 -0.49177
       3     C     3.14209  3.14209  0.00000 -0.28418
       4     H     0.42276  0.42276  0.00000  0.15447
       5     H     0.42307  0.42307  0.00000  0.15385
       6     C     3.05818  3.05818  0.00000 -0.11636
       7     H     0.42279  0.42279  0.00000  0.15442
       8     H     0.41810  0.41810  0.00000  0.16379
       9     N     3.85726  3.85726  0.00000 -0.71451
      10     H     0.42974  0.42974  0.00000  0.14052
      11     H     0.42386  0.42386  0.00000  0.15228
      12     C     3.05085  3.05085  0.00000 -0.10169
      13     H     0.33221  0.33221  0.00000  0.33558
      14     C     3.15489  3.15489  0.00000 -0.30978
      15     H     0.42164  0.42164  0.00000  0.15672
      16     H     0.43531  0.43531  0.00000  0.12938
      17     C     3.24335  3.24335  0.00000 -0.48671
      18     H     0.41293  0.41293  0.00000  0.17415
      19     H     0.42678  0.42678  0.00000  0.14644
      20     H     0.42079  0.42079  0.00000  0.15842
      21     H     0.41766  0.41766  0.00000  0.16469
      22     H     0.42176  0.42176  0.00000  0.15648

   Total alpha = 29.00000, Total beta = 29.00000, Total charge = -0.00000
