  ==> Input File <==

--------------------------------------------------------------------------
set {
	reference rhf
	basis 6-31G*
}

set_num_threads( 1 )
memory 2 gb

molecule MOL {
0 1

H	 -2.679954	 0.074297	 -0.579806
O	 -2.035884	 -0.060112	 0.102722
C	 -0.955155	 0.788182	 -0.092531
C	 0.353668	 0.040312	 -0.004810
H	 -0.985057	 1.290372	 -1.054184
H	 -0.974469	 1.533190	 0.688632
F	 0.394464	 -0.937475	 -0.903053
F	 1.368604	 0.853376	 -0.249821
F	 0.546173	 -0.502608	 1.179981

	symmetry c1
}
set optking {
	frozen_dihedral = ("
		7 4 3 5
	")
}

ee = energy('scf')
oeprop('DIPOLE', 'QUADRUPOLE', 'MULLIKEN_CHARGES')
f=open( 'psi4out.xyz', 'w' )
f.write( "9  " )
f.write( str(ee) + "\n" )
f.write( MOL.save_string_xyz() )
f.close()
--------------------------------------------------------------------------

    Molecular point group: c1

    Geometry (in Angstrom), charge = 0, multiplicity = 1:

       Center              X                  Y                   Z               Mass
    ------------   -----------------  -----------------  -----------------  -----------------
           H         -2.674099524416     0.066753222191    -0.580177668246     1.007825032070
           O         -2.030029524416    -0.067655777809     0.102350331754    15.994914619560
           C         -0.949300524416     0.780638222191    -0.092902668246    12.000000000000
           C          0.359522475584     0.032768222191    -0.005181668246    12.000000000000
           H         -0.979202524416     1.282828222191    -1.054555668246     1.007825032070
           H         -0.968614524416     1.525646222191     0.688260331754     1.007825032070
           F          0.400318475584    -0.945018777809    -0.903424668246    18.998403224000
           F          1.374458475584     0.845832222191    -0.250192668246    18.998403224000
           F          0.552027475584    -0.510151777809     1.179609331754    18.998403224000

  Charge       = 0
  Multiplicity = 1
  Basis Set: 6-31G*
  Basis Set:

    Orbital Energies (a.u.)
    -----------------------

    Doubly Occupied:

       1A    -26.340425     2A    -26.334562     3A    -26.330517
       4A    -20.588622     5A    -11.497080     6A    -11.309455
       7A     -1.733466     8A     -1.634053     9A     -1.627328
      10A     -1.401359    11A     -1.047061    12A     -0.917513
      13A     -0.825302    14A     -0.822386    15A     -0.787170
      16A     -0.736017    17A     -0.705808    18A     -0.697539
      19A     -0.661680    20A     -0.652081    21A     -0.635140
      22A     -0.632776    23A     -0.597468    24A     -0.531687
      25A     -0.476923

  @DF-RHF Final Energy:  -450.65857379452325

   => Energetics <=

    Nuclear Repulsion Energy =            276.2238563315421516
    One-Electron Energy =               -1174.7181358136663221
    Two-Electron Energy =                 447.8357056876011484
    DFT Exchange-Correlation Energy =       0.0000000000000000
    Empirical Dispersion Energy =           0.0000000000000000
    PCM Polarization Energy =               0.0000000000000000
    EFP Energy =                            0.0000000000000000
    Total Energy =                       -450.6585737945230221

  Mulliken Charges: (a.u.)
   Center  Symbol    Alpha    Beta     Spin     Total
       1     H     0.27089  0.27089  0.00000  0.45821
       2     O     4.36234  4.36234  0.00000 -0.72469
       3     C     3.05609  3.05609  0.00000 -0.11218
       4     C     2.45438  2.45438  0.00000  1.09124
       5     H     0.41026  0.41026  0.00000  0.17949
       6     H     0.40519  0.40519  0.00000  0.18962
       7     F     4.68274  4.68274  0.00000 -0.36547
       8     F     4.68242  4.68242  0.00000 -0.36484
       9     F     4.67569  4.67569  0.00000 -0.35138

   Total alpha = 25.00000, Total beta = 25.00000, Total charge =  0.00000
