  ==> Input File <==

--------------------------------------------------------------------------
set {
	reference rhf
	basis 6-31G*
}

set_num_threads( 1 )
memory 2 gb

molecule MOL {
0 1

H	 0.096467	 1.946948	 -1.477955
C	 0.450463	 1.950655	 -0.439940
C	 0.692068	 0.589600	 0.160137
O	 0.617107	 2.979958	 0.130055
C	 -0.558097	 -0.297372	 0.091132
H	 1.025961	 0.723344	 1.182443
H	 1.499631	 0.118716	 -0.399275
C	 -1.850991	 0.512573	 -0.019058
H	 -0.476753	 -0.965681	 -0.762987
H	 -0.604799	 -0.930658	 0.975228
C	 -3.096943	 -0.368295	 -0.099594
H	 -1.800724	 1.150330	 -0.898172
H	 -1.931651	 1.177355	 0.838044
H	 -3.060452	 -1.020287	 -0.967456
H	 -3.996858	 0.233488	 -0.175704
H	 -3.191959	 -0.995686	 0.782074

	symmetry c1
}
set optking {
	frozen_dihedral = ("
		9 5 8 12,
		4 2 3 6
	")
}

ee = energy('scf')
oeprop('DIPOLE', 'QUADRUPOLE', 'MULLIKEN_CHARGES')
f=open( 'psi4out.xyz', 'w' )
f.write( "16  " )
f.write( str(ee) + "\n" )
f.write( MOL.save_string_xyz() )
f.close()
--------------------------------------------------------------------------

    Molecular point group: c1

    Geometry (in Angstrom), charge = 0, multiplicity = 1:

       Center              X                  Y                   Z               Mass
    ------------   -----------------  -----------------  -----------------  -----------------
           H          0.735805817831     1.043539531113    -1.448695133329     1.007825032070
           C          1.089801817831     1.047246531113    -0.410680133329    12.000000000000
           C          1.331406817831    -0.313808468887     0.189396866671    12.000000000000
           O          1.256445817831     2.076549531113     0.159314866671    15.994914619560
           C          0.081241817831    -1.200780468887     0.120391866671    12.000000000000
           H          1.665299817831    -0.180064468887     1.211702866671     1.007825032070
           H          2.138969817831    -0.784692468887    -0.370015133329     1.007825032070
           C         -1.211652182169    -0.390835468887     0.010201866671    12.000000000000
           H          0.162585817831    -1.869089468887    -0.733727133329     1.007825032070
           H          0.034539817831    -1.834066468887     1.004487866671     1.007825032070
           C         -2.457604182169    -1.271703468887    -0.070334133329    12.000000000000
           H         -1.161385182169     0.246921531113    -0.868912133329     1.007825032070
           H         -1.292312182169     0.273946531113     0.867303866671     1.007825032070
           H         -2.421113182169    -1.923695468887    -0.938196133329     1.007825032070
           H         -3.357519182169    -0.669920468887    -0.146444133329     1.007825032070
           H         -2.552620182169    -1.899094468887     0.811333866671     1.007825032070

  Charge       = 0
  Multiplicity = 1
  Basis Set: 6-31G*
  Basis Set:

    Orbital Energies (a.u.)
    -----------------------

    Doubly Occupied:

       1A    -20.560939     2A    -11.325854     3A    -11.234674
       4A    -11.233764     5A    -11.228144     6A    -11.218045
       7A     -1.401395     8A     -1.098832     9A     -1.015210
      10A     -0.902970    11A     -0.835732    12A     -0.774747
      13A     -0.673371    14A     -0.646091    15A     -0.625942
      16A     -0.607392    17A     -0.585231    18A     -0.559049
      19A     -0.522282    20A     -0.509503    21A     -0.495984
      22A     -0.475611    23A     -0.469005    24A     -0.407194

  @DF-RHF Final Energy:  -270.01121147682204

   => Energetics <=

    Nuclear Repulsion Energy =            236.3835392397342900
    One-Electron Energy =                -833.9756148082598202
    Two-Electron Energy =                 327.5808640917035177
    DFT Exchange-Correlation Energy =       0.0000000000000000
    Empirical Dispersion Energy =           0.0000000000000000
    PCM Polarization Energy =               0.0000000000000000
    EFP Energy =                            0.0000000000000000
    Total Energy =                       -270.0112114768219840

  Mulliken Charges: (a.u.)
   Center  Symbol    Alpha    Beta     Spin     Total
       1     H     0.42979  0.42979  0.00000  0.14043
       2     C     2.83555  2.83555  0.00000  0.32889
       3     C     3.20821  3.20821  0.00000 -0.41643
       4     O     4.23844  4.23844  0.00000 -0.47689
       5     C     3.15979  3.15979  0.00000 -0.31959
       6     H     0.39856  0.39856  0.00000  0.20287
       7     H     0.40694  0.40694  0.00000  0.18611
       8     C     3.16734  3.16734  0.00000 -0.33468
       9     H     0.41772  0.41772  0.00000  0.16456
      10     H     0.41149  0.41149  0.00000  0.17701
      11     C     3.23842  3.23842  0.00000 -0.47683
      12     H     0.42039  0.42039  0.00000  0.15923
      13     H     0.41130  0.41130  0.00000  0.17740
      14     H     0.42084  0.42084  0.00000  0.15832
      15     H     0.41557  0.41557  0.00000  0.16887
      16     H     0.41964  0.41964  0.00000  0.16072

   Total alpha = 24.00000, Total beta = 24.00000, Total charge = -0.00000
