  ==> Input File <==

--------------------------------------------------------------------------
set {
	reference rhf
	basis 6-31G*
}

set_num_threads( 1 )
memory 2 gb

molecule MOL {
0 1

H	 -4.344221	 0.047492	 -1.178891
O	 -3.452007	 0.283848	 -0.965577
C	 -3.181085	 -0.079926	 0.364119
C	 -1.765924	 0.277073	 0.805136
H	 -3.327791	 -1.152017	 0.410903
H	 -3.905698	 0.375695	 1.036898
C	 -0.677594	 -0.417312	 -0.014550
H	 -1.637766	 1.358238	 0.744969
H	 -1.659588	 0.017670	 1.857098
C	 0.738335	 -0.034840	 0.421385
H	 -0.814977	 -0.178223	 -1.064632
H	 -0.802730	 -1.495410	 0.071702
C	 1.822265	 -0.738362	 -0.399735
H	 0.853533	 1.043532	 0.342250
H	 0.871597	 -0.279636	 1.474438
C	 3.258060	 -0.455774	 0.057203
H	 1.718003	 -0.459167	 -1.447053
H	 1.651028	 -1.811884	 -0.354513
C	 3.709143	 0.994797	 -0.123830
H	 3.930637	 -1.101717	 -0.501982
H	 3.365259	 -0.739518	 1.102287
H	 3.601178	 1.310569	 -1.158127
H	 4.753787	 1.110486	 0.148516
H	 3.135362	 1.678896	 0.492569

	symmetry c1
}
set optking {
	frozen_dihedral = ("
		20 16 13 17,
		17 13 10 7,
		13 10 7 11,
		11 7 4 3,
		7 4 3 2
	")
}

ee = energy('scf')
oeprop('DIPOLE', 'QUADRUPOLE', 'MULLIKEN_CHARGES')
f=open( 'psi4out.xyz', 'w' )
f.write( "24  " )
f.write( str(ee) + "\n" )
f.write( MOL.save_string_xyz() )
f.close()
--------------------------------------------------------------------------

    Molecular point group: c1

    Geometry (in Angstrom), charge = 0, multiplicity = 1:

       Center              X                  Y                   Z               Mass
    ------------   -----------------  -----------------  -----------------  -----------------
           H         -4.336205714092     0.057732683198    -1.177722485573     1.007825032070
           O         -3.443991714092     0.294088683198    -0.964408485573    15.994914619560
           C         -3.173069714092    -0.069685316802     0.365287514427    12.000000000000
           C         -1.757908714092     0.287313683198     0.806304514427    12.000000000000
           H         -3.319775714092    -1.141776316802     0.412071514427     1.007825032070
           H         -3.897682714092     0.385935683198     1.038066514427     1.007825032070
           C         -0.669578714092    -0.407071316802    -0.013381485573    12.000000000000
           H         -1.629750714092     1.368478683198     0.746137514427     1.007825032070
           H         -1.651572714092     0.027910683198     1.858266514427     1.007825032070
           C          0.746350285908    -0.024599316802     0.422553514427    12.000000000000
           H         -0.806961714092    -0.167982316802    -1.063463485573     1.007825032070
           H         -0.794714714092    -1.485169316802     0.072870514427     1.007825032070
           C          1.830280285908    -0.728121316802    -0.398566485573    12.000000000000
           H          0.861548285908     1.053772683198     0.343418514427     1.007825032070
           H          0.879612285908    -0.269395316802     1.475606514427     1.007825032070
           C          3.266075285908    -0.445533316802     0.058371514427    12.000000000000
           H          1.726018285908    -0.448926316802    -1.445884485573     1.007825032070
           H          1.659043285908    -1.801643316802    -0.353344485573     1.007825032070
           C          3.717158285908     1.005037683198    -0.122661485573    12.000000000000
           H          3.938652285908    -1.091476316802    -0.500813485573     1.007825032070
           H          3.373274285908    -0.729277316802     1.103455514427     1.007825032070
           H          3.609193285908     1.320809683198    -1.156958485573     1.007825032070
           H          4.761802285908     1.120726683198     0.149684514427     1.007825032070
           H          3.143377285908     1.689136683198     0.493737514427     1.007825032070

  Charge       = 0
  Multiplicity = 1
  Basis Set: 6-31G*
  Basis Set:

    Orbital Energies (a.u.)
    -----------------------

    Doubly Occupied:

       1A    -20.550650     2A    -11.267504     3A    -11.215536
       4A    -11.211862     5A    -11.209393     6A    -11.208802
       7A    -11.207428     8A    -11.204923     9A     -1.358171
      10A     -1.085696    11A     -1.046169    12A     -0.983719
      13A     -0.911950    14A     -0.844132    15A     -0.790182
      16A     -0.773556    17A     -0.700533    18A     -0.644412
      19A     -0.632319    20A     -0.610520    21A     -0.588546
      22A     -0.577151    23A     -0.557781    24A     -0.532234
      25A     -0.521146    26A     -0.503644    27A     -0.490214
      28A     -0.479998    29A     -0.466270    30A     -0.455078
      31A     -0.449969    32A     -0.437062    33A     -0.423577

  @DF-RHF Final Energy:  -349.24584177464175

   => Energetics <=

    Nuclear Repulsion Energy =            383.7294257774732955
    One-Electron Energy =               -1234.0701312760243127
    Two-Electron Energy =                 501.0948637239096684
    DFT Exchange-Correlation Energy =       0.0000000000000000
    Empirical Dispersion Energy =           0.0000000000000000
    PCM Polarization Energy =               0.0000000000000000
    EFP Energy =                            0.0000000000000000
    Total Energy =                       -349.2458417746412920

  Mulliken Charges: (a.u.)
   Center  Symbol    Alpha    Beta     Spin     Total
       1     H     0.28023  0.28023  0.00000  0.43954
       2     O     4.37185  4.37185  0.00000 -0.74370
       3     C     2.99405  2.99405  0.00000  0.01190
       4     C     3.16220  3.16220  0.00000 -0.32440
       5     H     0.43311  0.43311  0.00000  0.13378
       6     H     0.43021  0.43021  0.00000  0.13959
       7     C     3.15437  3.15437  0.00000 -0.30874
       8     H     0.41640  0.41640  0.00000  0.16720
       9     H     0.42213  0.42213  0.00000  0.15573
      10     C     3.15425  3.15425  0.00000 -0.30849
      11     H     0.40779  0.40779  0.00000  0.18442
      12     H     0.42634  0.42634  0.00000  0.14732
      13     C     3.15217  3.15217  0.00000 -0.30434
      14     H     0.42107  0.42107  0.00000  0.15786
      15     H     0.42647  0.42647  0.00000  0.14706
      16     C     3.15217  3.15217  0.00000 -0.30433
      17     H     0.42325  0.42325  0.00000  0.15351
      18     H     0.42304  0.42304  0.00000  0.15391
      19     C     3.24098  3.24098  0.00000 -0.48195
      20     H     0.42162  0.42162  0.00000  0.15676
      21     H     0.42415  0.42415  0.00000  0.15170
      22     H     0.42201  0.42201  0.00000  0.15598
      23     H     0.42006  0.42006  0.00000  0.15988
      24     H     0.42009  0.42009  0.00000  0.15981

   Total alpha = 33.00000, Total beta = 33.00000, Total charge = -0.00000
