                              Psi4 1.0.54 Driver

  ==> Input File <==

--------------------------------------------------------------------------
set {
	reference rhf
	basis cc-pvtz
}

set_num_threads( 4 )
memory 2 gb

molecule MOL {
0 1

O	 -2.071633	 -1.227563	 -0.223463
C	 -1.652164	 -0.152425	 0.058082
C	 -0.327811	 0.006324	 0.778296
C	 -2.402515	 1.108629	 -0.298924
C	 0.843231	 -0.001575	 -0.211665
H	 -0.319484	 0.928173	 1.350354
H	 -0.227804	 -0.823091	 1.466705
C	 2.197693	 0.138030	 0.476937
H	 0.722944	 0.805202	 -0.930230
H	 0.813976	 -0.926978	 -0.776588
C	 2.455030	 -0.956240	 1.507235
H	 2.985607	 0.122582	 -0.271046
H	 2.253436	 1.109248	 0.959811
H	 2.440342	 -1.938826	 1.047514
H	 1.700190	 -0.945068	 2.285990
H	 3.421199	 -0.827571	 1.980905
H	 -3.240910	 0.874416	 -0.936711
H	 -1.747554	 1.818823	 -0.790984
H	 -2.760419	 1.579708	 0.610998

	symmetry c1
}
set optking {
	frozen_dihedral = ("
		11 8 5 9
	")
}

ee,wfn = optimize('scf', return_wfn=True)
oeprop( wfn, 'DIPOLE', 'QUADRUPOLE', 'MULLIKEN_CHARGES')
f=open( 'psi4out.xyz', 'w' )
f.write( "19  " )
f.write( str(ee) + "\n" )
f.write( MOL.save_string_xyz() )
f.close()
--------------------------------------------------------------------------

    Molecular point group: c1
  Charge       = 0
  Multiplicity = 1
  Basis Set: CC-PVTZ
  Basis Set:
  @DF-RHF Final Energy:  -309.17462156057280
    Total Energy =                       -309.1746215605726320
    Molecular point group: c1
  Basis Set: CC-PVTZ
  Basis Set:
  Basis Set: CC-PVTZ
  Basis Set:
  @DF-RHF Final Energy:  -308.42565927136616
    Total Energy =                       -308.4256592713662144
  Basis Set: CC-PVTZ
  Basis Set:
  Basis Set: CC-PVTZ
  Basis Set:
  @DF-RHF Final Energy:  -308.64111704862637
    Total Energy =                       -308.6411170486264268
  Basis Set: CC-PVTZ
  Basis Set:
  Basis Set: CC-PVTZ
  Basis Set:
  @DF-RHF Final Energy:  -308.97495220994841
    Total Energy =                       -308.9749522099485262
  Basis Set: CC-PVTZ
  Basis Set:
  @DF-RHF Final Energy:  -309.11594221341875
    Total Energy =                       -309.1159422134186912
  @DF-RHF Final Energy:  -309.16972883746513
    Total Energy =                       -309.1697288374649020
  @DF-RHF Final Energy:  -309.17395288514939
    Total Energy =                       -309.1739528851498449
  @DF-RHF Final Energy:  -309.17531215733845
    Total Energy =                       -309.1753121573386807
  @DF-RHF Final Energy:  -309.17351044381394
    Total Energy =                       -309.1735104438140525
  @DF-RHF Final Energy:  -309.17545254373925
    Total Energy =                       -309.1754525437390839
  @DF-RHF Final Energy:  -309.17556947210380
    Total Energy =                       -309.1755694721039163
  @DF-RHF Final Energy:  -309.17554192868204
    Total Energy =                       -309.1755419286818665
  Basis Set: CC-PVTZ
  Basis Set:
  @DF-RHF Final Energy:  -309.17559221688850
    Total Energy =                       -309.1755922168882762
  Basis Set: CC-PVTZ
  Basis Set:
  Basis Set: CC-PVTZ
  Basis Set:
  @DF-RHF Final Energy:  -309.17559590304455
    Total Energy =                       -309.1755959030443819
  Basis Set: CC-PVTZ
  Basis Set:
  Basis Set: CC-PVTZ
  Basis Set:
  @DF-RHF Final Energy:  -309.17559748436105
    Total Energy =                       -309.1755974843605372
  Basis Set: CC-PVTZ
  Basis Set:
  Charge       = 0
  Multiplicity = 1
  Basis Set: CC-PVTZ
  Basis Set:

    Orbital Energies (a.u.)
    -----------------------

    Doubly Occupied:

       1A    -20.536745     2A    -11.319364     3A    -11.229162
       4A    -11.227356     5A    -11.226995     6A    -11.223545
       7A    -11.212650     8A     -1.396949     9A     -1.092612
      10A     -1.028680    11A     -0.982006    12A     -0.901264
      13A     -0.798202    14A     -0.736130    15A     -0.660186
      16A     -0.653679    17A     -0.623899    18A     -0.602968
      19A     -0.594426    20A     -0.578528    21A     -0.549809
      22A     -0.543902    23A     -0.513689    24A     -0.504059
      25A     -0.482518    26A     -0.474448    27A     -0.464548
      28A     -0.399553

  @DF-RHF Final Energy:  -309.17559778017420

   => Energetics <=

    Nuclear Repulsion Energy =            305.2116546273345534
    One-Electron Energy =               -1023.6587639250842585
    Two-Electron Energy =                 409.2715115175751066
    DFT Exchange-Correlation Energy =       0.0000000000000000
    Empirical Dispersion Energy =           0.0000000000000000
    PCM Polarization Energy =               0.0000000000000000
    EFP Energy =                            0.0000000000000000
    Total Energy =                       -309.1755977801745416
    Molecular point group: c1
  Basis Set: CC-PVTZ
  Basis Set:

  -Total Gradient:
     Atom            X                  Y                   Z
    ------   -----------------  -----------------  -----------------
       1        0.000042131679     0.000031345051     0.000051988788
       2       -0.000054033044    -0.000040639644    -0.000059305820
       3        0.000027222425     0.000011057707     0.000025386696
       4        0.000040089679    -0.000004701170    -0.000006278910
       5        0.000509069322    -0.000706734349    -0.001001261105
       6       -0.000007758899    -0.000006926202    -0.000009554335
       7       -0.000005900813    -0.000012065658     0.000004951386
       8        0.000490216043    -0.000639179909    -0.000922687425
       9       -0.000572078457     0.000780548919     0.001094112794
      10        0.000008923327    -0.000001883479     0.000012995203
      11       -0.000448112443     0.000570020432     0.000814432273
      12       -0.000000644711     0.000004174876    -0.000008444702
      13       -0.000001404430     0.000000461989    -0.000005843417
      14        0.000005756996    -0.000002135560     0.000001844444
      15       -0.000003686436     0.000004385562    -0.000001635752
      16       -0.000000560059     0.000000938294     0.000003200801
      17       -0.000012710165     0.000013783327    -0.000007397021
      18        0.000002996784    -0.000002083332     0.000002470971
      19       -0.000019516793    -0.000000366853     0.000011025134

  **** Optimization is complete! (in 16 steps) ****
    Final optimized geometry and variables:
    Molecular point group: c1

    Geometry (in Angstrom), charge = 0, multiplicity = 1:

    O           -1.815507121153     0.305644149145    -1.394153170277
    C           -1.152427535577     0.867565349371    -0.584387312779
    C           -0.332094604600     0.093038078719     0.427897057386
    C           -1.078873483314     2.375068116074    -0.529377041573
    C            1.023837474865    -0.308144346715    -0.170775592480
    H           -0.177237659982     0.689799267412     1.321224198377
    H           -0.900004004772    -0.786145324879     0.697465023762
    C            1.961434581710    -1.006804986125     0.815112653901
    H            1.521177447446     0.585045512806    -0.538081570274
    H            0.847064024861    -0.946306270824    -1.029520454240
    C            1.407938685007    -2.290447501287     1.427881277217
    H            2.887839804904    -1.232167713009     0.296720288859
    H            2.220813956098    -0.314391725776     1.611695900387
    H            1.106136516470    -2.993798693231     0.658668971401
    H            0.547935986528    -2.100494525380     2.058319554112
    H            2.159254225315    -2.774209465514     2.040994711446
    H           -1.569900687050     2.803079969505    -1.389782510881
    H           -0.048527633025     2.709110847806    -0.483938055831
    H           -1.568431616989     2.721256492907     0.375412118550

  Mulliken Charges: (a.u.)
   Center  Symbol    Alpha    Beta     Spin     Total
       1     O     4.17711  4.17711  0.00000 -0.35422
       2     C     2.85805  2.85805  0.00000  0.28390
       3     C     3.10354  3.10354  0.00000 -0.20708
       4     C     3.15469  3.15469  0.00000 -0.30939
       5     C     3.10392  3.10392  0.00000 -0.20784
       6     H     0.44906  0.44906  0.00000  0.10189
       7     H     0.43707  0.43707  0.00000  0.12586
       8     C     3.09082  3.09082  0.00000 -0.18164
       9     H     0.44708  0.44708  0.00000  0.10584
      10     H     0.44011  0.44011  0.00000  0.11978
      11     C     3.15394  3.15394  0.00000 -0.30787
      12     H     0.44649  0.44649  0.00000  0.10703
      13     H     0.45381  0.45381  0.00000  0.09238
      14     H     0.45100  0.45100  0.00000  0.09799
      15     H     0.45308  0.45308  0.00000  0.09384
      16     H     0.44504  0.44504  0.00000  0.10992
      17     H     0.43592  0.43592  0.00000  0.12817
      18     H     0.45099  0.45099  0.00000  0.09801
      19     H     0.44828  0.44828  0.00000  0.10344

   Total alpha = 28.00000, Total beta = 28.00000, Total charge =  0.00000

*** Psi4 exiting successfully. Buy a developer a beer!
