  ==> Input File <==

--------------------------------------------------------------------------
set {
	reference rhf
	basis cc-pvtz
}

set_num_threads( 4 )
memory 2 gb

molecule MOL {
0 1

H	 0.717767	 3.580963	 -1.067621
O	 1.456386	 3.059460	 -0.808394
C	 1.078248	 1.828967	 -0.419187
C	 2.073337	 0.953112	 -0.009559
C	 -0.239865	 1.425319	 -0.416746
H	 3.091846	 1.287331	 -0.019223
C	 1.745831	 -0.319184	 0.399529
H	 -1.027492	 2.079835	 -0.727472
C	 -0.532034	 0.141680	 0.000000
H	 2.521534	 -0.989177	 0.714398
C	 0.428954	 -0.747729	 0.410776
N	 -1.937041	 -0.281114	 0.000000
H	 0.159858	 -1.732185	 0.725667
O	 -2.159542	 -1.446261	 0.000000
O	 -2.764978	 0.565773	 0.000000

	symmetry c1
}
set optking {
	frozen_dihedral = ("
		11 9 12 14
	")
}

ee = optimize('scf')
oeprop('DIPOLE', 'QUADRUPOLE', 'MULLIKEN_CHARGES')
f=open( 'psi4out.xyz', 'w' )
f.write( "15  " )
f.write( str(ee) + "\n" )
f.write( MOL.save_string_xyz() )
f.close()
--------------------------------------------------------------------------

    Molecular point group: c1
  Charge       = 0
  Multiplicity = 1
  Basis Set: CC-PVTZ
  Basis Set:
  @DF-RHF Final Energy:  -509.21841944875149
    Total Energy =                       -509.2184194487515470
    Molecular point group: c1
  Basis Set: CC-PVTZ
  Basis Set:
  Basis Set: CC-PVTZ
  Basis Set:
  @DF-RHF Final Energy:  -509.21208507450132
    Total Energy =                       -509.2120850745012604
  Basis Set: CC-PVTZ
  Basis Set:
  Basis Set: CC-PVTZ
  Basis Set:
  @DF-RHF Final Energy:  -509.21833993255098
    Total Energy =                       -509.2183399325508617
  Basis Set: CC-PVTZ
  Basis Set:
  Basis Set: CC-PVTZ
  Basis Set:
  @DF-RHF Final Energy:  -509.21849772588774
    Total Energy =                       -509.2184977258876870
  Basis Set: CC-PVTZ
  Basis Set:
  Basis Set: CC-PVTZ
  Basis Set:
  @DF-RHF Final Energy:  -509.21849885114000
    Total Energy =                       -509.2184988511402253
  Basis Set: CC-PVTZ
  Basis Set:
  Charge       = 0
  Multiplicity = 1
  Basis Set: CC-PVTZ
  Basis Set:

    Orbital Energies (a.u.)
    -----------------------

    Doubly Occupied:

       1A    -20.608715     2A    -20.595580     3A    -20.595081
       4A    -15.850435     5A    -11.328106     6A    -11.309414
       7A    -11.263462     8A    -11.263099     9A    -11.258679
      10A    -11.256061    11A     -1.644423    12A     -1.441365
      13A     -1.427029    14A     -1.202915    15A     -1.095843
      16A     -1.048310    17A     -0.966935    18A     -0.882158
      19A     -0.832112    20A     -0.795071    21A     -0.758452
      22A     -0.742360    23A     -0.728171    24A     -0.710230
      25A     -0.676722    26A     -0.636152    27A     -0.621953
      28A     -0.598352    29A     -0.561398    30A     -0.547194
      31A     -0.522547    32A     -0.494887    33A     -0.493252
      34A     -0.459794    35A     -0.379744    36A     -0.346287

  @DF-RHF Final Energy:  -509.21850066400049

   => Energetics <=

    Nuclear Repulsion Energy =            504.7249674862139841
    One-Electron Energy =               -1696.0023608480760231
    Two-Electron Energy =                 682.0588926978616655
    DFT Exchange-Correlation Energy =       0.0000000000000000
    Empirical Dispersion Energy =           0.0000000000000000
    PCM Polarization Energy =               0.0000000000000000
    EFP Energy =                            0.0000000000000000
    Total Energy =                       -509.2185006640004303
    Molecular point group: c1
  Basis Set: CC-PVTZ
  Basis Set:

  -Total Gradient:
     Atom            X                  Y                   Z
    ------   -----------------  -----------------  -----------------
       1        0.000000890965    -0.000004077812    -0.000010601387
       2        0.000000365211     0.000010664250     0.000017048592
       3       -0.000004749043    -0.000007576587    -0.000012601500
       4        0.000000995542     0.000000624912     0.000004254615
       5        0.000005963878     0.000000227092    -0.000008117451
       6       -0.000000633868     0.000000030070     0.000002624420
       7        0.000004527678    -0.000003127729    -0.000021297287
       8        0.000001047713     0.000002881246     0.000004197647
       9        0.000214278098    -0.000841161199    -0.002974294609
      10       -0.000000251854     0.000000088095     0.000002278218
      11       -0.000152457574     0.000570935315     0.001585212185
      12       -0.000117288856     0.000527083093     0.003333114704
      13        0.000001616797     0.000002069930    -0.000005001858
      14       -0.000040167250    -0.000160861889    -0.001914689484
      15        0.000085862566    -0.000097798784    -0.000002126806

  **** Optimization is complete! (in 6 steps) ****
    Final optimized geometry and variables:
    Molecular point group: c1

    Geometry (in Angstrom), charge = 0, multiplicity = 1:

    H            0.877464493484     3.045018006940    -0.966807119163
    O            1.616480925340     2.521036703492    -0.713886799564
    C            1.238249991199     1.291566662764    -0.322309749846
    C            2.233059444899     0.416712921908     0.090447502019
    C           -0.080459738384     0.888864165645    -0.316033117307
    H            3.251121889389     0.752235861749     0.083795833014
    C            1.905906667391    -0.855176985919     0.501224312831
    H           -0.870288211891     1.547432704307    -0.613544001970
    C           -0.369366106027    -0.398637960348     0.088667294815
    H            2.681114065126    -1.521864354067     0.824264914339
    C            0.590023126640    -1.287201894876     0.503218034296
    N           -1.773941875873    -0.817016652036     0.103593637302
    H            0.320663651617    -2.274020715398     0.811805207426
    O           -1.997995566180    -1.980181955826     0.118754750713
    O           -2.599269163070     0.034721991911     0.086607469232

  Mulliken Charges: (a.u.)
   Center  Symbol    Alpha    Beta     Spin     Total
       1     H     0.38418  0.38418  0.00000  0.23165
       2     O     4.16841  4.16841  0.00000 -0.33682
       3     C     2.84420  2.84420  0.00000  0.31160
       4     C     3.09798  3.09798  0.00000 -0.19597
       5     C     3.13573  3.13573  0.00000 -0.27147
       6     H     0.41323  0.41323  0.00000  0.17354
       7     C     3.05648  3.05648  0.00000 -0.11297
       8     H     0.40950  0.40950  0.00000  0.18100
       9     C     2.96938  2.96938  0.00000  0.06125
      10     H     0.41599  0.41599  0.00000  0.16801
      11     C     3.09835  3.09835  0.00000 -0.19670
      12     N     3.25588  3.25588  0.00000  0.48825
      13     H     0.40153  0.40153  0.00000  0.19694
      14     O     4.17272  4.17272  0.00000 -0.34544
      15     O     4.17644  4.17644  0.00000 -0.35287

   Total alpha = 36.00000, Total beta = 36.00000, Total charge =  0.00000
