  ==> Input File <==

--------------------------------------------------------------------------
set {
	reference rhf
	basis 6-31G*
}

set_num_threads( 1 )
memory 2 gb

molecule MOL {
0 1

H	 1.501182	 -2.871002	 -2.446656
O	 2.358525	 -2.529153	 -2.654437
C	 2.236719	 -1.467594	 -3.566748
C	 1.675828	 -0.196534	 -2.938628
H	 3.236661	 -1.281709	 -3.937203
H	 1.626673	 -1.765461	 -4.418745
C	 0.241711	 -0.337800	 -2.422662
H	 2.329278	 0.102497	 -2.123183
H	 1.715567	 0.596048	 -3.684015
C	 -0.311246	 0.969221	 -1.847552
H	 0.211065	 -1.111282	 -1.660329
H	 -0.404028	 -0.672041	 -3.234847
C	 -1.774407	 0.905191	 -1.394342
H	 0.310912	 1.284056	 -1.011701
H	 -0.218683	 1.746376	 -2.603305
C	 -2.037799	 -0.007733	 -0.193645
H	 -2.098176	 1.912664	 -1.141386
H	 -2.396243	 0.589607	 -2.230741
C	 -3.489788	 0.042957	 0.286558
H	 -1.379359	 0.277638	 0.625581
H	 -1.786163	 -1.035789	 -0.442810
C	 -4.216917	 1.317354	 -0.141063
H	 -4.025645	 -0.823308	 -0.095450
H	 -3.513059	 -0.038752	 1.371301
H	 -4.239342	 1.411634	 -1.223113
H	 -5.243387	 1.322503	 0.212445
H	 -3.726170	 2.201406	 0.256408

	symmetry c1
}
set optking {
	frozen_dihedral = ("
		14 10 7 4,
		14 10 13 16,
		10 7 4 8,
		8 4 3 2,
		10 13 16 20,
		4 3 2 1
	")
}

ee = energy('scf')
oeprop('DIPOLE', 'QUADRUPOLE', 'MULLIKEN_CHARGES')
f=open( 'psi4out.xyz', 'w' )
f.write( "27  " )
f.write( str(ee) + "\n" )
f.write( MOL.save_string_xyz() )
f.close()
--------------------------------------------------------------------------

    Molecular point group: c1

    Geometry (in Angstrom), charge = 0, multiplicity = 1:

       Center              X                  Y                   Z               Mass
    ------------   -----------------  -----------------  -----------------  -----------------
           H          2.059267807487    -2.687398980420    -0.778554491727     1.007825032070
           O          2.916610807487    -2.345549980420    -0.986335491727    15.994914619560
           C          2.794804807487    -1.283990980420    -1.898646491727    12.000000000000
           C          2.233913807487    -0.012930980420    -1.270526491727    12.000000000000
           H          3.794746807487    -1.098105980420    -2.269101491727     1.007825032070
           H          2.184758807487    -1.581857980420    -2.750643491727     1.007825032070
           C          0.799796807487    -0.154196980420    -0.754560491727    12.000000000000
           H          2.887363807487     0.286100019580    -0.455081491727     1.007825032070
           H          2.273652807487     0.779651019580    -2.015913491727     1.007825032070
           C          0.246839807487     1.152824019580    -0.179450491727    12.000000000000
           H          0.769150807487    -0.927678980420     0.007772508273     1.007825032070
           H          0.154057807487    -0.488437980420    -1.566745491727     1.007825032070
           C         -1.216321192513     1.088794019580     0.273759508273    12.000000000000
           H          0.868997807487     1.467659019580     0.656400508273     1.007825032070
           H          0.339402807487     1.929979019580    -0.935203491727     1.007825032070
           C         -1.479713192513     0.175870019580     1.474456508273    12.000000000000
           H         -1.540090192513     2.096267019580     0.526715508273     1.007825032070
           H         -1.838157192513     0.773210019580    -0.562639491727     1.007825032070
           C         -2.931702192513     0.226560019580     1.954659508273    12.000000000000
           H         -0.821273192513     0.461241019580     2.293682508273     1.007825032070
           H         -1.228077192513    -0.852185980420     1.225291508273     1.007825032070
           C         -3.658831192513     1.500957019580     1.527038508273    12.000000000000
           H         -3.467559192513    -0.639704980420     1.572651508273     1.007825032070
           H         -2.954973192513     0.144851019580     3.039402508273     1.007825032070
           H         -3.681256192513     1.595237019580     0.444988508273     1.007825032070
           H         -4.685301192513     1.506106019580     1.880546508273     1.007825032070
           H         -3.168084192513     2.385009019580     1.924509508273     1.007825032070

  Charge       = 0
  Multiplicity = 1
  Basis Set: 6-31G*
  Basis Set:

    Orbital Energies (a.u.)
    -----------------------

    Doubly Occupied:

       1A    -20.552057     2A    -11.266760     3A    -11.219182
       4A    -11.216263     5A    -11.215161     6A    -11.214784
       7A    -11.214037     8A    -11.213212     9A    -11.207955
      10A     -1.358788    11A     -1.096804    12A     -1.062643
      13A     -1.006901    14A     -0.943385    15A     -0.897225
      16A     -0.832536    17A     -0.797491    18A     -0.761723
      19A     -0.693350    20A     -0.649141    21A     -0.639183
      22A     -0.617888    23A     -0.608860    24A     -0.586781
      25A     -0.575872    26A     -0.556362    27A     -0.536870
      28A     -0.524211    29A     -0.511884    30A     -0.497913
      31A     -0.485205    32A     -0.475873    33A     -0.469033
      34A     -0.448883    35A     -0.447427    36A     -0.441199
      37A     -0.422937

  @DF-RHF Final Energy:  -388.27052375605672

   => Energetics <=

    Nuclear Repulsion Energy =            464.9329482133531428
    One-Electron Energy =               -1447.8755290822048210
    Two-Electron Energy =                 594.6720571127954145
    DFT Exchange-Correlation Energy =       0.0000000000000000
    Empirical Dispersion Energy =           0.0000000000000000
    PCM Polarization Energy =               0.0000000000000000
    EFP Energy =                            0.0000000000000000
    Total Energy =                       -388.2705237560562637

  Mulliken Charges: (a.u.)
   Center  Symbol    Alpha    Beta     Spin     Total
       1     H     0.27993  0.27993  0.00000  0.44014
       2     O     4.37097  4.37097  0.00000 -0.74195
       3     C     2.99733  2.99733  0.00000  0.00534
       4     C     3.16090  3.16090  0.00000 -0.32180
       5     H     0.41452  0.41452  0.00000  0.17095
       6     H     0.43214  0.43214  0.00000  0.13572
       7     C     3.16342  3.16342  0.00000 -0.32683
       8     H     0.41505  0.41505  0.00000  0.16990
       9     H     0.42444  0.42444  0.00000  0.15112
      10     C     3.14973  3.14973  0.00000 -0.29946
      11     H     0.42304  0.42304  0.00000  0.15392
      12     H     0.42572  0.42572  0.00000  0.14855
      13     C     3.16113  3.16113  0.00000 -0.32226
      14     H     0.42203  0.42203  0.00000  0.15593
      15     H     0.42202  0.42202  0.00000  0.15596
      16     C     3.15549  3.15549  0.00000 -0.31099
      17     H     0.41592  0.41592  0.00000  0.16816
      18     H     0.42398  0.42398  0.00000  0.15204
      19     C     3.15243  3.15243  0.00000 -0.30485
      20     H     0.42217  0.42217  0.00000  0.15567
      21     H     0.42095  0.42095  0.00000  0.15811
      22     C     3.24782  3.24782  0.00000 -0.49565
      23     H     0.42187  0.42187  0.00000  0.15625
      24     H     0.41978  0.41978  0.00000  0.16044
      25     H     0.41790  0.41790  0.00000  0.16419
      26     H     0.41832  0.41832  0.00000  0.16337
      27     H     0.42099  0.42099  0.00000  0.15802

   Total alpha = 37.00000, Total beta = 37.00000, Total charge = -0.00000
