  ==> Input File <==

--------------------------------------------------------------------------
set {
	reference rhf
	basis cc-pvtz
}

set_num_threads( 4 )
memory 2 gb

molecule MOL {
0 1

H	 2.867672	 -0.456275	 0.875795
C	 2.403497	 -0.020426	 0.000000
N	 0.989899	 -0.304564	 0.000000
H	 2.867672	 -0.456275	 -0.875795
H	 2.620366	 1.051270	 0.000000
C	 0.183622	 0.898550	 0.000000
C	 0.601334	 -1.179587	 1.086702
H	 0.370636	 1.505052	 0.891586
H	 0.439661	 1.499379	 -0.864972
C	 -1.288574	 0.538331	 -0.055888
H	 1.163862	 -2.103555	 1.019079
H	 0.819767	 -0.729392	 2.060024
C	 -0.881594	 -1.486409	 1.002892
H	 -1.899837	 1.425163	 0.036381
H	 -1.510838	 0.063785	 -1.009568
O	 -1.639932	 -0.313383	 0.994004
H	 -1.198677	 -2.063137	 1.860488
H	 -1.082798	 -2.065730	 0.104001

	symmetry c1
}
set optking {
	frozen_dihedral = ("
		6 3 2 5
	")
}

ee = optimize('scf')
oeprop('DIPOLE', 'QUADRUPOLE', 'MULLIKEN_CHARGES')
f=open( 'psi4out.xyz', 'w' )
f.write( "18  " )
f.write( str(ee) + "\n" )
f.write( MOL.save_string_xyz() )
f.close()
--------------------------------------------------------------------------

    Molecular point group: c1
  Charge       = 0
  Multiplicity = 1
  Basis Set: CC-PVTZ
  Basis Set:
  @DF-RHF Final Energy:  -325.13907132760176
    Total Energy =                       -325.1390713276020961
    Molecular point group: c1
  Basis Set: CC-PVTZ
  Basis Set:
  Basis Set: CC-PVTZ
  Basis Set:
  @DF-RHF Final Energy:  -325.13972827658790
    Total Energy =                       -325.1397282765881300
  Basis Set: CC-PVTZ
  Basis Set:
  Basis Set: CC-PVTZ
  Basis Set:
  @DF-RHF Final Energy:  -325.13985349301635
    Total Energy =                       -325.1398534930160622
  Basis Set: CC-PVTZ
  Basis Set:
  Basis Set: CC-PVTZ
  Basis Set:
  @DF-RHF Final Energy:  -325.13986254750989
    Total Energy =                       -325.1398625475094946
  Basis Set: CC-PVTZ
  Basis Set:
  Charge       = 0
  Multiplicity = 1
  Basis Set: CC-PVTZ
  Basis Set:

    Orbital Energies (a.u.)
    -----------------------

    Doubly Occupied:

       1A    -20.546929     2A    -15.540561     3A    -11.263482
       4A    -11.263442     5A    -11.242407     6A    -11.242363
       7A    -11.238894     8A     -1.385793     9A     -1.228951
      10A     -1.038759    11A     -0.980943    12A     -0.883564
      13A     -0.870425    14A     -0.773482    15A     -0.684322
      16A     -0.645571    17A     -0.644284    18A     -0.631689
      19A     -0.627976    20A     -0.572295    21A     -0.557915
      22A     -0.548311    23A     -0.526875    24A     -0.499807
      25A     -0.484815    26A     -0.453346    27A     -0.409886
      28A     -0.348099

  @DF-RHF Final Energy:  -325.13986340899925

   => Energetics <=

    Nuclear Repulsion Energy =            341.3498214783133449
    One-Electron Energy =               -1118.7089950061338186
    Two-Electron Energy =                 452.2193101188213404
    DFT Exchange-Correlation Energy =       0.0000000000000000
    Empirical Dispersion Energy =           0.0000000000000000
    PCM Polarization Energy =               0.0000000000000000
    EFP Energy =                            0.0000000000000000
    Total Energy =                       -325.1398634089991901
    Molecular point group: c1
  Basis Set: CC-PVTZ
  Basis Set:

  -Total Gradient:
     Atom            X                  Y                   Z
    ------   -----------------  -----------------  -----------------
       1       -0.000000241022     0.000000749205     0.000002311094
       2        0.000036121494    -0.000034969175    -0.002058951078
       3       -0.000011567498     0.000050906592     0.001692191843
       4       -0.000034482270    -0.000006479347     0.000031001112
       5        0.000027897231     0.000045539511     0.001293751866
       6       -0.000009129661    -0.000001862253    -0.000960051540
       7        0.000003167866    -0.000013584942    -0.000009553081
       8        0.000012294230    -0.000006344018    -0.000001109859
       9       -0.000006054356    -0.000004887068     0.000000098091
      10       -0.000009347706    -0.000041113023    -0.000020596947
      11       -0.000007670696     0.000001285752     0.000001397075
      12       -0.000005479898    -0.000002593605    -0.000007256621
      13       -0.000018433138    -0.000006560562     0.000030042429
      14        0.000001054981    -0.000006426064     0.000009349565
      15        0.000002370309     0.000010588246    -0.000016451028
      16        0.000020350661     0.000015501307     0.000008403413
      17       -0.000017336258    -0.000002406306     0.000002501942
      18        0.000016485730     0.000002655750     0.000002921724

  **** Optimization is complete! (in 5 steps) ****
    Final optimized geometry and variables:
    Molecular point group: c1

    Geometry (in Angstrom), charge = 0, multiplicity = 1:

    H            2.873942018245    -0.148869324801     0.422931229341
    C            2.369023734099     0.229544748731    -0.461123188155
    N            0.939670805007    -0.022260598580    -0.406971100880
    H            2.820275790870    -0.240572208429    -1.327822024614
    H            2.577885927452     1.292288151737    -0.506192006571
    C            0.125978697360     1.174045107896    -0.424668849174
    C            0.542849934223    -0.917571691914     0.657567938839
    H            0.292362690777     1.791300681659     0.463889492829
    H            0.384725572897     1.770376922033    -1.291640544497
    C           -1.342257354801     0.800503345836    -0.500026121006
    H            1.105861935070    -1.840409248981     0.578302984903
    H            0.748978897414    -0.488296820396     1.643094180312
    C           -0.937976948806    -1.228147150158     0.551407637718
    H           -1.962559260124     1.681787495722    -0.413386811665
    H           -1.547207016842     0.326882255516    -1.458193928373
    O           -1.700103448856    -0.057741394632     0.542185792295
    H           -1.264497997208    -1.813624391081     1.399681361386
    H           -1.124836865041    -1.800222633122    -0.355312561366

  Mulliken Charges: (a.u.)
   Center  Symbol    Alpha    Beta     Spin     Total
       1     H     0.46154  0.46154  0.00000  0.07693
       2     C     3.08967  3.08967  0.00000 -0.17933
       3     N     3.61942  3.61942  0.00000 -0.23883
       4     H     0.44932  0.44932  0.00000  0.10136
       5     H     0.45915  0.45915  0.00000  0.08170
       6     C     3.04146  3.04146  0.00000 -0.08292
       7     C     3.04172  3.04172  0.00000 -0.08345
       8     H     0.46899  0.46899  0.00000  0.06201
       9     H     0.45361  0.45361  0.00000  0.09277
      10     C     2.98446  2.98446  0.00000  0.03108
      11     H     0.45355  0.45355  0.00000  0.09290
      12     H     0.46892  0.46892  0.00000  0.06215
      13     C     2.98447  2.98447  0.00000  0.03106
      14     H     0.45014  0.45014  0.00000  0.09972
      15     H     0.46853  0.46853  0.00000  0.06294
      16     O     4.18638  4.18638  0.00000 -0.37276
      17     H     0.45016  0.45016  0.00000  0.09968
      18     H     0.46850  0.46850  0.00000  0.06299

   Total alpha = 28.00000, Total beta = 28.00000, Total charge = -0.00000
