                              Psi4 1.0.54 Driver

  ==> Input File <==

--------------------------------------------------------------------------
set {
	reference rhf
	basis cc-pvtz
}

set_num_threads( 4 )
memory 2 gb

molecule MOL {
0 1

H	 -1.623653	 -1.094931	 -0.903596
O	 -2.321472	 -0.864941	 -0.318626
C	 -2.021813	 0.336996	 0.342658
C	 -0.669613	 0.837286	 -0.127252
H	 -2.780861	 1.084746	 0.127159
H	 -2.006390	 0.184138	 1.420053
C	 0.490865	 -0.082543	 0.241244
H	 -0.708709	 0.967192	 -1.204587
H	 -0.507562	 1.822272	 0.303070
C	 1.839800	 0.429565	 -0.255472
H	 0.305636	 -1.070211	 -0.165276
H	 0.527397	 -0.195943	 1.322876
C	 3.001144	 -0.485193	 0.119072
H	 1.804373	 0.541073	 -1.335756
H	 2.020437	 1.423114	 0.146921
H	 2.866892	 -1.477297	 -0.298806
H	 3.943543	 -0.095749	 -0.249061
H	 3.085064	 -0.590459	 1.195790

	symmetry c1
}
set optking {
	frozen_dihedral = ("
		1 2 3 4
	")
}

ee,wfn = optimize('scf', return_wfn=True)
oeprop( wfn, 'DIPOLE', 'QUADRUPOLE', 'MULLIKEN_CHARGES')
f=open( 'psi4out.xyz', 'w' )
f.write( "18  " )
f.write( str(ee) + "\n" )
f.write( MOL.save_string_xyz() )
f.close()
--------------------------------------------------------------------------

    Molecular point group: c1
  Charge       = 0
  Multiplicity = 1
  Basis Set: CC-PVTZ
  Basis Set:
  @DF-RHF Final Energy:  -271.28181416614086
    Total Energy =                       -271.2818141661409754
    Molecular point group: c1
  Basis Set: CC-PVTZ
  Basis Set:
  Basis Set: CC-PVTZ
  Basis Set:
  @DF-RHF Final Energy:  -271.03863815082411
    Total Energy =                       -271.0386381508239992
  Basis Set: CC-PVTZ
  Basis Set:
  Basis Set: CC-PVTZ
  Basis Set:
  @DF-RHF Final Energy:  -271.17857860367707
    Total Energy =                       -271.1785786036771242
  Basis Set: CC-PVTZ
  Basis Set:
  Basis Set: CC-PVTZ
  Basis Set:
  @DF-RHF Final Energy:  -271.27003265881842
    Total Energy =                       -271.2700326588185362
  Basis Set: CC-PVTZ
  Basis Set:
  @DF-RHF Final Energy:  -271.28148912401412
    Total Energy =                       -271.2814891240141151
  Basis Set: CC-PVTZ
  Basis Set:
  @DF-RHF Final Energy:  -271.28351841148026
    Total Energy =                       -271.2835184114801450
  Basis Set: CC-PVTZ
  Basis Set:
  Basis Set: CC-PVTZ
  Basis Set:
  @DF-RHF Final Energy:  -271.28372012693484
    Total Energy =                       -271.2837201269346679
  Basis Set: CC-PVTZ
  Basis Set:
  Basis Set: CC-PVTZ
  Basis Set:
  @DF-RHF Final Energy:  -271.28372677102686
    Total Energy =                       -271.2837267710270908
  Basis Set: CC-PVTZ
  Basis Set:
  Charge       = 0
  Multiplicity = 1
  Basis Set: CC-PVTZ
  Basis Set:

    Orbital Energies (a.u.)
    -----------------------

    Doubly Occupied:

       1A    -20.542492     2A    -11.264684     3A    -11.222149
       4A    -11.220707     5A    -11.219757     6A    -11.211368
       7A     -1.360923     8A     -1.086895     9A     -1.015816
      10A     -0.923403    11A     -0.836085    12A     -0.798926
      13A     -0.665455    14A     -0.659868    15A     -0.635072
      16A     -0.613545    17A     -0.577992    18A     -0.559686
      19A     -0.542281    20A     -0.501916    21A     -0.496812
      22A     -0.479483    23A     -0.471761    24A     -0.453269
      25A     -0.431121

  @DF-RHF Final Energy:  -271.28372757920181

   => Energetics <=

    Nuclear Repulsion Energy =            249.0973408783210061
    One-Electron Energy =                -861.1792111879998401
    Two-Electron Energy =                 340.7981427304771387
    DFT Exchange-Correlation Energy =       0.0000000000000000
    Empirical Dispersion Energy =           0.0000000000000000
    PCM Polarization Energy =               0.0000000000000000
    EFP Energy =                            0.0000000000000000
    Total Energy =                       -271.2837275792016953
    Molecular point group: c1
  Basis Set: CC-PVTZ
  Basis Set:

  -Total Gradient:
     Atom            X                  Y                   Z
    ------   -----------------  -----------------  -----------------
       1        0.000221122235    -0.000337325467     0.000190981059
       2       -0.000347757447     0.000505303917    -0.000279951651
       3        0.000267968280    -0.000394838538     0.000174369402
       4       -0.000163927083     0.000219413671    -0.000099478869
       5        0.000009467869     0.000003249644     0.000004120479
       6        0.000001531109     0.000001600246     0.000008709915
       7        0.000012229189     0.000004764252     0.000002881590
       8        0.000001671677     0.000006345616    -0.000011385465
       9       -0.000000055014    -0.000004922549     0.000005404178
      10       -0.000012131781     0.000003547054     0.000014824202
      11        0.000000883879    -0.000008169840     0.000002380462
      12       -0.000001541650     0.000003305247     0.000010629467
      13        0.000004165634    -0.000004544678    -0.000020019447
      14        0.000004905100     0.000003063846    -0.000004747638
      15        0.000007343862     0.000004886026    -0.000000556056
      16        0.000000340360    -0.000005648805    -0.000003855605
      17       -0.000004428709    -0.000004173768     0.000004754046
      18       -0.000001787512     0.000004144125     0.000000939931

  **** Optimization is complete! (in 9 steps) ****
    Final optimized geometry and variables:
    Molecular point group: c1

    Geometry (in Angstrom), charge = 0, multiplicity = 1:

    H           -2.276027510336    -0.486325963346     0.002260869252
    O           -2.444725643012    -0.216110733938     0.884467929603
    C           -1.446111809545     0.663629688594     1.337017509534
    C           -0.364315392993     0.953054034294     0.308341355294
    H           -1.924123968955     1.593277787857     1.625498896231
    H           -0.999230028113     0.237822461600     2.230187573293
    C            0.502503554396    -0.252115736209    -0.053230381080
    H           -0.829848203487     1.358444927967    -0.587957348168
    H            0.269055702916     1.741365017906     0.704673607457
    C            1.578404964184     0.072037740578    -1.086063211508
    H           -0.116422738796    -1.061588251023    -0.432051446863
    H            0.972186022664    -0.633740082548     0.849636729082
    C            2.448525286577    -1.128764122624    -1.441457096738
    H            1.107448122479     0.455078924444    -1.987327197788
    H            2.207274487243     0.873484069320    -0.708255406784
    H            1.852643960275    -1.935552995862    -1.855112055687
    H            3.201103178727    -0.864331607548    -2.175145209737
    H            2.960765216457    -1.513517361547    -0.566006689217

  Mulliken Charges: (a.u.)
   Center  Symbol    Alpha    Beta     Spin     Total
       1     H     0.39129  0.39129  0.00000  0.21742
       2     O     4.20926  4.20926  0.00000 -0.41852
       3     C     2.95393  2.95393  0.00000  0.09215
       4     C     3.11381  3.11381  0.00000 -0.22762
       5     H     0.46278  0.46278  0.00000  0.07445
       6     H     0.47310  0.47310  0.00000  0.05379
       7     C     3.08742  3.08742  0.00000 -0.17484
       8     H     0.45105  0.45105  0.00000  0.09789
       9     H     0.45083  0.45083  0.00000  0.09835
      10     C     3.08399  3.08399  0.00000 -0.16797
      11     H     0.45701  0.45701  0.00000  0.08597
      12     H     0.45156  0.45156  0.00000  0.09687
      13     C     3.14943  3.14943  0.00000 -0.29886
      14     H     0.45418  0.45418  0.00000  0.09163
      15     H     0.45355  0.45355  0.00000  0.09289
      16     H     0.45493  0.45493  0.00000  0.09015
      17     H     0.44767  0.44767  0.00000  0.10466
      18     H     0.45420  0.45420  0.00000  0.09160

   Total alpha = 25.00000, Total beta = 25.00000, Total charge = -0.00000

*** Psi4 exiting successfully. Buy a developer a beer!
