                              Psi4 1.0.54 Driver

  ==> Input File <==

--------------------------------------------------------------------------
set {
	reference rhf
	basis cc-pvtz
}

set_num_threads( 4 )
memory 2 gb

molecule MOL {
0 1

H	 0.261463	 -0.602066	 2.855323
O	 0.224490	 -0.493558	 1.923168
C	 0.095324	 0.866847	 1.599703
C	 0.027642	 1.012027	 0.090274
H	 0.949496	 1.426847	 1.971937
H	 -0.793637	 1.284329	 2.064374
C	 -1.138737	 0.285728	 -0.581921
H	 0.959483	 0.641008	 -0.323881
H	 -0.018875	 2.073344	 -0.141367
C	 -1.933983	 -0.631436	 0.343653
H	 -0.763151	 -0.285569	 -1.422081
H	 -1.808359	 1.035291	 -0.992333
H	 -2.789188	 -1.049673	 -0.174718
H	 -1.335629	 -1.461368	 0.700418
H	 -2.305435	 -0.092167	 1.209725

	symmetry c1
}
set optking {
	frozen_dihedral = ("
		8 4 7 11
	")
}

ee,wfn = optimize('scf', return_wfn=True)
oeprop( wfn, 'DIPOLE', 'QUADRUPOLE', 'MULLIKEN_CHARGES')
f=open( 'psi4out.xyz', 'w' )
f.write( "15  " )
f.write( str(ee) + "\n" )
f.write( MOL.save_string_xyz() )
f.close()
--------------------------------------------------------------------------

    Molecular point group: c1
  Charge       = 0
  Multiplicity = 1
  Basis Set: CC-PVTZ
  Basis Set:
  @DF-RHF Final Energy:  -232.22312017625524
    Total Energy =                       -232.2231201762551223
    Molecular point group: c1
  Basis Set: CC-PVTZ
  Basis Set:
  Basis Set: CC-PVTZ
  Basis Set:
  @DF-RHF Final Energy:  -232.22775520356905
    Total Energy =                       -232.2277552035690746
  Basis Set: CC-PVTZ
  Basis Set:
  Basis Set: CC-PVTZ
  Basis Set:
  @DF-RHF Final Energy:  -232.22882938587605
    Total Energy =                       -232.2288293858761676
  Basis Set: CC-PVTZ
  Basis Set:
  Basis Set: CC-PVTZ
  Basis Set:
  @DF-RHF Final Energy:  -232.22911776950548
    Total Energy =                       -232.2291177695051374
  Basis Set: CC-PVTZ
  Basis Set:
  Basis Set: CC-PVTZ
  Basis Set:
  @DF-RHF Final Energy:  -232.22916205484384
    Total Energy =                       -232.2291620548437550
  Basis Set: CC-PVTZ
  Basis Set:
  Basis Set: CC-PVTZ
  Basis Set:
  @DF-RHF Final Energy:  -232.22918052537668
    Total Energy =                       -232.2291805253767620
  Basis Set: CC-PVTZ
  Basis Set:
  Charge       = 0
  Multiplicity = 1
  Basis Set: CC-PVTZ
  Basis Set:

    Orbital Energies (a.u.)
    -----------------------

    Doubly Occupied:

       1A    -20.546235     2A    -11.266528     3A    -11.211625
       4A    -11.210553     5A    -11.197282     6A     -1.364251
       7A     -1.060094     8A     -0.971917     9A     -0.869781
      10A     -0.772018    11A     -0.707902    12A     -0.649505
      13A     -0.610376    14A     -0.571424    15A     -0.559778
      16A     -0.533928    17A     -0.511941    18A     -0.477908
      19A     -0.460669    20A     -0.451607    21A     -0.429574

  @DF-RHF Final Energy:  -232.22918337464569

   => Energetics <=

    Nuclear Repulsion Energy =            192.8713158855033498
    One-Electron Energy =                -697.3312073534208366
    Two-Electron Energy =                 272.2307080932717440
    DFT Exchange-Correlation Energy =       0.0000000000000000
    Empirical Dispersion Energy =           0.0000000000000000
    PCM Polarization Energy =               0.0000000000000000
    EFP Energy =                            0.0000000000000000
    Total Energy =                       -232.2291833746457428
    Molecular point group: c1
  Basis Set: CC-PVTZ
  Basis Set:

  -Total Gradient:
     Atom            X                  Y                   Z
    ------   -----------------  -----------------  -----------------
       1        0.000006489698     0.000000760413     0.000004600373
       2       -0.000028195061     0.000025179996    -0.000043008209
       3        0.000008779544    -0.000014089848     0.000062129910
       4       -0.000017703371    -0.002262814199     0.002085852958
       5        0.000027451246     0.000035427223    -0.000039139286
       6       -0.000054472676     0.000001217683     0.000033415671
       7       -0.000200518824     0.002338520985    -0.001911573416
       8        0.000091070976     0.001455287721    -0.001493876071
       9       -0.000010652024    -0.000005485571     0.000029717143
      10        0.000028083840     0.000028750379     0.000001525957
      11        0.000195626522    -0.001591742425     0.001231071028
      12       -0.000018503863    -0.000014984860     0.000002059277
      13        0.000001767157    -0.000010428575     0.000008912800
      14       -0.000002583828     0.000006293230    -0.000004518944
      15       -0.000026639338     0.000008107845     0.000032830812

  **** Optimization is complete! (in 7 steps) ****
    Final optimized geometry and variables:
    Molecular point group: c1

    Geometry (in Angstrom), charge = 0, multiplicity = 1:

    H            0.995915612684    -0.656043971456     2.223153060243
    O            0.962476143238    -0.610305040501     1.285503303728
    C            0.639870968836     0.694303243513     0.877549674285
    C            0.550926050028     0.748246585772    -0.636697527063
    H            1.414454003322     1.385270960294     1.200598575863
    H           -0.292698456245     1.018497315425     1.331781288100
    C           -0.671958463519     0.089473156969    -1.325761044558
    H            1.467248396932     0.325041966642    -1.031919620474
    H            0.573613361998     1.798054894536    -0.912755983628
    C           -1.563076346631    -0.811990487857    -0.470329834789
    H           -0.311878921615    -0.504189035938    -2.158201376791
    H           -1.292022542276     0.868773776128    -1.755568943094
    H           -2.373309730881    -1.201963536638    -1.076564205484
    H           -1.011897359528    -1.646762247323    -0.061800284700
    H           -2.011058723421    -0.273999846574     0.357368338690

  Mulliken Charges: (a.u.)
   Center  Symbol    Alpha    Beta     Spin     Total
       1     H     0.39540  0.39540  0.00000  0.20920
       2     O     4.20003  4.20003  0.00000 -0.40005
       3     C     2.98164  2.98164  0.00000  0.03672
       4     C     3.09443  3.09443  0.00000 -0.18886
       5     H     0.45973  0.45973  0.00000  0.08055
       6     H     0.46901  0.46901  0.00000  0.06198
       7     C     3.08760  3.08760  0.00000 -0.17519
       8     H     0.45031  0.45031  0.00000  0.09939
       9     H     0.45201  0.45201  0.00000  0.09599
      10     C     3.15096  3.15096  0.00000 -0.30193
      11     H     0.45227  0.45227  0.00000  0.09545
      12     H     0.45385  0.45385  0.00000  0.09230
      13     H     0.44890  0.44890  0.00000  0.10220
      14     H     0.44401  0.44401  0.00000  0.11199
      15     H     0.45986  0.45986  0.00000  0.08028

   Total alpha = 21.00000, Total beta = 21.00000, Total charge =  0.00000

*** Psi4 exiting successfully. Buy a developer a beer!
