  ==> Input File <==

--------------------------------------------------------------------------
set {
	reference rhf
	basis cc-pvtz
}

set_num_threads( 4 )
memory 2 gb

molecule MOL {
0 1

H	 -3.408124	 0.224699	 1.680340
C	 -3.425806	 -0.026452	 0.610997
C	 -2.653809	 0.914422	 -0.273689
O	 -4.030196	 -0.970214	 0.235053
C	 -1.216901	 1.136108	 0.207794
H	 -2.681110	 0.534937	 -1.286892
H	 -3.186392	 1.862787	 -0.257447
C	 -0.247837	 0.040196	 -0.230469
H	 -0.872882	 2.093195	 -0.169002
H	 -1.209325	 1.218376	 1.291938
C	 1.181757	 0.280428	 0.247371
H	 -0.259600	 -0.030819	 -1.314870
H	 -0.591284	 -0.923375	 0.136958
C	 2.151032	 -0.811012	 -0.202643
H	 1.515939	 1.247397	 -0.115449
H	 1.191514	 0.341223	 1.333422
C	 3.580021	 -0.656538	 0.320835
H	 2.170545	 -0.847575	 -1.289412
H	 1.766632	 -1.772905	 0.124928
C	 4.327657	 0.562694	 -0.213579
H	 4.138806	 -1.549270	 0.057813
H	 3.561991	 -0.620783	 1.406976
H	 4.355973	 0.557257	 -1.298551
H	 3.867136	 1.491650	 0.100501
H	 5.351524	 0.571613	 0.142204

	symmetry c1
}
set optking {
	frozen_dihedral = ("
		6 3 5 8
	")
}

ee = optimize('scf')
oeprop('DIPOLE', 'QUADRUPOLE', 'MULLIKEN_CHARGES')
f=open( 'psi4out.xyz', 'w' )
f.write( "25  " )
f.write( str(ee) + "\n" )
f.write( MOL.save_string_xyz() )
f.close()
--------------------------------------------------------------------------

    Molecular point group: c1
  Charge       = 0
  Multiplicity = 1
  Basis Set: CC-PVTZ
  Basis Set:
  @DF-RHF Final Energy:  -387.25956748453052
    Total Energy =                       -387.2595674845302938
    Molecular point group: c1
  Basis Set: CC-PVTZ
  Basis Set:
  Basis Set: CC-PVTZ
  Basis Set:
  @DF-RHF Final Energy:  -387.25964257940859
    Total Energy =                       -387.2596425794088191
  Basis Set: CC-PVTZ
  Basis Set:
  Basis Set: CC-PVTZ
  Basis Set:
  @DF-RHF Final Energy:  -387.25941415898592
    Total Energy =                       -387.2594141589856918
  Basis Set: CC-PVTZ
  Basis Set:
  Basis Set: CC-PVTZ
  Basis Set:
  @DF-RHF Final Energy:  -387.25968473340049
    Total Energy =                       -387.2596847334002632
  Basis Set: CC-PVTZ
  Basis Set:
  Basis Set: CC-PVTZ
  Basis Set:
  @DF-RHF Final Energy:  -387.25969271114019
    Total Energy =                       -387.2596927111396781
  Basis Set: CC-PVTZ
  Basis Set:
  Basis Set: CC-PVTZ
  Basis Set:
  @DF-RHF Final Energy:  -387.25969470516020
    Total Energy =                       -387.2596947051600864
  Basis Set: CC-PVTZ
  Basis Set:
  Basis Set: CC-PVTZ
  Basis Set:
  @DF-RHF Final Energy:  -387.25969593874800
    Total Energy =                       -387.2596959387479956
  Basis Set: CC-PVTZ
  Basis Set:
  Charge       = 0
  Multiplicity = 1
  Basis Set: CC-PVTZ
  Basis Set:

    Orbital Energies (a.u.)
    -----------------------

    Doubly Occupied:

       1A    -20.551808     2A    -11.320859     3A    -11.233773
       4A    -11.232973     5A    -11.221002     6A    -11.217155
       7A    -11.215945     8A    -11.214671     9A    -11.208643
      10A     -1.406702    11A     -1.104690    12A     -1.070543
      13A     -1.014409    14A     -0.943657    15A     -0.875509
      16A     -0.817650    17A     -0.791555    18A     -0.781067
      19A     -0.669578    20A     -0.663875    21A     -0.634878
      22A     -0.625833    23A     -0.604165    24A     -0.591787
      25A     -0.577355    26A     -0.552544    27A     -0.533574
      28A     -0.527425    29A     -0.511686    30A     -0.497107
      31A     -0.489992    32A     -0.480470    33A     -0.464848
      34A     -0.458977    35A     -0.442451    36A     -0.411851

  @DF-RHF Final Energy:  -387.25969679695476

   => Energetics <=

    Nuclear Repulsion Energy =            439.0248568186257785
    One-Electron Energy =               -1394.6470910576626920
    Two-Electron Energy =                 568.3625374420822709
    DFT Exchange-Correlation Energy =       0.0000000000000000
    Empirical Dispersion Energy =           0.0000000000000000
    PCM Polarization Energy =               0.0000000000000000
    EFP Energy =                            0.0000000000000000
    Total Energy =                       -387.2596967969546995
    Molecular point group: c1
  Basis Set: CC-PVTZ
  Basis Set:

  -Total Gradient:
     Atom            X                  Y                   Z
    ------   -----------------  -----------------  -----------------
       1        0.000018892169    -0.000016197318    -0.000017680385
       2       -0.000076286427     0.000028667020    -0.000001260450
       3        0.000051310567     0.003462882582    -0.001874297454
       4        0.000026657722    -0.000011992138     0.000017755150
       5       -0.000492099314    -0.001976965204     0.002536724391
       6        0.000086549041    -0.002445421081     0.000990755217
       7       -0.000001614252     0.000003824815    -0.000002089150
       8        0.000395208839     0.000951661159    -0.001627556563
       9       -0.000009483333    -0.000019574420    -0.000013891834
      10       -0.000002638241     0.000016394596     0.000017946674
      11        0.000001957350     0.000011042660    -0.000045998140
      12        0.000021666714    -0.000005725667    -0.000001526470
      13       -0.000013604407     0.000008908285    -0.000004287470
      14       -0.000011579891    -0.000008642265     0.000018140663
      15        0.000007784781     0.000005934085     0.000002154672
      16        0.000004862153    -0.000005167449    -0.000008513861
      17        0.000002460606    -0.000010328556     0.000004532947
      18       -0.000002471168     0.000006620279     0.000007188933
      19       -0.000010058220    -0.000004255187    -0.000003264518
      20       -0.000004723709     0.000005464618     0.000002615199
      21       -0.000001426883     0.000002673764    -0.000002670318
      22        0.000009362853    -0.000004537288     0.000003054324
      23        0.000003322932    -0.000003498893     0.000003225060
      24       -0.000001886727     0.000004872854    -0.000004414088
      25       -0.000002163168     0.000003358749     0.000003357471

  **** Optimization is complete! (in 8 steps) ****
    Final optimized geometry and variables:
    Molecular point group: c1

    Geometry (in Angstrom), charge = 0, multiplicity = 1:

    H           -3.387507719013     0.201822170362     1.611815179447
    C           -3.365324838339    -0.085697206816     0.551930292100
    C           -2.642724935395     0.877637766921    -0.352089497111
    O           -3.885627760302    -1.087085753125     0.199897092666
    C           -1.197670246176     1.120560467626     0.104087949815
    H           -2.679598179083     0.475604028146    -1.355948857472
    H           -3.198685992397     1.810958292497    -0.328406424373
    C           -0.234042857763     0.017436348851    -0.328059738801
    H           -0.857563385815     2.065483530582    -0.305465487028
    H           -1.171212018512     1.235927757097     1.184848877122
    C            1.194599156070     0.245940932802     0.157788343193
    H           -0.240907388831    -0.049090264013    -1.412520598245
    H           -0.589045068840    -0.943526454915     0.035188737006
    C            2.159164346708    -0.847757585474    -0.296884911763
    H            1.536419952905     1.213913401273    -0.195473430121
    H            1.200052458117     0.297471759781     1.244299067986
    C            3.585178303746    -0.709789636885     0.239057546167
    H            2.186861387956    -0.872411299000    -1.383846409706
    H            1.764974743997    -1.810183545377     0.017125282824
    C            4.344791539427     0.511277550970    -0.273862225473
    H            4.139985684611    -1.602790509650    -0.031409281486
    H            3.559202694927    -0.688010568516     1.325388996520
    H            4.381262408301     0.519667497460    -1.358583261413
    H            3.888002697047     1.439148296524     0.048785982344
    H            5.365992180244     0.508799156322     0.089625682084

  Mulliken Charges: (a.u.)
   Center  Symbol    Alpha    Beta     Spin     Total
       1     H     0.46597  0.46597  0.00000  0.06806
       2     C     2.90397  2.90397  0.00000  0.19207
       3     C     3.08862  3.08862  0.00000 -0.17724
       4     O     4.16557  4.16557  0.00000 -0.33115
       5     C     3.11510  3.11510  0.00000 -0.23021
       6     H     0.44405  0.44405  0.00000  0.11190
       7     H     0.43963  0.43963  0.00000  0.12075
       8     C     3.08824  3.08824  0.00000 -0.17648
       9     H     0.44368  0.44368  0.00000  0.11264
      10     H     0.45096  0.45096  0.00000  0.09809
      11     C     3.09300  3.09300  0.00000 -0.18601
      12     H     0.45075  0.45075  0.00000  0.09850
      13     H     0.44719  0.44719  0.00000  0.10561
      14     C     3.09566  3.09566  0.00000 -0.19132
      15     H     0.45209  0.45209  0.00000  0.09581
      16     H     0.45407  0.45407  0.00000  0.09186
      17     C     3.09063  3.09063  0.00000 -0.18126
      18     H     0.45325  0.45325  0.00000  0.09349
      19     H     0.44765  0.44765  0.00000  0.10469
      20     C     3.15270  3.15270  0.00000 -0.30540
      21     H     0.44769  0.44769  0.00000  0.10462
      22     H     0.45460  0.45460  0.00000  0.09079
      23     H     0.45464  0.45464  0.00000  0.09072
      24     H     0.45437  0.45437  0.00000  0.09125
      25     H     0.44590  0.44590  0.00000  0.10821

   Total alpha = 36.00000, Total beta = 36.00000, Total charge = -0.00000
