                              Psi4 1.0.54 Driver

  ==> Input File <==

--------------------------------------------------------------------------
set {
	reference rhf
	basis cc-pvtz
}

set_num_threads( 4 )
memory 2 gb

molecule MOL {
0 1

H	 2.462485	 -2.216993	 0.000000
O	 2.777472	 -1.330706	 0.000000
C	 1.763288	 -0.447523	 0.000000
C	 0.472118	 -0.955461	 0.000000
C	 1.968279	 0.915685	 -0.000000
H	 0.335205	 -2.018669	 0.000000
C	 -0.605105	 -0.099341	 0.000000
H	 2.952971	 1.334826	 -0.000000
C	 0.864225	 1.745044	 -0.000000
H	 -1.599326	 -0.500929	 0.000000
C	 -0.424635	 1.273748	 0.000000
N	 1.089915	 3.194824	 -0.000000
H	 -1.251089	 1.950281	 -0.000000
O	 2.213427	 3.575343	 -0.000000
O	 0.137278	 3.898516	 -0.000000

	symmetry c1
}
set optking {
	frozen_dihedral = ("
		4 3 2 1
	")
}

ee,wfn = optimize('scf', return_wfn=True)
oeprop( wfn, 'DIPOLE', 'QUADRUPOLE', 'MULLIKEN_CHARGES')
f=open( 'psi4out.xyz', 'w' )
f.write( "15  " )
f.write( str(ee) + "\n" )
f.write( MOL.save_string_xyz() )
f.close()
--------------------------------------------------------------------------

    Molecular point group: c1
  Charge       = 0
  Multiplicity = 1
  Basis Set: CC-PVTZ
  Basis Set:
  @DF-RHF Final Energy:  -509.21598590020693
    Total Energy =                       -509.2159859002067606
    Molecular point group: c1
  Basis Set: CC-PVTZ
  Basis Set:
  Basis Set: CC-PVTZ
  Basis Set:
  @DF-RHF Final Energy:  -509.21810922492642
    Total Energy =                       -509.2181092249264793
  Basis Set: CC-PVTZ
  Basis Set:
  Basis Set: CC-PVTZ
  Basis Set:
  @DF-RHF Final Energy:  -509.21829336271412
    Total Energy =                       -509.2182933627144621
  Basis Set: CC-PVTZ
  Basis Set:
  Basis Set: CC-PVTZ
  Basis Set:
  @DF-RHF Final Energy:  -509.21832463885335
    Total Energy =                       -509.2183246388532325
  Basis Set: CC-PVTZ
  Basis Set:
  Basis Set: CC-PVTZ
  Basis Set:
  @DF-RHF Final Energy:  -509.21613940036360
    Total Energy =                       -509.2161394003637724
  Basis Set: CC-PVTZ
  Basis Set:
  Basis Set: CC-PVTZ
  Basis Set:
  @DF-RHF Final Energy:  -509.21828406545836
    Total Energy =                       -509.2182840654584197
  Basis Set: CC-PVTZ
  Basis Set:
  Charge       = 0
  Multiplicity = 1
  Basis Set: CC-PVTZ
  Basis Set:

    Orbital Energies (a.u.)
    -----------------------

    Doubly Occupied:

       1A    -20.608624     2A    -20.592215     3A    -20.591995
       4A    -15.847858     5A    -11.327920     6A    -11.307630
       7A    -11.264743     8A    -11.261352     9A    -11.258915
      10A    -11.257052    11A     -1.641869    12A     -1.441358
      13A     -1.424239    14A     -1.201861    15A     -1.094441
      16A     -1.049367    17A     -0.964991    18A     -0.866290
      19A     -0.851820    20A     -0.800453    21A     -0.741026
      22A     -0.738001    23A     -0.721816    24A     -0.712501
      25A     -0.682347    26A     -0.636278    27A     -0.621810
      28A     -0.601097    29A     -0.567030    30A     -0.539935
      31A     -0.519794    32A     -0.492143    33A     -0.491747
      34A     -0.457325    35A     -0.381368    36A     -0.345109

  @DF-RHF Final Energy:  -509.21833171487231

   => Energetics <=

    Nuclear Repulsion Energy =            504.6481375826764406
    One-Electron Energy =               -1695.9242862381399846
    Two-Electron Energy =                 682.0578169405915787
    DFT Exchange-Correlation Energy =       0.0000000000000000
    Empirical Dispersion Energy =           0.0000000000000000
    PCM Polarization Energy =               0.0000000000000000
    EFP Energy =                            0.0000000000000000
    Total Energy =                       -509.2183317148720789
    Molecular point group: c1
  Basis Set: CC-PVTZ
  Basis Set:

  -Total Gradient:
     Atom            X                  Y                   Z
    ------   -----------------  -----------------  -----------------
       1       -0.000004763858     0.000022427788     0.000000159721
       2       -0.000024686821     0.000025789329     0.000000849925
       3        0.000001864483     0.000022545192    -0.000001437444
       4        0.000000339680    -0.000029487894     0.000000074577
       5        0.000077666611     0.000074716291    -0.000000990629
       6       -0.000012843085     0.000042725655    -0.000000301098
       7        0.000050369745    -0.000089369855     0.000002293348
       8        0.000022212407    -0.000082413569    -0.000000152939
       9       -0.000165478488    -0.000024414433     0.000006891928
      10       -0.000035703230     0.000029662198     0.000000166832
      11        0.000098773881     0.000110086681    -0.000003735535
      12        0.000145588003    -0.000151426444    -0.000017521489
      13       -0.000033454975    -0.000062816268     0.000000376022
      14       -0.000244535957     0.000043535937     0.000006759340
      15        0.000124651607     0.000068439397     0.000006567441

  **** Optimization is complete! (in 7 steps) ****
    Final optimized geometry and variables:
    Molecular point group: c1

    Geometry (in Angstrom), charge = 0, multiplicity = 1:

    H            1.508484444037    -3.400778544241     0.000053099196
    O            1.750261062278    -2.492113240284     0.000009853530
    C            0.666942740437    -1.695153616628    -0.000004249391
    C           -0.625307714136    -2.187554293445     0.000030994336
    C            0.886909333516    -0.329457702308    -0.000035972969
    H           -0.794394285866    -3.248641598239     0.000060740322
    C           -1.699499509975    -1.317864323504     0.000028165532
    H            1.882384239825     0.057990692014    -0.000051070024
    C           -0.204776808184     0.505351285390    -0.000028747411
    H           -2.697013225092    -1.711289491219     0.000057086401
    C           -1.504903870050     0.046676339519    -0.000021305743
    N            0.031192773882     1.954810237104    -0.000030319116
    H           -2.323421771957     0.732483844098    -0.000020241513
    O            1.155178659753     2.329134206784     0.000069183143
    O           -0.918948131184     2.663282954931    -0.000035425643

  Mulliken Charges: (a.u.)
   Center  Symbol    Alpha    Beta     Spin     Total
       1     H     0.38631  0.38631  0.00000  0.22738
       2     O     4.16646  4.16646  0.00000 -0.33291
       3     C     2.84787  2.84787  0.00000  0.30426
       4     C     3.12165  3.12165  0.00000 -0.24329
       5     C     3.10788  3.10788  0.00000 -0.21577
       6     H     0.42877  0.42877  0.00000  0.14246
       7     C     3.06262  3.06262  0.00000 -0.12523
       8     H     0.39444  0.39444  0.00000  0.21112
       9     C     2.96870  2.96870  0.00000  0.06260
      10     H     0.41601  0.41601  0.00000  0.16798
      11     C     3.09784  3.09784  0.00000 -0.19569
      12     N     3.25123  3.25123  0.00000  0.49753
      13     H     0.39952  0.39952  0.00000  0.20095
      14     O     4.17459  4.17459  0.00000 -0.34918
      15     O     4.17611  4.17611  0.00000 -0.35223

   Total alpha = 36.00000, Total beta = 36.00000, Total charge =  0.00000

*** Psi4 exiting successfully. Buy a developer a beer!
