                              Psi4 1.0.54 Driver

  ==> Input File <==

--------------------------------------------------------------------------
set {
	reference rhf
	basis cc-pvtz
}

set_num_threads( 4 )
memory 2 gb

molecule MOL {
0 1

H	 2.489523	 0.078908	 -1.746545
O	 1.646139	 0.448291	 -1.561304
C	 1.398976	 0.419707	 -0.179237
C	 0.027642	 1.012027	 0.090274
H	 2.147663	 1.002883	 0.350990
H	 1.456104	 -0.598629	 0.195184
C	 -1.138737	 0.285728	 -0.581921
H	 0.037953	 2.045020	 -0.241880
H	 -0.122850	 1.029451	 1.166964
C	 -1.933983	 -0.631436	 0.343653
H	 -0.763151	 -0.285569	 -1.422081
H	 -1.808359	 1.035291	 -0.992333
H	 -2.789188	 -1.049673	 -0.174718
H	 -1.335629	 -1.461368	 0.700418
H	 -2.305435	 -0.092167	 1.209725

	symmetry c1
}
set optking {
	frozen_dihedral = ("
		8 4 7 11
	")
}

ee,wfn = optimize('scf', return_wfn=True)
oeprop( wfn, 'DIPOLE', 'QUADRUPOLE', 'MULLIKEN_CHARGES')
f=open( 'psi4out.xyz', 'w' )
f.write( "15  " )
f.write( str(ee) + "\n" )
f.write( MOL.save_string_xyz() )
f.close()
--------------------------------------------------------------------------

    Molecular point group: c1
  Charge       = 0
  Multiplicity = 1
  Basis Set: CC-PVTZ
  Basis Set:
  @DF-RHF Final Energy:  -232.23429454539988
    Total Energy =                       -232.2342945453999050
    Molecular point group: c1
  Basis Set: CC-PVTZ
  Basis Set:
  Basis Set: CC-PVTZ
  Basis Set:
  @DF-RHF Final Energy:  -232.23484920412059
    Total Energy =                       -232.2348492041205645
  Basis Set: CC-PVTZ
  Basis Set:
  Basis Set: CC-PVTZ
  Basis Set:
  @DF-RHF Final Energy:  -232.23503345064879
    Total Energy =                       -232.2350334506488707
  Basis Set: CC-PVTZ
  Basis Set:
  Basis Set: CC-PVTZ
  Basis Set:
  @DF-RHF Final Energy:  -232.23503967053193
    Total Energy =                       -232.2350396705318190
  Basis Set: CC-PVTZ
  Basis Set:
  Basis Set: CC-PVTZ
  Basis Set:
  @DF-RHF Final Energy:  -232.23504235470637
    Total Energy =                       -232.2350423547064224
  Basis Set: CC-PVTZ
  Basis Set:
  Charge       = 0
  Multiplicity = 1
  Basis Set: CC-PVTZ
  Basis Set:

    Orbital Energies (a.u.)
    -----------------------

    Doubly Occupied:

       1A    -20.546542     2A    -11.266601     3A    -11.210441
       4A    -11.207744     5A    -11.204562     6A     -1.364564
       7A     -1.065087     8A     -0.973669     9A     -0.862532
      10A     -0.783995    11A     -0.706490    12A     -0.650690
      13A     -0.604931    14A     -0.581332    15A     -0.562512
      16A     -0.536304    17A     -0.504925    18A     -0.476576
      19A     -0.469732    20A     -0.454966    21A     -0.432636

  @DF-RHF Final Energy:  -232.23504248868747

   => Energetics <=

    Nuclear Repulsion Energy =            189.8725428639084214
    One-Electron Energy =                -691.2815051013677703
    Two-Electron Energy =                 269.1739197487717661
    DFT Exchange-Correlation Energy =       0.0000000000000000
    Empirical Dispersion Energy =           0.0000000000000000
    PCM Polarization Energy =               0.0000000000000000
    EFP Energy =                            0.0000000000000000
    Total Energy =                       -232.2350424886876112
    Molecular point group: c1
  Basis Set: CC-PVTZ
  Basis Set:

  -Total Gradient:
     Atom            X                  Y                   Z
    ------   -----------------  -----------------  -----------------
       1       -0.000001327330     0.000009482342    -0.000001618471
       2        0.000019010120     0.000000405115    -0.000004532661
       3       -0.000003549675    -0.000027684760    -0.000004698697
       4        0.002326980299    -0.001536607486    -0.002597335357
       5        0.000006403294    -0.000000708806    -0.000001878552
       6        0.000003391348    -0.000007005009     0.000005910339
       7       -0.001018256336     0.003159965913    -0.001695048209
       8       -0.001798472388     0.000814199164     0.002418088092
       9       -0.000008409776    -0.000001965315     0.000001154877
      10       -0.000013839466    -0.000008787279     0.000011229789
      11        0.000484504474    -0.002409864369     0.001854018963
      12        0.000007300671     0.000005260441     0.000003854658
      13       -0.000003680197     0.000002109250     0.000003833184
      14        0.000004645337    -0.000003434804    -0.000003245353
      15       -0.000004700377     0.000004635602     0.000010267398

  **** Optimization is complete! (in 6 steps) ****
    Final optimized geometry and variables:
    Molecular point group: c1

    Geometry (in Angstrom), charge = 0, multiplicity = 1:

    H            2.405056084770    -0.229872310502    -1.391960966221
    O            1.598548991803     0.204183522963    -1.184333352589
    C            1.323259089964     0.083395226028     0.187048222871
    C           -0.019942947794     0.723042645409     0.478226631886
    H            2.095860899531     0.576178477094     0.771666097714
    H            1.308091117600    -0.964810531908     0.479893679247
    C           -1.214269740488    -0.004763582973    -0.161571184989
    H            0.009897124540     1.758620153493     0.159084370311
    H           -0.147179554075     0.750910784870     1.557235940815
    C           -1.929424206836    -0.945045541083     0.806924823714
    H           -0.865710330661    -0.580914393738    -1.010096307002
    H           -1.924889062057     0.718272245022    -0.544105890200
    H           -2.737751726848    -1.474253042351     0.314940410847
    H           -1.248687984436    -1.688451650962     1.209955401292
    H           -2.351755867447    -0.399123469680     1.644188078460

  Mulliken Charges: (a.u.)
   Center  Symbol    Alpha    Beta     Spin     Total
       1     H     0.39535  0.39535  0.00000  0.20930
       2     O     4.19910  4.19910  0.00000 -0.39820
       3     C     2.97307  2.97307  0.00000  0.05386
       4     C     3.09299  3.09299  0.00000 -0.18598
       5     H     0.46445  0.46445  0.00000  0.07111
       6     H     0.47337  0.47337  0.00000  0.05325
       7     C     3.09051  3.09051  0.00000 -0.18103
       8     H     0.44669  0.44669  0.00000  0.10662
       9     H     0.45670  0.45670  0.00000  0.08661
      10     C     3.14845  3.14845  0.00000 -0.29691
      11     H     0.44671  0.44671  0.00000  0.10659
      12     H     0.44953  0.44953  0.00000  0.10093
      13     H     0.44910  0.44910  0.00000  0.10179
      14     H     0.45758  0.45758  0.00000  0.08484
      15     H     0.45639  0.45639  0.00000  0.08722

   Total alpha = 21.00000, Total beta = 21.00000, Total charge =  0.00000

*** Psi4 exiting successfully. Buy a developer a beer!
