  ==> Input File <==

--------------------------------------------------------------------------
set {
	reference rhf
	basis 6-31G*
}

set_num_threads( 1 )
memory 2 gb

molecule MOL {
0 1

O	 3.225979	 0.970355	 -0.599647
C	 2.701189	 0.057885	 -0.047330
C	 1.245376	 -0.013843	 0.345420
O	 3.347903	 -1.046386	 0.304773
C	 0.383787	 -0.751343	 -0.677261
H	 1.202458	 -0.479166	 1.324615
H	 0.898121	 1.006591	 0.486220
C	 -1.112267	 -0.741881	 -0.345254
H	 0.733687	 -1.775175	 -0.769221
H	 0.534711	 -0.295125	 -1.649634
C	 -1.498294	 -1.519402	 0.916313
H	 -1.647791	 -1.165388	 -1.191764
H	 -1.457076	 0.287169	 -0.254845
C	 -3.010487	 -1.572287	 1.143194
H	 -1.109951	 -2.534175	 0.843899
H	 -1.027655	 -1.073804	 1.789762
C	 -3.407679	 -2.342329	 2.403910
H	 -3.488241	 -2.029546	 0.278381
H	 -3.401045	 -0.557719	 1.204973
C	 -4.919591	 -2.393722	 2.621119
H	 -3.017337	 -3.356094	 2.344282
H	 -2.934586	 -1.884127	 3.269943
H	 -5.169452	 -2.945769	 3.521908
H	 -5.419206	 -2.878369	 1.787034
H	 -5.335796	 -1.395009	 2.719197
C	 4.728119	 -1.109107	 -0.004993
H	 4.882018	 -1.033965	 -1.071845
H	 5.068212	 -2.067527	 0.355250
H	 5.265056	 -0.311663	 0.488280

	symmetry c1
}
set optking {
	frozen_dihedral = ("
		21 17 14 11,
		17 14 11 15,
		15 11 8 5,
		6 3 5 9,
		11 8 5 9,
		2 4 26 27,
		1 2 4 26
	")
}

ee = energy('scf')
oeprop('DIPOLE', 'QUADRUPOLE', 'MULLIKEN_CHARGES')
f=open( 'psi4out.xyz', 'w' )
f.write( "29  " )
f.write( str(ee) + "\n" )
f.write( MOL.save_string_xyz() )
f.close()
--------------------------------------------------------------------------

    Molecular point group: c1

    Geometry (in Angstrom), charge = 0, multiplicity = 1:

       Center              X                  Y                   Z               Mass
    ------------   -----------------  -----------------  -----------------  -----------------
           O          3.030406881774     1.922282511163    -1.150725830799    15.994914619560
           C          2.505616881774     1.009812511163    -0.598408830799    12.000000000000
           C          1.049803881774     0.938084511163    -0.205658830799    12.000000000000
           O          3.152330881774    -0.094458488837    -0.246305830799    15.994914619560
           C          0.188214881774     0.200584511163    -1.228339830799    12.000000000000
           H          1.006885881774     0.472761511163     0.773536169201     1.007825032070
           H          0.702548881774     1.958518511163    -0.064858830799     1.007825032070
           C         -1.307839118226     0.210046511163    -0.896332830799    12.000000000000
           H          0.538114881774    -0.823247488837    -1.320299830799     1.007825032070
           H          0.339138881774     0.656802511163    -2.200712830799     1.007825032070
           C         -1.693866118226    -0.567474488837     0.365234169201    12.000000000000
           H         -1.843363118226    -0.213460488837    -1.742842830799     1.007825032070
           H         -1.652648118226     1.239096511163    -0.805923830799     1.007825032070
           C         -3.206059118226    -0.620359488837     0.592115169201    12.000000000000
           H         -1.305523118226    -1.582247488837     0.292820169201     1.007825032070
           H         -1.223227118226    -0.121876488837     1.238683169201     1.007825032070
           C         -3.603251118226    -1.390401488837     1.852831169201    12.000000000000
           H         -3.683813118226    -1.077618488837    -0.272697830799     1.007825032070
           H         -3.596617118226     0.394208511163     0.653894169201     1.007825032070
           C         -5.115163118226    -1.441794488837     2.070040169201    12.000000000000
           H         -3.212909118226    -2.404166488837     1.793203169201     1.007825032070
           H         -3.130158118226    -0.932199488837     2.718864169201     1.007825032070
           H         -5.365024118226    -1.993841488837     2.970829169201     1.007825032070
           H         -5.614778118226    -1.926441488837     1.235955169201     1.007825032070
           H         -5.531368118226    -0.443081488837     2.168118169201     1.007825032070
           C          4.532546881774    -0.157179488837    -0.556071830799    12.000000000000
           H          4.686445881774    -0.082037488837    -1.622923830799     1.007825032070
           H          4.872639881774    -1.115599488837    -0.195828830799     1.007825032070
           H          5.069483881774     0.640264511163    -0.062798830799     1.007825032070

  Charge       = 0
  Multiplicity = 1
  Basis Set: 6-31G*
  Basis Set:

    Orbital Energies (a.u.)
    -----------------------

    Doubly Occupied:

       1A    -20.603637     2A    -20.543260     3A    -11.370474
       4A    -11.280096     5A    -11.232586     6A    -11.229536
       7A    -11.222219     8A    -11.218248     9A    -11.217192
      10A    -11.216209    11A    -11.210081    12A     -1.468248
      13A     -1.360936    14A     -1.101785    15A     -1.069231
      16A     -1.020017    17A     -0.975931    18A     -0.930598
      19A     -0.865293    20A     -0.800995    21A     -0.791718
      22A     -0.772203    23A     -0.697119    24A     -0.678280
      25A     -0.672727    26A     -0.652572    27A     -0.626321
      28A     -0.607448    29A     -0.591469    30A     -0.578678
      31A     -0.569089    32A     -0.553875    33A     -0.537037
      34A     -0.531022    35A     -0.518833    36A     -0.516197
      37A     -0.500120    38A     -0.480430    39A     -0.473288
      40A     -0.464611    41A     -0.461237    42A     -0.453712
      43A     -0.447288    44A     -0.427702

  @DF-RHF Final Energy:  -501.04216693580645

   => Energetics <=

    Nuclear Repulsion Energy =            612.4793004553811215
    One-Electron Energy =               -1895.9642722600719935
    Two-Electron Energy =                 782.4428048688880608
    DFT Exchange-Correlation Energy =       0.0000000000000000
    Empirical Dispersion Energy =           0.0000000000000000
    PCM Polarization Energy =               0.0000000000000000
    EFP Energy =                            0.0000000000000000
    Total Energy =                       -501.0421669358026975

  Mulliken Charges: (a.u.)
   Center  Symbol    Alpha    Beta     Spin     Total
       1     O     4.28471  4.28471  0.00000 -0.56942
       2     C     2.61759  2.61759  0.00000  0.76483
       3     C     3.19630  3.19630  0.00000 -0.39260
       4     O     4.30216  4.30216  0.00000 -0.60432
       5     C     3.16517  3.16517  0.00000 -0.33034
       6     H     0.40266  0.40266  0.00000  0.19468
       7     H     0.40177  0.40177  0.00000  0.19646
       8     C     3.15548  3.15548  0.00000 -0.31096
       9     H     0.41183  0.41183  0.00000  0.17633
      10     H     0.40869  0.40869  0.00000  0.18261
      11     C     3.15485  3.15485  0.00000 -0.30970
      12     H     0.41808  0.41808  0.00000  0.16385
      13     H     0.42038  0.42038  0.00000  0.15924
      14     C     3.15073  3.15073  0.00000 -0.30147
      15     H     0.42225  0.42225  0.00000  0.15551
      16     H     0.42215  0.42215  0.00000  0.15571
      17     C     3.15156  3.15156  0.00000 -0.30312
      18     H     0.42347  0.42347  0.00000  0.15305
      19     H     0.42339  0.42339  0.00000  0.15323
      20     C     3.23944  3.23944  0.00000 -0.47889
      21     H     0.42277  0.42277  0.00000  0.15445
      22     H     0.42301  0.42301  0.00000  0.15398
      23     H     0.41898  0.41898  0.00000  0.16203
      24     H     0.42159  0.42159  0.00000  0.15682
      25     H     0.42154  0.42154  0.00000  0.15691
      26     C     3.09255  3.09255  0.00000 -0.18510
      27     H     0.40916  0.40916  0.00000  0.18168
      28     H     0.40890  0.40890  0.00000  0.18220
      29     H     0.40883  0.40883  0.00000  0.18234

   Total alpha = 44.00000, Total beta = 44.00000, Total charge =  0.00000
