  ==> Input File <==

--------------------------------------------------------------------------
set {
	reference rhf
	basis cc-pvtz
}

set_num_threads( 4 )
memory 2 gb

molecule MOL {
0 1

H	 -1.038549	 0.875664	 -0.442956
N	 -0.712187	 0.000026	 -0.093397
C	 0.734067	 -0.000020	 0.038424
H	 -1.011984	 -0.702767	 -0.734995
H	 1.140372	 -0.872115	 -0.458226
H	 1.140363	 0.872301	 -0.457869
H	 1.095085	 -0.000244	 1.065614

	symmetry c1
}
set optking {
	frozen_dihedral = ("
		1 2 3 7
	")
}

ee = optimize('scf')
oeprop('DIPOLE', 'QUADRUPOLE', 'MULLIKEN_CHARGES')
f=open( 'psi4out.xyz', 'w' )
f.write( "7  " )
f.write( str(ee) + "\n" )
f.write( MOL.save_string_xyz() )
f.close()
--------------------------------------------------------------------------

    Molecular point group: c1
  Charge       = 0
  Multiplicity = 1
  Basis Set: CC-PVTZ
  Basis Set:
  @DF-RHF Final Energy:   -95.24959780232723
    Total Energy =                        -95.2495978023272301
    Molecular point group: c1
  Basis Set: CC-PVTZ
  Basis Set:
  Basis Set: CC-PVTZ
  Basis Set:
  @DF-RHF Final Energy:   -95.25054615475158
    Total Energy =                        -95.2505461547515324
  Basis Set: CC-PVTZ
  Basis Set:
  Basis Set: CC-PVTZ
  Basis Set:
  @DF-RHF Final Energy:   -95.25067356995405
    Total Energy =                        -95.2506735699540741
  Basis Set: CC-PVTZ
  Basis Set:
  Basis Set: CC-PVTZ
  Basis Set:
  @DF-RHF Final Energy:   -95.25067492720061
    Total Energy =                        -95.2506749272005635
  Basis Set: CC-PVTZ
  Basis Set:
  Charge       = 0
  Multiplicity = 1
  Basis Set: CC-PVTZ
  Basis Set:

    Orbital Energies (a.u.)
    -----------------------

    Doubly Occupied:

       1A    -15.526960     2A    -11.235675     3A     -1.169681
       4A     -0.898105     5A     -0.665016     6A     -0.601096
       7A     -0.560210     8A     -0.517066     9A     -0.384863

  @DF-RHF Final Energy:   -95.25067516330401

   => Energetics <=

    Nuclear Repulsion Energy =             42.3022150931190382
    One-Electron Energy =                -211.9884345761905138
    Two-Electron Energy =                  74.4355443197674731
    DFT Exchange-Correlation Energy =       0.0000000000000000
    Empirical Dispersion Energy =           0.0000000000000000
    PCM Polarization Energy =               0.0000000000000000
    EFP Energy =                            0.0000000000000000
    Total Energy =                        -95.2506751633040096
    Molecular point group: c1
  Basis Set: CC-PVTZ
  Basis Set:

  -Total Gradient:
     Atom            X                  Y                   Z
    ------   -----------------  -----------------  -----------------
       1        0.000103493152    -0.000570074623    -0.001618517234
       2       -0.000114120827     0.000312669028     0.002015562494
       3       -0.000010283960     0.001831889715    -0.000368362634
       4       -0.000000493098     0.000006151033     0.000001265506
       5        0.000014563829    -0.000002215237    -0.000000859112
       6       -0.000005442764    -0.000004345980    -0.000006067163
       7        0.000012283669    -0.001574073936    -0.000023021857

  **** Optimization is complete! (in 5 steps) ****
    Final optimized geometry and variables:
    Molecular point group: c1

    Geometry (in Angstrom), charge = 0, multiplicity = 1:

    H           -1.071067195346     0.861379501201    -0.353733027781
    N           -0.721339275036    -0.010157932775    -0.021605611708
    C            0.734039274830     0.001025149632     0.081932715832
    H           -1.031398409101    -0.707158280585    -0.661850328113
    H            1.157883247396    -0.881338692738    -0.382664221571
    H            1.183465481285     0.864198429071    -0.397597163238
    H            1.043577532921    -0.008149362015     1.120481866523

  Mulliken Charges: (a.u.)
   Center  Symbol    Alpha    Beta     Spin     Total
       1     H     0.42839  0.42839  0.00000  0.14322
       2     N     3.68661  3.68661  0.00000 -0.37322
       3     C     3.06930  3.06930  0.00000 -0.13861
       4     H     0.42776  0.42776  0.00000  0.14448
       5     H     0.46162  0.46162  0.00000  0.07676
       6     H     0.46550  0.46550  0.00000  0.06900
       7     H     0.46082  0.46082  0.00000  0.07837

   Total alpha =  9.00000, Total beta =  9.00000, Total charge =  0.00000
