  ==> Input File <==

--------------------------------------------------------------------------
set {
	reference rhf
	basis cc-pvtz
}

set_num_threads( 4 )
memory 2 gb

molecule MOL {
0 1

H	 2.847118	 -0.419518	 0.071412
O	 2.011370	 -0.861388	 0.074744
C	 1.050374	 0.054877	 0.000135
C	 -0.318151	 -0.570512	 0.000144
O	 1.287047	 1.211859	 -0.057705
C	 -1.454884	 0.441630	 -0.000560
H	 -0.371613	 -1.223646	 -0.864985
H	 -0.371920	 -1.222758	 0.865929
C	 -2.822577	 -0.232186	 0.000063
H	 -1.359760	 1.084704	 -0.867077
H	 -1.359641	 1.085996	 0.864983
H	 -2.954352	 -0.858985	 -0.875745
H	 -3.615886	 0.505352	 0.000019
H	 -2.953878	 -0.858359	 0.876394

	symmetry c1
}
set optking {
	frozen_dihedral = ("
		2 3 4 7
	")
}

ee = optimize('scf')
oeprop('DIPOLE', 'QUADRUPOLE', 'MULLIKEN_CHARGES')
f=open( 'psi4out.xyz', 'w' )
f.write( "14  " )
f.write( str(ee) + "\n" )
f.write( MOL.save_string_xyz() )
f.close()
--------------------------------------------------------------------------

    Molecular point group: c1
  Charge       = 0
  Multiplicity = 1
  Basis Set: CC-PVTZ
  Basis Set:
  @DF-RHF Final Energy:  -306.00104067369460
    Total Energy =                       -306.0010406736943764
    Molecular point group: c1
  Basis Set: CC-PVTZ
  Basis Set:
  Basis Set: CC-PVTZ
  Basis Set:
  @DF-RHF Final Energy:  -306.00104222950210
    Total Energy =                       -306.0010422295021613
  Basis Set: CC-PVTZ
  Basis Set:
  Basis Set: CC-PVTZ
  Basis Set:
  @DF-RHF Final Energy:  -306.00103451269217
    Total Energy =                       -306.0010345126922857
  Basis Set: CC-PVTZ
  Basis Set:
  Charge       = 0
  Multiplicity = 1
  Basis Set: CC-PVTZ
  Basis Set:

    Orbital Energies (a.u.)
    -----------------------

    Doubly Occupied:

       1A    -20.604496     2A    -20.541058     3A    -11.374028
       4A    -11.239871     5A    -11.223892     6A    -11.215422
       7A     -1.478087     8A     -1.369620     9A     -1.084479
      10A     -0.980998    11A     -0.859255    12A     -0.792989
      13A     -0.704220    14A     -0.691924    15A     -0.670042
      16A     -0.617978    17A     -0.596889    18A     -0.574650
      19A     -0.546129    20A     -0.507070    21A     -0.492267
      22A     -0.485278    23A     -0.482088    24A     -0.447735

  @DF-RHF Final Energy:  -306.00104536630312

   => Energetics <=

    Nuclear Repulsion Energy =            240.4562398417949112
    One-Electron Energy =                -893.7536478011742247
    Two-Electron Energy =                 347.2963625930758553
    DFT Exchange-Correlation Energy =       0.0000000000000000
    Empirical Dispersion Energy =           0.0000000000000000
    PCM Polarization Energy =               0.0000000000000000
    EFP Energy =                            0.0000000000000000
    Total Energy =                       -306.0010453663035150
    Molecular point group: c1
  Basis Set: CC-PVTZ
  Basis Set:

  -Total Gradient:
     Atom            X                  Y                   Z
    ------   -----------------  -----------------  -----------------
       1       -0.000000445455    -0.000000829297    -0.000009128770
       2       -0.000001330110     0.000010868346     0.000135059193
       3       -0.000014023226     0.000022367403    -0.000131833556
       4        0.000078844419    -0.000171388776     0.000136048982
       5        0.000001911788    -0.000001554949    -0.000036409858
       6        0.000008471740    -0.000012363748    -0.000015480765
       7       -0.000075635613     0.000162091584    -0.000095798171
       8        0.000003169323    -0.000014049593     0.000021860569
       9       -0.000001479991     0.000001904863    -0.000000601979
      10       -0.000005241356     0.000006622553    -0.000002905048
      11        0.000004438276    -0.000004351063    -0.000001568373
      12        0.000002843400     0.000002070168     0.000000666553
      13       -0.000000184864    -0.000000098922    -0.000000678549
      14       -0.000001338325    -0.000001288567     0.000000769772

  **** Optimization is complete! (in 4 steps) ****
    Final optimized geometry and variables:
    Molecular point group: c1

    Geometry (in Angstrom), charge = 0, multiplicity = 1:

    H            2.847497877860    -0.419167263464     0.055575903687
    O            2.011921895778    -0.861238572256     0.068229897384
    C            1.050290777308     0.054742641143    -0.002024748644
    C           -0.318075001801    -0.571005049108     0.001732455500
    O            1.286444914721     1.211687283477    -0.062529095353
    C           -1.454649972322     0.441404646609    -0.003181039573
    H           -0.370650125728    -1.222279126643    -0.865247206940
    H           -0.373287982755    -1.223801109935     0.866511939116
    C           -2.822463853625    -0.232125608928    -0.006467252815
    H           -1.356306187569     1.084096450188    -0.869378069890
    H           -1.362396606830     1.086027442670     0.862741206066
    H           -2.951475517807    -0.859099981726    -0.882570370178
    H           -3.615598091913     0.505602007188    -0.009326459082
    H           -2.956764425951    -0.858055381008     0.869578040961

  Mulliken Charges: (a.u.)
   Center  Symbol    Alpha    Beta     Spin     Total
       1     H     0.38228  0.38228  0.00000  0.23544
       2     O     4.16006  4.16006  0.00000 -0.32011
       3     C     2.80535  2.80535  0.00000  0.38930
       4     C     3.10530  3.10530  0.00000 -0.21060
       5     O     4.19098  4.19098  0.00000 -0.38195
       6     C     3.07939  3.07939  0.00000 -0.15877
       7     H     0.43937  0.43937  0.00000  0.12126
       8     H     0.43847  0.43847  0.00000  0.12306
       9     C     3.15030  3.15030  0.00000 -0.30059
      10     H     0.44556  0.44556  0.00000  0.10887
      11     H     0.44685  0.44685  0.00000  0.10631
      12     H     0.45546  0.45546  0.00000  0.08908
      13     H     0.44510  0.44510  0.00000  0.10980
      14     H     0.45554  0.45554  0.00000  0.08892

   Total alpha = 24.00000, Total beta = 24.00000, Total charge = -0.00000
