  ==> Input File <==

--------------------------------------------------------------------------
set {
	reference rhf
	basis 6-31G*
}

set_num_threads( 4 )
memory 2 gb

molecule MOL {
0 1

H	 -2.798360	 -0.862255	 -0.071053
N	 -1.863561	 -0.715187	 0.256814
C	 -1.344686	 0.554728	 -0.219830
H	 -1.300452	 -1.461917	 -0.101532
C	 0.081427	 0.741154	 0.254071
H	 -1.362155	 0.656231	 -1.305829
H	 -1.952773	 1.354456	 0.191809
O	 0.874168	 -0.245412	 -0.342030
H	 0.444037	 1.730782	 -0.023037
H	 0.121165	 0.653424	 1.337565
C	 0.562369	 -0.505816	 -1.673398
H	 1.233695	 -1.278588	 -2.022459
H	 -0.462676	 -0.856101	 -1.780940
H	 0.691193	 0.379637	 -2.292419

	symmetry c1
}
set optking {
	frozen_dihedral = ("
		11 8 5 3
	")
}

ee = optimize('scf')
oeprop('DIPOLE', 'QUADRUPOLE', 'MULLIKEN_CHARGES')
f=open( 'psi4out.xyz', 'w' )
f.write( "14  " )
f.write( str(ee) + "\n" )
f.write( MOL.save_string_xyz() )
f.close()
--------------------------------------------------------------------------

    Molecular point group: c1
  Charge       = 0
  Multiplicity = 1
  Basis Set: 6-31G*
  Basis Set:
  @DF-RHF Final Energy:  -248.10634717738927
    Total Energy =                       -248.1063471773892957
    Molecular point group: c1
  Basis Set: 6-31G*
  Basis Set:
  Basis Set: 6-31G*
  Basis Set:
  @DF-RHF Final Energy:  -248.11225873572343
    Total Energy =                       -248.1122587357235716
  Basis Set: 6-31G*
  Basis Set:
  Basis Set: 6-31G*
  Basis Set:
  @DF-RHF Final Energy:  -248.11621996178755
    Total Energy =                       -248.1162199617876354
  Basis Set: 6-31G*
  Basis Set:
  Basis Set: 6-31G*
  Basis Set:
  @DF-RHF Final Energy:  -248.11681585518070
    Total Energy =                       -248.1168158551806755
  Basis Set: 6-31G*
  Basis Set:
  Basis Set: 6-31G*
  Basis Set:
  @DF-RHF Final Energy:  -248.11692082963719
    Total Energy =                       -248.1169208296370243
  Basis Set: 6-31G*
  Basis Set:
  Basis Set: 6-31G*
  Basis Set:
  @DF-RHF Final Energy:  -248.11693021188776
    Total Energy =                       -248.1169302118876203
  Basis Set: 6-31G*
  Basis Set:
  Basis Set: 6-31G*
  Basis Set:
  @DF-RHF Final Energy:  -248.11693154938212
    Total Energy =                       -248.1169315493822296
  Basis Set: 6-31G*
  Basis Set:
  Charge       = 0
  Multiplicity = 1
  Basis Set: 6-31G*
  Basis Set:

    Orbital Energies (a.u.)
    -----------------------

    Doubly Occupied:

       1A    -20.555085     2A    -15.537479     3A    -11.268559
       4A    -11.267259     5A    -11.247723     6A     -1.375960
       7A     -1.180424     8A     -1.000369     9A     -0.925374
      10A     -0.806508    11A     -0.688925    12A     -0.676412
      13A     -0.646957    14A     -0.617237    15A     -0.602277
      16A     -0.546593    17A     -0.535370    18A     -0.523653
      19A     -0.456384    20A     -0.413153    21A     -0.386715

  @DF-RHF Final Energy:  -248.11693168596713

   => Energetics <=

    Nuclear Repulsion Energy =            197.5497438815212377
    One-Electron Energy =                -728.8165221873525752
    Two-Electron Energy =                 283.1498466198641495
    DFT Exchange-Correlation Energy =       0.0000000000000000
    Empirical Dispersion Energy =           0.0000000000000000
    PCM Polarization Energy =               0.0000000000000000
    EFP Energy =                            0.0000000000000000
    Total Energy =                       -248.1169316859672449
    Molecular point group: c1
  Basis Set: 6-31G*
  Basis Set:

  -Total Gradient:
     Atom            X                  Y                   Z
    ------   -----------------  -----------------  -----------------
       1       -0.000024291440    -0.000005065115    -0.000011484964
       2        0.000017102225    -0.000010089352     0.000024489237
       3        0.000808583611     0.003327393535    -0.003877664116
       4       -0.000004337479    -0.000012680131    -0.000013622380
       5       -0.002823323794    -0.006872897511     0.006425897728
       6       -0.000002480300    -0.000021798937     0.000001457264
       7       -0.000016876599     0.000002282080    -0.000007926963
       8        0.005568095951     0.007854524161    -0.004039556998
       9        0.000017843119    -0.000005529965     0.000001443599
      10        0.000006162926    -0.000000812485    -0.000010700248
      11       -0.003543166539    -0.004255234509     0.001495890527
      12       -0.000001189226    -0.000000147306     0.000010664660
      13        0.000001616580     0.000001045058     0.000001075660
      14       -0.000003739035    -0.000000989523     0.000000036996

  **** Optimization is complete! (in 8 steps) ****
    Final optimized geometry and variables:
    Molecular point group: c1

    Geometry (in Angstrom), charge = 0, multiplicity = 1:

    H           -2.585215417734    -0.713532980755     0.385162465325
    N           -1.640416273538    -0.601026711147     0.696527164320
    C           -1.064275902286     0.640227156639     0.206974298800
    H           -1.118943137648    -1.392665313580     0.375021305162
    C            0.404277802022     0.741400693714     0.589724028053
    H           -1.183285840847     0.790248875148    -0.866079342363
    H           -1.576686246597     1.465211433068     0.692124370796
    O            1.265822230409    -0.186318451701    -0.020525668021
    H            0.747940964727     1.748434046287     0.353074809625
    H            0.509702704314     0.587823849371     1.654346443769
    C            1.064638983936    -0.492832348590    -1.363906878820
    H            1.889104891465    -1.124246137572    -1.665782227967
    H            0.138342638719    -1.033184757893    -1.535200945360
    H            1.064050672572     0.397059893350    -1.991046968664

  Mulliken Charges: (a.u.)
   Center  Symbol    Alpha    Beta     Spin     Total
       1     H     0.33121  0.33121  0.00000  0.33757
       2     N     3.92450  3.92450  0.00000 -0.84899
       3     C     3.08607  3.08607  0.00000 -0.17214
       4     H     0.32599  0.32599  0.00000  0.34803
       5     C     2.98698  2.98698  0.00000  0.02604
       6     H     0.42924  0.42924  0.00000  0.14152
       7     H     0.41453  0.41453  0.00000  0.17095
       8     O     4.31006  4.31006  0.00000 -0.62011
       9     H     0.42971  0.42971  0.00000  0.14058
      10     H     0.40661  0.40661  0.00000  0.18678
      11     C     3.08140  3.08140  0.00000 -0.16280
      12     H     0.41024  0.41024  0.00000  0.17953
      13     H     0.43383  0.43383  0.00000  0.13234
      14     H     0.42965  0.42965  0.00000  0.14071

   Total alpha = 21.00000, Total beta = 21.00000, Total charge =  0.00000
