                              Psi4 1.0.54 Driver

  ==> Input File <==

--------------------------------------------------------------------------
set {
	reference rhf
	basis cc-pvtz
}

set_num_threads( 4 )
memory 2 gb

molecule MOL {
0 1

H	 2.646708	 0.758099	 0.000000
O	 2.258158	 -0.097743	 0.000000
C	 0.911162	 -0.015915	 0.000000
C	 0.297347	 0.442235	 1.154180
C	 0.147962	 -0.369485	 -1.096784
H	 0.905206	 0.711965	 1.995164
C	 -1.076299	 0.542476	 1.200238
H	 0.624182	 -0.725055	 -1.992571
C	 -1.230301	 -0.263697	 -1.036284
H	 -1.546533	 0.898158	 2.097328
C	 -1.851801	 0.191207	 0.107713
H	 -1.815511	 -0.540398	 -1.892610
H	 -2.920212	 0.271920	 0.151066

	symmetry c1
}
set optking {
	frozen_dihedral = ("
		4 3 2 1
	")
}

ee,wfn = optimize('scf', return_wfn=True)
oeprop( wfn, 'DIPOLE', 'QUADRUPOLE', 'MULLIKEN_CHARGES')
f=open( 'psi4out.xyz', 'w' )
f.write( "13  " )
f.write( str(ee) + "\n" )
f.write( MOL.save_string_xyz() )
f.close()
--------------------------------------------------------------------------

    Molecular point group: c1
  Charge       = 0
  Multiplicity = 1
  Basis Set: CC-PVTZ
  Basis Set:
  @DF-RHF Final Energy:  -305.66552210122478
    Total Energy =                       -305.6655221012248376
    Molecular point group: c1
  Basis Set: CC-PVTZ
  Basis Set:
  Basis Set: CC-PVTZ
  Basis Set:
  @DF-RHF Final Energy:  -305.66668451868071
    Total Energy =                       -305.6666845186805972
  Basis Set: CC-PVTZ
  Basis Set:
  Basis Set: CC-PVTZ
  Basis Set:
  @DF-RHF Final Energy:  -305.66675691786077
    Total Energy =                       -305.6667569178608801
  Basis Set: CC-PVTZ
  Basis Set:
  Basis Set: CC-PVTZ
  Basis Set:
  @DF-RHF Final Energy:  -305.66676457300309
    Total Energy =                       -305.6667645730028653
  Basis Set: CC-PVTZ
  Basis Set:
  Charge       = 0
  Multiplicity = 1
  Basis Set: CC-PVTZ
  Basis Set:

    Orbital Energies (a.u.)
    -----------------------

    Doubly Occupied:

       1A    -20.572684     2A    -11.289773     3A    -11.233768
       4A    -11.233061     5A    -11.226151     6A    -11.225010
       7A    -11.224164     8A     -1.399861     9A     -1.153233
      10A     -1.022357    11A     -1.008362    12A     -0.841148
      13A     -0.828236    14A     -0.738509    15A     -0.684724
      16A     -0.651819    17A     -0.630862    18A     -0.597346
      19A     -0.591972    20A     -0.529703    21A     -0.517494
      22A     -0.498053    23A     -0.473544    24A     -0.341954
      25A     -0.327530

  @DF-RHF Final Energy:  -305.66676632053657

   => Energetics <=

    Nuclear Repulsion Energy =            273.3673238122396469
    One-Electron Energy =                -956.3855371155316334
    Two-Electron Energy =                 377.3514469827554194
    DFT Exchange-Correlation Energy =       0.0000000000000000
    Empirical Dispersion Energy =           0.0000000000000000
    PCM Polarization Energy =               0.0000000000000000
    EFP Energy =                            0.0000000000000000
    Total Energy =                       -305.6667663205365670
    Molecular point group: c1
  Basis Set: CC-PVTZ
  Basis Set:

  -Total Gradient:
     Atom            X                  Y                   Z
    ------   -----------------  -----------------  -----------------
       1       -0.000053899627     0.000017812037    -0.001611607661
       2        0.000145289932    -0.000586933418     0.002224469610
       3       -0.000086601653     0.001626944042    -0.001132718856
       4       -0.000045380109    -0.001107573959     0.000450998453
       5        0.000162255922     0.000004421791     0.000007099970
       6       -0.000042486388    -0.000007890595    -0.000020412425
       7        0.000068974317     0.000050088216     0.000024321867
       8        0.000051400678     0.000001042858     0.000030293328
       9       -0.000175422605     0.000068106398     0.000074920205
      10       -0.000045291504    -0.000010830785    -0.000005746282
      11        0.000013505926    -0.000071776275    -0.000120570807
      12        0.000013337011     0.000001777285     0.000021112673
      13       -0.000005681899     0.000014812405     0.000057839926

  **** Optimization is complete! (in 5 steps) ****
    Final optimized geometry and variables:
    Molecular point group: c1

    Geometry (in Angstrom), charge = 0, multiplicity = 1:

    H            2.681623019730     0.649149422039    -0.076964268020
    O            2.261553096903    -0.192631844331    -0.088196921341
    C            0.903919859631    -0.053810469232    -0.035797293081
    C            0.284738775755     0.387667260539     1.118699586599
    C            0.149941096782    -0.420859567578    -1.132635443509
    H            0.882052360209     0.645946806536     1.972165743771
    C           -1.093035750714     0.480699070249     1.164084057312
    H            0.649153867750    -0.774641108024    -2.013351829877
    C           -1.228537553033    -0.334100004554    -1.075794380538
    H           -1.571208191074     0.826640340932     2.060668173065
    C           -1.855455547179     0.120396329647     0.068728710308
    H           -1.812098777452    -0.621144714787    -1.929679775130
    H           -2.925321847788     0.188115132722     0.109484162490

  Mulliken Charges: (a.u.)
   Center  Symbol    Alpha    Beta     Spin     Total
       1     H     0.38710  0.38710  0.00000  0.22581
       2     O     4.19082  4.19082  0.00000 -0.38165
       3     C     2.87157  2.87157  0.00000  0.25687
       4     C     3.11638  3.11638  0.00000 -0.23276
       5     C     3.10716  3.10716  0.00000 -0.21432
       6     H     0.41994  0.41994  0.00000  0.16011
       7     C     3.06886  3.06886  0.00000 -0.13772
       8     H     0.41636  0.41636  0.00000  0.16729
       9     C     3.06703  3.06703  0.00000 -0.13406
      10     H     0.42185  0.42185  0.00000  0.15630
      11     C     3.08806  3.08806  0.00000 -0.17613
      12     H     0.42171  0.42171  0.00000  0.15659
      13     H     0.42317  0.42317  0.00000  0.15367

   Total alpha = 25.00000, Total beta = 25.00000, Total charge =  0.00000

*** Psi4 exiting successfully. Buy a developer a beer!
