                              Psi4 1.0.54 Driver

  ==> Input File <==

--------------------------------------------------------------------------
set {
	reference rhf
	basis cc-pvtz
}

set_num_threads( 4 )
memory 2 gb

molecule MOL {
0 1

H	 2.867672	 -0.456275	 0.875795
C	 2.403497	 -0.020426	 0.000000
N	 0.989899	 -0.304564	 0.000000
H	 2.867672	 -0.456275	 -0.875795
H	 2.620366	 1.051270	 0.000000
C	 0.537579	 -0.862401	 -1.257693
C	 0.193480	 0.849506	 0.362501
H	 0.706996	 -0.168353	 -2.086752
H	 1.096228	 -1.767069	 -1.467966
C	 -0.940940	 -1.191164	 -1.179339
H	 0.499652	 1.200919	 1.341017
H	 0.337016	 1.672315	 -0.344696
C	 -1.276198	 0.476757	 0.399226
H	 -1.307499	 -1.521742	 -2.141097
H	 -1.098058	 -1.989811	 -0.457136
O	 -1.689232	 -0.068115	 -0.818831
H	 -1.885094	 1.351815	 0.578514
H	 -1.450664	 -0.235580	 1.203115

	symmetry c1
}
set optking {
	frozen_dihedral = ("
		6 3 2 5
	")
}

ee,wfn = optimize('scf', return_wfn=True)
oeprop( wfn, 'DIPOLE', 'QUADRUPOLE', 'MULLIKEN_CHARGES')
f=open( 'psi4out.xyz', 'w' )
f.write( "18  " )
f.write( str(ee) + "\n" )
f.write( MOL.save_string_xyz() )
f.close()
--------------------------------------------------------------------------

    Molecular point group: c1
  Charge       = 0
  Multiplicity = 1
  Basis Set: CC-PVTZ
  Basis Set:
  @DF-RHF Final Energy:  -325.13991560129114
    Total Energy =                       -325.1399156012910225
    Molecular point group: c1
  Basis Set: CC-PVTZ
  Basis Set:
  Basis Set: CC-PVTZ
  Basis Set:
  @DF-RHF Final Energy:  -325.14048025824451
    Total Energy =                       -325.1404802582446791
  Basis Set: CC-PVTZ
  Basis Set:
  Basis Set: CC-PVTZ
  Basis Set:
  @DF-RHF Final Energy:  -325.14060373605088
    Total Energy =                       -325.1406037360507639
  Basis Set: CC-PVTZ
  Basis Set:
  Basis Set: CC-PVTZ
  Basis Set:
  @DF-RHF Final Energy:  -325.14061168527184
    Total Energy =                       -325.1406116852718924
  Basis Set: CC-PVTZ
  Basis Set:
  Charge       = 0
  Multiplicity = 1
  Basis Set: CC-PVTZ
  Basis Set:

    Orbital Energies (a.u.)
    -----------------------

    Doubly Occupied:

       1A    -20.547049     2A    -15.540428     3A    -11.263652
       4A    -11.263544     5A    -11.242524     6A    -11.242438
       7A    -11.238971     8A     -1.385866     9A     -1.229466
      10A     -1.039009    11A     -0.981181    12A     -0.883914
      13A     -0.870287    14A     -0.773144    15A     -0.684431
      16A     -0.645938    17A     -0.644590    18A     -0.632987
      19A     -0.627446    20A     -0.572372    21A     -0.558715
      22A     -0.545680    23A     -0.527797    24A     -0.500009
      25A     -0.486345    26A     -0.453530    27A     -0.410000
      28A     -0.347172

  @DF-RHF Final Energy:  -325.14061223138742

   => Energetics <=

    Nuclear Repulsion Energy =            341.3875667330401029
    One-Electron Energy =               -1118.7793831780813889
    Two-Electron Energy =                 452.2512042136536934
    DFT Exchange-Correlation Energy =       0.0000000000000000
    Empirical Dispersion Energy =           0.0000000000000000
    PCM Polarization Energy =               0.0000000000000000
    EFP Energy =                            0.0000000000000000
    Total Energy =                       -325.1406122313875926
    Molecular point group: c1
  Basis Set: CC-PVTZ
  Basis Set:

  -Total Gradient:
     Atom            X                  Y                   Z
    ------   -----------------  -----------------  -----------------
       1       -0.000005868760     0.000003293306    -0.000006626452
       2        0.000413765964    -0.001083952357    -0.003929529859
       3       -0.000697354518     0.003362909610    -0.000424360822
       4       -0.000015856867    -0.000007397044     0.000009514505
       5       -0.000150710497     0.000092616192     0.003379106946
       6        0.000443374546    -0.002371298330     0.000970540744
       7        0.000026373639     0.000019509893     0.000013232680
       8       -0.000004245605    -0.000003627668     0.000005394826
       9       -0.000007996027    -0.000003524324    -0.000009375577
      10       -0.000019843250    -0.000000020620     0.000001497638
      11       -0.000006565107     0.000008651868     0.000004306258
      12        0.000003586431    -0.000002400532    -0.000001445042
      13       -0.000000552555    -0.000026680410     0.000002556139
      14       -0.000010872884     0.000005262548     0.000003032443
      15        0.000014429349    -0.000007102107    -0.000004016278
      16        0.000014197919     0.000014059872    -0.000020895469
      17        0.000000951040    -0.000005657817    -0.000009006686
      18        0.000003187179     0.000005357916     0.000016074004

  **** Optimization is complete! (in 5 steps) ****
    Final optimized geometry and variables:
    Molecular point group: c1

    Geometry (in Angstrom), charge = 0, multiplicity = 1:

    H            2.823053698489    -0.230784370458     1.281569289156
    C            2.388773872876     0.160575934277     0.367174041739
    N            0.964602134282    -0.107442804448     0.318763561998
    H            2.899941600653    -0.303547081087    -0.466113772580
    H            2.604992396251     1.226640997842     0.345063579383
    C            0.504428101751    -0.696091750584    -0.919794368107
    C            0.147680124501     1.015524009091     0.718602799741
    H            0.638556078194    -0.018666575190    -1.769322498286
    H            1.075107574673    -1.594371470573    -1.122702758453
    C           -0.964480640850    -1.057038539292    -0.803774839369
    H            0.463509183022     1.357652124517     1.697802603721
    H            0.253981203004     1.856253137885     0.025743622487
    C           -1.310610141821     0.603115869472     0.780501477354
    H           -1.346422880292    -1.402842627660    -1.754268986587
    H           -1.085107359102    -1.854004902466    -0.072526007394
    O           -1.730054181668     0.050472382069    -0.431738960335
    H           -1.939681953422     1.460964845193     0.973509076990
    H           -1.451380144827    -0.116075302594     1.585030933603

  Mulliken Charges: (a.u.)
   Center  Symbol    Alpha    Beta     Spin     Total
       1     H     0.44980  0.44980  0.00000  0.10040
       2     C     3.09100  3.09100  0.00000 -0.18200
       3     N     3.61893  3.61893  0.00000 -0.23786
       4     H     0.45663  0.45663  0.00000  0.08674
       5     H     0.46349  0.46349  0.00000  0.07302
       6     C     3.04038  3.04038  0.00000 -0.08077
       7     C     3.04118  3.04118  0.00000 -0.08237
       8     H     0.46945  0.46945  0.00000  0.06111
       9     H     0.45404  0.45404  0.00000  0.09192
      10     C     2.98423  2.98423  0.00000  0.03153
      11     H     0.45390  0.45390  0.00000  0.09220
      12     H     0.46899  0.46899  0.00000  0.06203
      13     C     2.98427  2.98427  0.00000  0.03147
      14     H     0.45011  0.45011  0.00000  0.09978
      15     H     0.46856  0.46856  0.00000  0.06288
      16     O     4.18642  4.18642  0.00000 -0.37284
      17     H     0.45017  0.45017  0.00000  0.09965
      18     H     0.46846  0.46846  0.00000  0.06309

   Total alpha = 28.00000, Total beta = 28.00000, Total charge =  0.00000

*** Psi4 exiting successfully. Buy a developer a beer!
