  ==> Input File <==

--------------------------------------------------------------------------
set {
	reference rhf
	basis 6-31G*
}

set_num_threads( 4 )
memory 2 gb

molecule MOL {
0 1

H	 -2.499100	 -0.730091	 -0.745082
O	 -2.347518	 -0.290803	 0.079804
C	 -1.184022	 0.487508	 -0.006784
C	 0.062599	 -0.378592	 0.031606
H	 -1.176523	 1.099369	 -0.904519
H	 -1.187323	 1.153111	 0.844927
O	 0.251327	 -0.803015	 1.344628
H	 0.926278	 0.192445	 -0.314740
H	 -0.059697	 -1.224933	 -0.641694
C	 1.348772	 -1.640205	 1.528661
H	 2.277849	 -1.144666	 1.253187
H	 1.388440	 -1.901158	 2.577104
H	 1.256189	 -2.551306	 0.941196

	symmetry c1
}
set optking {
	frozen_dihedral = ("
		8 4 3 5
	")
}

ee = optimize('scf')
oeprop('DIPOLE', 'QUADRUPOLE', 'MULLIKEN_CHARGES')
f=open( 'psi4out.xyz', 'w' )
f.write( "13  " )
f.write( str(ee) + "\n" )
f.write( MOL.save_string_xyz() )
f.close()
--------------------------------------------------------------------------

    Molecular point group: c1
  Charge       = 0
  Multiplicity = 1
  Basis Set: 6-31G*
  Basis Set:
  @DF-RHF Final Energy:  -267.94715792046065
    Total Energy =                       -267.9471579204608815
    Molecular point group: c1
  Basis Set: 6-31G*
  Basis Set:
  Basis Set: 6-31G*
  Basis Set:
  @DF-RHF Final Energy:  -267.94755044485464
    Total Energy =                       -267.9475504448546985
  Basis Set: 6-31G*
  Basis Set:
  Basis Set: 6-31G*
  Basis Set:
  @DF-RHF Final Energy:  -267.94767582966801
    Total Energy =                       -267.9476758296680714
  Basis Set: 6-31G*
  Basis Set:
  Basis Set: 6-31G*
  Basis Set:
  @DF-RHF Final Energy:  -267.94769377517275
    Total Energy =                       -267.9476937751729793
  Basis Set: 6-31G*
  Basis Set:
  Charge       = 0
  Multiplicity = 1
  Basis Set: 6-31G*
  Basis Set:

    Orbital Energies (a.u.)
    -----------------------

    Doubly Occupied:

       1A    -20.559290     2A    -20.554546     3A    -11.274461
       4A    -11.270456     5A    -11.268161     6A     -1.388520
       7A     -1.359678     8A     -1.019913     9A     -0.916497
      10A     -0.841346    11A     -0.697670    12A     -0.678066
      13A     -0.661967    14A     -0.633106    15A     -0.603016
      16A     -0.564801    17A     -0.536343    18A     -0.500422
      19A     -0.473385    20A     -0.436264    21A     -0.420193

  @DF-RHF Final Energy:  -267.94769478440560

   => Energetics <=

    Nuclear Repulsion Energy =            192.6680814454596486
    One-Electron Energy =                -747.9153522352953587
    Two-Electron Energy =                 287.2995760054300263
    DFT Exchange-Correlation Energy =       0.0000000000000000
    Empirical Dispersion Energy =           0.0000000000000000
    PCM Polarization Energy =               0.0000000000000000
    EFP Energy =                            0.0000000000000000
    Total Energy =                       -267.9476947844057122
    Molecular point group: c1
  Basis Set: 6-31G*
  Basis Set:

  -Total Gradient:
     Atom            X                  Y                   Z
    ------   -----------------  -----------------  -----------------
       1       -0.000053772538    -0.000041183166    -0.000007028022
       2        0.000009880682    -0.000001094469    -0.000083136113
       3       -0.001429929452    -0.002229142221    -0.001753465181
       4        0.000706433733     0.001263851297     0.002893740651
       5        0.001050047141     0.001646588442     0.001113984057
       6        0.000048206775     0.000046257995    -0.000016010527
       7        0.000003509081    -0.000028876988    -0.000001441023
       8       -0.000315013015    -0.000703018485    -0.002134218757
       9        0.000005009634     0.000015166743     0.000039177962
      10       -0.000026618807     0.000023938139    -0.000067828774
      11        0.000018059981    -0.000004112854     0.000012943421
      12       -0.000022748943     0.000023764511    -0.000003687215
      13        0.000006935726    -0.000012138944     0.000006969522

  **** Optimization is complete! (in 5 steps) ****
    Final optimized geometry and variables:
    Molecular point group: c1

    Geometry (in Angstrom), charge = 0, multiplicity = 1:

    H           -2.051929933713    -0.292521102691    -1.258311102557
    O           -1.975106693607     0.285661981185    -0.512262826951
    C           -0.789971111926     1.022030928121    -0.605597060942
    C            0.463876926058     0.171096480408    -0.532747682052
    H           -0.761931453129     1.619351341857    -1.516180176159
    H           -0.791946550364     1.707660055574     0.230551887842
    O            0.649541878945    -0.277593566692     0.769530220300
    H            1.320480140859     0.755723654730    -0.871972097778
    H            0.373026994397    -0.675085228602    -1.218000046473
    C            1.741458890816    -1.124486722490     0.934684408257
    H            2.673298267007    -0.633546226916     0.658666428123
    H            1.785962389524    -1.398172776093     1.979539766160
    H            1.638210626037    -2.028754200356     0.337633829426

  Mulliken Charges: (a.u.)
   Center  Symbol    Alpha    Beta     Spin     Total
       1     H     0.28353  0.28353  0.00000  0.43295
       2     O     4.36371  4.36371  0.00000 -0.72743
       3     C     3.00139  3.00139  0.00000 -0.00277
       4     C     2.99780  2.99780  0.00000  0.00439
       5     H     0.43106  0.43106  0.00000  0.13788
       6     H     0.40565  0.40565  0.00000  0.18870
       7     O     4.29777  4.29777  0.00000 -0.59554
       8     H     0.43164  0.43164  0.00000  0.13673
       9     H     0.43780  0.43780  0.00000  0.12440
      10     C     3.08005  3.08005  0.00000 -0.16010
      11     H     0.43044  0.43044  0.00000  0.13913
      12     H     0.40960  0.40960  0.00000  0.18081
      13     H     0.42957  0.42957  0.00000  0.14087

   Total alpha = 21.00000, Total beta = 21.00000, Total charge =  0.00000
