  ==> Input File <==

--------------------------------------------------------------------------
set {
	reference rhf
	basis cc-pvtz
}

set_num_threads( 4 )
memory 2 gb

molecule MOL {
0 1

H	 1.166964	 -1.062386	 0.758429
O	 1.324748	 -0.612467	 -0.052206
C	 0.706474	 0.636793	 -0.025501
C	 0.035972	 1.030816	 -1.311115
H	 1.481269	 1.357517	 0.208064
H	 -0.021477	 0.692051	 0.781800
C	 0.081966	 0.358748	 -2.440059
H	 -0.520315	 1.952496	 -1.263163
H	 0.639230	 -0.553928	 -2.531995
H	 -0.429141	 0.710671	 -3.315833

	symmetry c1
}
set optking {
	frozen_dihedral = ("
		5 3 2 1
	")
}

ee = optimize('scf')
oeprop('DIPOLE', 'QUADRUPOLE', 'MULLIKEN_CHARGES')
f=open( 'psi4out.xyz', 'w' )
f.write( "10  " )
f.write( str(ee) + "\n" )
f.write( MOL.save_string_xyz() )
f.close()
--------------------------------------------------------------------------

    Molecular point group: c1
  Charge       = 0
  Multiplicity = 1
  Basis Set: CC-PVTZ
  Basis Set:
  @DF-RHF Final Energy:  -191.99565939405707
    Total Energy =                       -191.9956593940571565
    Molecular point group: c1
  Basis Set: CC-PVTZ
  Basis Set:
  Basis Set: CC-PVTZ
  Basis Set:
  @DF-RHF Final Energy:  -191.99670142763705
    Total Energy =                       -191.9967014276369639
  Basis Set: CC-PVTZ
  Basis Set:
  Basis Set: CC-PVTZ
  Basis Set:
  @DF-RHF Final Energy:  -191.99695782724916
    Total Energy =                       -191.9969578272492754
  Basis Set: CC-PVTZ
  Basis Set:
  Basis Set: CC-PVTZ
  Basis Set:
  @DF-RHF Final Energy:  -191.99696816390653
    Total Energy =                       -191.9969681639065016
  Basis Set: CC-PVTZ
  Basis Set:
  Basis Set: CC-PVTZ
  Basis Set:
  @DF-RHF Final Energy:  -191.99696934700177
    Total Energy =                       -191.9969693470017091
  Basis Set: CC-PVTZ
  Basis Set:
  Charge       = 0
  Multiplicity = 1
  Basis Set: CC-PVTZ
  Basis Set:

    Orbital Energies (a.u.)
    -----------------------

    Doubly Occupied:

       1A    -20.553369     2A    -11.278399     3A    -11.223518
       4A    -11.207993     5A     -1.373334     6A     -1.058297
       7A     -0.926826     8A     -0.758058     9A     -0.711597
      10A     -0.648378    11A     -0.615847    12A     -0.586999
      13A     -0.515770    14A     -0.498127    15A     -0.453891
      16A     -0.360875

  @DF-RHF Final Energy:  -191.99696940521594

   => Energetics <=

    Nuclear Repulsion Energy =            119.5246567365524299
    One-Electron Energy =                -497.5006994634314879
    Two-Electron Energy =                 185.9790733216632361
    DFT Exchange-Correlation Energy =       0.0000000000000000
    Empirical Dispersion Energy =           0.0000000000000000
    PCM Polarization Energy =               0.0000000000000000
    EFP Energy =                            0.0000000000000000
    Total Energy =                       -191.9969694052158502
    Molecular point group: c1
  Basis Set: CC-PVTZ
  Basis Set:

  -Total Gradient:
     Atom            X                  Y                   Z
    ------   -----------------  -----------------  -----------------
       1       -0.000589875296    -0.000298462437    -0.000313621871
       2        0.000777455760     0.000391857673     0.000222026286
       3       -0.000287493467    -0.000212711824     0.000690096730
       4       -0.000031543239    -0.000006101075     0.000021086174
       5        0.000127925794     0.000109630549    -0.000598699230
       6       -0.000008822670     0.000016190888    -0.000014867229
       7       -0.000020242068    -0.000014414752     0.000006179814
       8        0.000010694821     0.000003838954    -0.000004137745
       9        0.000009626507     0.000003199865    -0.000003666959
      10        0.000012273861     0.000006972160    -0.000004395970

  **** Optimization is complete! (in 6 steps) ****
    Final optimized geometry and variables:
    Molecular point group: c1

    Geometry (in Angstrom), charge = 0, multiplicity = 1:

    H            0.631495155785    -1.401952483943     1.555652832090
    O            0.779626226992    -0.886440767457     0.786501593524
    C            0.110232063122     0.337462111770     0.884696877844
    C           -0.520474194412     0.732934471324    -0.417004076345
    H            0.808698297365     1.116559054884     1.181993957709
    H           -0.662094101807     0.299105630027     1.649231373133
    C           -0.522767976044     0.015077970708    -1.517069303186
    H           -0.995661239359     1.699895423868    -0.406009914765
    H           -0.051233413096    -0.946879602568    -1.557961260873
    H           -0.995247173870     0.377170678856    -2.410511796377

  Mulliken Charges: (a.u.)
   Center  Symbol    Alpha    Beta     Spin     Total
       1     H     0.39062  0.39062  0.00000  0.21876
       2     O     4.19676  4.19676  0.00000 -0.39352
       3     C     2.94247  2.94247  0.00000  0.11507
       4     C     3.08003  3.08003  0.00000 -0.16007
       5     H     0.46949  0.46949  0.00000  0.06102
       6     H     0.47405  0.47405  0.00000  0.05190
       7     C     3.17223  3.17223  0.00000 -0.34447
       8     H     0.42425  0.42425  0.00000  0.15150
       9     H     0.42005  0.42005  0.00000  0.15990
      10     H     0.43004  0.43004  0.00000  0.13991

   Total alpha = 16.00000, Total beta = 16.00000, Total charge = -0.00000
