                              Psi4 1.0.54 Driver

  ==> Input File <==

--------------------------------------------------------------------------
set {
	reference rhf
	basis cc-pvtz
}

set_num_threads( 4 )
memory 2 gb

molecule MOL {
0 1

H	 -2.362939	 -1.309000	 -0.383250
C	 -1.359344	 -1.272457	 0.020748
C	 -0.684082	 0.000127	 -0.464918
H	 -0.825835	 -2.151141	 -0.318537
H	 -1.416276	 -1.292399	 1.099455
C	 -1.359089	 1.272668	 0.021259
N	 0.742439	 -0.000109	 0.007333
H	 -0.596914	 0.000345	 -1.538146
H	 -2.362696	 1.309620	 -0.382686
H	 -0.825392	 2.151374	 -0.317674
H	 -1.415983	 1.292181	 1.099973
O	 1.545513	 -0.526203	 -0.686887
O	 0.975097	 0.525964	 1.044352

	symmetry c1
}
set optking {
	frozen_dihedral = ("
		12 7 3 8
	")
}

ee,wfn = optimize('scf', return_wfn=True)
oeprop( wfn, 'DIPOLE', 'QUADRUPOLE', 'MULLIKEN_CHARGES')
f=open( 'psi4out.xyz', 'w' )
f.write( "13  " )
f.write( str(ee) + "\n" )
f.write( MOL.save_string_xyz() )
f.close()
--------------------------------------------------------------------------

    Molecular point group: c1
  Charge       = 0
  Multiplicity = 1
  Basis Set: CC-PVTZ
  Basis Set:
  @DF-RHF Final Energy:  -321.86369856017672
    Total Energy =                       -321.8636985601767719
    Molecular point group: c1
  Basis Set: CC-PVTZ
  Basis Set:
  Basis Set: CC-PVTZ
  Basis Set:
  @DF-RHF Final Energy:  -321.85766552129343
    Total Energy =                       -321.8576655212933701
  Basis Set: CC-PVTZ
  Basis Set:
  Basis Set: CC-PVTZ
  Basis Set:
  @DF-RHF Final Energy:  -321.86381156649117
    Total Energy =                       -321.8638115664913357
  Basis Set: CC-PVTZ
  Basis Set:
  Basis Set: CC-PVTZ
  Basis Set:
  @DF-RHF Final Energy:  -321.86419068780486
    Total Energy =                       -321.8641906878048644
  Basis Set: CC-PVTZ
  Basis Set:
  Basis Set: CC-PVTZ
  Basis Set:
  @DF-RHF Final Energy:  -321.86351133488063
    Total Energy =                       -321.8635113348803998
  Basis Set: CC-PVTZ
  Basis Set:
  Basis Set: CC-PVTZ
  Basis Set:
  @DF-RHF Final Energy:  -321.86422565448026
    Total Energy =                       -321.8642256544802649
  Basis Set: CC-PVTZ
  Basis Set:
  Basis Set: CC-PVTZ
  Basis Set:
  @DF-RHF Final Energy:  -321.86422937689849
    Total Energy =                       -321.8642293768986065
  Basis Set: CC-PVTZ
  Basis Set:
  Charge       = 0
  Multiplicity = 1
  Basis Set: CC-PVTZ
  Basis Set:

    Orbital Energies (a.u.)
    -----------------------

    Doubly Occupied:

       1A    -20.589608     2A    -20.588010     3A    -15.832826
       4A    -11.304710     5A    -11.245381     6A    -11.239366
       7A     -1.634007     8A     -1.418239     9A     -1.142294
      10A     -0.973132    11A     -0.957339    12A     -0.816227
      13A     -0.755013    14A     -0.731818    15A     -0.726227
      16A     -0.648510    17A     -0.594417    18A     -0.587632
      19A     -0.571352    20A     -0.529603    21A     -0.522028
      22A     -0.485106    23A     -0.470660    24A     -0.451896

  @DF-RHF Final Energy:  -321.86423035213198

   => Energetics <=

    Nuclear Repulsion Energy =            257.3980615296849805
    One-Electron Energy =                -948.8937791581238343
    Two-Electron Energy =                 369.6314872763069843
    DFT Exchange-Correlation Energy =       0.0000000000000000
    Empirical Dispersion Energy =           0.0000000000000000
    PCM Polarization Energy =               0.0000000000000000
    EFP Energy =                            0.0000000000000000
    Total Energy =                       -321.8642303521318127
    Molecular point group: c1
  Basis Set: CC-PVTZ
  Basis Set:

  -Total Gradient:
     Atom            X                  Y                   Z
    ------   -----------------  -----------------  -----------------
       1        0.000003975184     0.000000374911     0.000006299737
       2        0.000002008647    -0.000009734477    -0.000007567008
       3       -0.000073024752    -0.001104882927     0.000174447497
       4        0.000004437520    -0.000004048130     0.000000945410
       5       -0.000008345425    -0.000004194663     0.000008424983
       6       -0.000012595042     0.000011217533    -0.000016948456
       7        0.000288969185     0.000957555596    -0.000542173283
       8        0.000035576169     0.000775469905     0.000003551597
       9       -0.000000840387     0.000001154106    -0.000002655717
      10        0.000001480020     0.000003673351     0.000002142060
      11        0.000006507245    -0.000011429591    -0.000010701469
      12       -0.000211412559    -0.000621958286     0.000381622605
      13       -0.000036735798     0.000006802675     0.000002612042

  **** Optimization is complete! (in 8 steps) ****
    Final optimized geometry and variables:
    Molecular point group: c1

    Geometry (in Angstrom), charge = 0, multiplicity = 1:

    H           -2.362333891940    -1.279710858894    -0.360923925136
    C           -1.348873789146    -1.247793249504     0.016893198907
    C           -0.682690820787     0.035612995458    -0.462681218888
    H           -0.819604758697    -2.117961905437    -0.345528426431
    H           -1.384417472274    -1.279182521460     1.098195456673
    C           -1.374987802073     1.297208130310     0.015292940224
    N            0.745133979178    -0.001880565779     0.008863972501
    H           -0.592590988179     0.030180981071    -1.536641889209
    H           -2.364460205158     1.329711989385    -0.423852487271
    H           -0.836518347061     2.182720870164    -0.294772916520
    H           -1.469790862050     1.311969227031     1.090646309377
    O            1.521757039536    -0.555361666289    -0.695519594834
    O            1.000988346877     0.482018397585     1.059431744747

  Mulliken Charges: (a.u.)
   Center  Symbol    Alpha    Beta     Spin     Total
       1     H     0.44844  0.44844  0.00000  0.10311
       2     C     3.14287  3.14287  0.00000 -0.28574
       3     C     3.00777  3.00777  0.00000 -0.01553
       4     H     0.43631  0.43631  0.00000  0.12738
       5     H     0.44270  0.44270  0.00000  0.11459
       6     C     3.14404  3.14404  0.00000 -0.28808
       7     N     3.27411  3.27411  0.00000  0.45179
       8     H     0.42595  0.42595  0.00000  0.14809
       9     H     0.45011  0.45011  0.00000  0.09979
      10     H     0.44080  0.44080  0.00000  0.11840
      11     H     0.43894  0.43894  0.00000  0.12213
      12     O     4.17365  4.17365  0.00000 -0.34730
      13     O     4.17431  4.17431  0.00000 -0.34863

   Total alpha = 24.00000, Total beta = 24.00000, Total charge =  0.00000

*** Psi4 exiting successfully. Buy a developer a beer!
