                              Psi4 1.0.54 Driver

  ==> Input File <==

--------------------------------------------------------------------------
set {
	reference rhf
	basis cc-pvtz
}

set_num_threads( 4 )
memory 2 gb

molecule MOL {
0 1

O	 -2.071633	 -1.227563	 -0.223463
C	 -1.652164	 -0.152425	 0.058082
C	 -0.327811	 0.006324	 0.778296
C	 -2.402515	 1.108629	 -0.298924
C	 -0.430592	 -0.466920	 2.233253
H	 0.448401	 -0.550888	 0.264355
H	 -0.066036	 1.056451	 0.754953
C	 0.879455	 -0.306330	 2.998902
H	 -0.734497	 -1.510286	 2.260137
H	 -1.214251	 0.097196	 2.727234
C	 0.778516	 -0.764002	 4.449939
H	 1.661866	 -0.868299	 2.496362
H	 1.184087	 0.735711	 2.969087
H	 0.509144	 -1.813091	 4.512278
H	 0.025374	 -0.197561	 4.986866
H	 1.721841	 -0.633872	 4.967245
H	 -3.240910	 0.874416	 -0.936711
H	 -1.747554	 1.818823	 -0.790984
H	 -2.760419	 1.579708	 0.610998

	symmetry c1
}
set optking {
	frozen_dihedral = ("
		5 3 2 4
	")
}

ee,wfn = optimize('scf', return_wfn=True)
oeprop( wfn, 'DIPOLE', 'QUADRUPOLE', 'MULLIKEN_CHARGES')
f=open( 'psi4out.xyz', 'w' )
f.write( "19  " )
f.write( str(ee) + "\n" )
f.write( MOL.save_string_xyz() )
f.close()
--------------------------------------------------------------------------

    Molecular point group: c1
  Charge       = 0
  Multiplicity = 1
  Basis Set: CC-PVTZ
  Basis Set:
  @DF-RHF Final Energy:  -309.17620744725792
    Total Energy =                       -309.1762074472576387
    Molecular point group: c1
  Basis Set: CC-PVTZ
  Basis Set:
  Basis Set: CC-PVTZ
  Basis Set:
  @DF-RHF Final Energy:  -309.17474765314546
    Total Energy =                       -309.1747476531459142
  Basis Set: CC-PVTZ
  Basis Set:
  Basis Set: CC-PVTZ
  Basis Set:
  @DF-RHF Final Energy:  -309.17671504775268
    Total Energy =                       -309.1767150477530777
  Basis Set: CC-PVTZ
  Basis Set:
  Basis Set: CC-PVTZ
  Basis Set:
  @DF-RHF Final Energy:  -309.17716562194539
    Total Energy =                       -309.1771656219454485
  Basis Set: CC-PVTZ
  Basis Set:
  @DF-RHF Final Energy:  -309.17722696198911
    Total Energy =                       -309.1772269619888220
  Basis Set: CC-PVTZ
  Basis Set:
  @DF-RHF Final Energy:  -309.17723447938545
    Total Energy =                       -309.1772344793850493
  Basis Set: CC-PVTZ
  Basis Set:
  Basis Set: CC-PVTZ
  Basis Set:
  @DF-RHF Final Energy:  -309.17725137240865
    Total Energy =                       -309.1772513724087048
  Basis Set: CC-PVTZ
  Basis Set:
  Basis Set: CC-PVTZ
  Basis Set:
  @DF-RHF Final Energy:  -309.17725604383605
    Total Energy =                       -309.1772560438359392
  Basis Set: CC-PVTZ
  Basis Set:
  Charge       = 0
  Multiplicity = 1
  Basis Set: CC-PVTZ
  Basis Set:

    Orbital Energies (a.u.)
    -----------------------

    Doubly Occupied:

       1A    -20.536915     2A    -11.319959     3A    -11.228152
       4A    -11.227475     5A    -11.225713     6A    -11.221479
       7A    -11.211798     8A     -1.397439     9A     -1.090937
      10A     -1.030204    11A     -0.985304    12A     -0.889376
      13A     -0.805604    14A     -0.734215    15A     -0.664051
      16A     -0.648206    17A     -0.624641    18A     -0.614357
      19A     -0.583290    20A     -0.574130    21A     -0.553848
      22A     -0.537158    23A     -0.516033    24A     -0.497595
      25A     -0.480710    26A     -0.475560    27A     -0.469081
      28A     -0.399442

  @DF-RHF Final Energy:  -309.17725620635065

   => Energetics <=

    Nuclear Repulsion Energy =            301.7097187874869633
    One-Electron Energy =               -1016.6886108161854736
    Two-Electron Energy =                 405.8016358223479756
    DFT Exchange-Correlation Energy =       0.0000000000000000
    Empirical Dispersion Energy =           0.0000000000000000
    PCM Polarization Energy =               0.0000000000000000
    EFP Energy =                            0.0000000000000000
    Total Energy =                       -309.1772562063505347
    Molecular point group: c1
  Basis Set: CC-PVTZ
  Basis Set:

  -Total Gradient:
     Atom            X                  Y                   Z
    ------   -----------------  -----------------  -----------------
       1       -0.000003887772     0.000002560716     0.000004508243
       2       -0.000088324197    -0.000074897565     0.000172431613
       3       -0.000016988102     0.000181589673     0.000014768664
       4        0.000088119031     0.000006938850    -0.000142085218
       5        0.000045316600    -0.000114913737    -0.000050379623
       6       -0.000001807996    -0.000000174772    -0.000007582494
       7       -0.000002552198    -0.000000317611    -0.000006023925
       8       -0.000007602302     0.000005539723     0.000003606460
       9        0.000003246760    -0.000003196894     0.000011549492
      10       -0.000007983876     0.000005705885     0.000001392783
      11        0.000004387940    -0.000016853407    -0.000006207726
      12        0.000007742240     0.000003389520    -0.000002822412
      13       -0.000005988019     0.000007563899    -0.000003411115
      14       -0.000004780235    -0.000007076786     0.000007960833
      15        0.000001491161     0.000003522233    -0.000001921406
      16        0.000001451297    -0.000003969702    -0.000002316631
      17       -0.000010103281     0.000001783552    -0.000007285104
      18        0.000003083704     0.000002001220    -0.000008851998
      19       -0.000004820757     0.000000805205     0.000022669566

  **** Optimization is complete! (in 9 steps) ****
    Final optimized geometry and variables:
    Molecular point group: c1

    Geometry (in Angstrom), charge = 0, multiplicity = 1:

    O           -1.220875688846    -0.988742897396    -1.704131751091
    C           -0.880951106647     0.107247318648    -1.397062714821
    C            0.411879980254     0.336043616948    -0.635445830856
    C           -1.713486193235     1.319762131944    -1.734424772172
    C            0.312646764786    -0.191049555618     0.799546806852
    H            1.195139760946    -0.195891457224    -1.163254657377
    H            0.668943431049     1.389350962696    -0.629791409116
    C            1.608733122348    -0.014525464194     1.584723306270
    H            0.042716212495    -1.239963681592     0.764525041453
    H           -0.494069630410     0.320132484883     1.319702633087
    C            1.514203954016    -0.544098601392     3.011576731926
    H            2.413732991250    -0.524287132483     1.063070371267
    H            1.877647919759     1.038053692135     1.607519641522
    H            1.277855778334    -1.602588428439     3.020440092673
    H            0.740132087824    -0.028659367588     3.570275440289
    H            2.449778669545    -0.409136082508     3.541661369894
    H           -2.636613384607     1.019859767126    -2.206033464365
    H           -1.154943352672     1.968423717545    -2.401474011422
    H           -1.923709461762     1.890637361057    -0.836027809062

  Mulliken Charges: (a.u.)
   Center  Symbol    Alpha    Beta     Spin     Total
       1     O     4.17763  4.17763  0.00000 -0.35527
       2     C     2.85809  2.85809  0.00000  0.28381
       3     C     3.10063  3.10063  0.00000 -0.20125
       4     C     3.15407  3.15407  0.00000 -0.30814
       5     C     3.09324  3.09324  0.00000 -0.18648
       6     H     0.44072  0.44072  0.00000  0.11856
       7     H     0.44881  0.44881  0.00000  0.10239
       8     C     3.08569  3.08569  0.00000 -0.17138
       9     H     0.43958  0.43958  0.00000  0.12085
      10     H     0.45415  0.45415  0.00000  0.09170
      11     C     3.14942  3.14942  0.00000 -0.29884
      12     H     0.45230  0.45230  0.00000  0.09540
      13     H     0.45455  0.45455  0.00000  0.09090
      14     H     0.45271  0.45271  0.00000  0.09459
      15     H     0.45511  0.45511  0.00000  0.08978
      16     H     0.44773  0.44773  0.00000  0.10454
      17     H     0.43631  0.43631  0.00000  0.12739
      18     H     0.44860  0.44860  0.00000  0.10280
      19     H     0.45067  0.45067  0.00000  0.09867

   Total alpha = 28.00000, Total beta = 28.00000, Total charge = -0.00000

*** Psi4 exiting successfully. Buy a developer a beer!
