  ==> Input File <==

--------------------------------------------------------------------------
set {
	reference rhf
	basis 6-31G*
}

set_num_threads( 4 )
memory 2 gb

molecule MOL {
0 1

H	 5.011770	 2.061459	 -0.892820
C	 4.241837	 1.816575	 -1.617911
C	 3.004558	 1.235438	 -0.934832
H	 3.996725	 2.725264	 -2.159710
H	 4.667598	 1.112292	 -2.327497
C	 1.900666	 0.872348	 -1.930524
H	 2.621847	 1.952808	 -0.216144
H	 3.288217	 0.347132	 -0.372566
C	 0.655938	 0.271165	 -1.277456
H	 1.612842	 1.754162	 -2.491955
H	 2.291277	 0.153779	 -2.647547
C	 -0.173102	 1.264122	 -0.476224
H	 -0.002133	 -0.134047	 -2.044604
H	 0.919089	 -0.571009	 -0.641319
C	 -1.181045	 0.701995	 0.511084
O	 -0.054274	 2.443038	 -0.626035
C	 -2.285934	 -0.139295	 -0.145128
H	 -1.614143	 1.544893	 1.036121
H	 -0.649039	 0.092733	 1.239407
C	 -3.651768	 0.085446	 0.506485
H	 -2.346596	 0.110469	 -1.202272
H	 -2.034737	 -1.195320	 -0.088721
C	 -4.759797	 -0.746382	 -0.137905
H	 -3.908762	 1.140117	 0.445781
H	 -3.588286	 -0.154158	 1.565709
H	 -4.868882	 -0.505166	 -1.191300
H	 -4.548009	 -1.809175	 -0.062213
H	 -5.715422	 -0.564821	 0.343442

	symmetry c1
}
set optking {
	frozen_dihedral = ("
		12 15 17 21
	")
}

ee = optimize('scf')
oeprop('DIPOLE', 'QUADRUPOLE', 'MULLIKEN_CHARGES')
f=open( 'psi4out.xyz', 'w' )
f.write( "28  " )
f.write( str(ee) + "\n" )
f.write( MOL.save_string_xyz() )
f.close()
--------------------------------------------------------------------------

    Molecular point group: c1
  Charge       = 0
  Multiplicity = 1
  Basis Set: 6-31G*
  Basis Set:
  @DF-RHF Final Energy:  -426.16556537936788
    Total Energy =                       -426.1655653793679903
    Molecular point group: c1
  Basis Set: 6-31G*
  Basis Set:
  Basis Set: 6-31G*
  Basis Set:
  @DF-RHF Final Energy:  -426.16579730143565
    Total Energy =                       -426.1657973014350773
  Basis Set: 6-31G*
  Basis Set:
  Basis Set: 6-31G*
  Basis Set:
  @DF-RHF Final Energy:  -426.16328552839389
    Total Energy =                       -426.1632855283935442
  Basis Set: 6-31G*
  Basis Set:
  Basis Set: 6-31G*
  Basis Set:
  @DF-RHF Final Energy:  -426.16596835861742
    Total Energy =                       -426.1659683586169649
  Basis Set: 6-31G*
  Basis Set:
  @DF-RHF Final Energy:  -426.16606758426565
    Total Energy =                       -426.1660675842661021
  @DF-RHF Final Energy:  -426.16611444080786
    Total Energy =                       -426.1661144408080872
  @DF-RHF Final Energy:  -426.16617098261929
    Total Energy =                       -426.1661709826195192
  Basis Set: 6-31G*
  Basis Set:
  @DF-RHF Final Energy:  -426.16617952932188
    Total Energy =                       -426.1661795293216528
  Basis Set: 6-31G*
  Basis Set:
  Basis Set: 6-31G*
  Basis Set:
  @DF-RHF Final Energy:  -426.16618109049296
    Total Energy =                       -426.1661810904934100
  Basis Set: 6-31G*
  Basis Set:
  Basis Set: 6-31G*
  Basis Set:
  @DF-RHF Final Energy:  -426.16618346703308
    Total Energy =                       -426.1661834670337612
  Basis Set: 6-31G*
  Basis Set:
  Charge       = 0
  Multiplicity = 1
  Basis Set: 6-31G*
  Basis Set:

    Orbital Energies (a.u.)
    -----------------------

    Doubly Occupied:

       1A    -20.548056     2A    -11.322295     3A    -11.232268
       4A    -11.230316     5A    -11.228072     6A    -11.224646
       7A    -11.216051     8A    -11.214861     9A    -11.210160
      10A    -11.204500    11A     -1.393470    12A     -1.092593
      13A     -1.076590    14A     -1.022272    15A     -0.989585
      16A     -0.907973    17A     -0.870976    18A     -0.808847
      19A     -0.798054    20A     -0.725142    21A     -0.671261
      22A     -0.642819    23A     -0.630561    24A     -0.617743
      25A     -0.607174    26A     -0.587025    27A     -0.578564
      28A     -0.572641    29A     -0.537851    30A     -0.532022
      31A     -0.525813    32A     -0.507709    33A     -0.500909
      34A     -0.481198    35A     -0.478007    36A     -0.471767
      37A     -0.468884    38A     -0.463389    39A     -0.455029
      40A     -0.392048

  @DF-RHF Final Energy:  -426.16618372607923

   => Energetics <=

    Nuclear Repulsion Energy =            531.0014845590417281
    One-Electron Energy =               -1630.2570601254615212
    Two-Electron Energy =                 673.0893918403407952
    DFT Exchange-Correlation Energy =       0.0000000000000000
    Empirical Dispersion Energy =           0.0000000000000000
    PCM Polarization Energy =               0.0000000000000000
    EFP Energy =                            0.0000000000000000
    Total Energy =                       -426.1661837260789980
    Molecular point group: c1
  Basis Set: 6-31G*
  Basis Set:

  -Total Gradient:
     Atom            X                  Y                   Z
    ------   -----------------  -----------------  -----------------
       1       -0.000001030494    -0.000003407163     0.000001176803
       2        0.000002991598    -0.000014173504    -0.000009325979
       3       -0.000022816086     0.000031527134     0.000020690741
       4        0.000001228541     0.000004602751     0.000001930568
       5        0.000000978633     0.000002330714    -0.000005740506
       6        0.000019260451     0.000001304090     0.000007225838
       7        0.000002981056    -0.000008042474    -0.000003954940
       8       -0.000000325671    -0.000001175186    -0.000004152218
       9       -0.000022217736    -0.000013056582    -0.000014755394
      10       -0.000004454655     0.000004000116     0.000004055756
      11       -0.000007489067    -0.000009032572     0.000000607354
      12       -0.001285342551     0.002424970830     0.000111850882
      13        0.000013158663     0.000014393897     0.000001137090
      14        0.000006762916     0.000003655767     0.000013125180
      15        0.002236705945    -0.004019353344    -0.000484702274
      16        0.000033967802     0.000023339288    -0.000007330066
      17       -0.003185579868     0.004401098964     0.001604573785
      18        0.000007037183    -0.000003340967    -0.000003037238
      19        0.000002298947    -0.000011041525     0.000009292362
      20        0.000000347331    -0.000001766596    -0.000002650008
      21        0.002214360632    -0.002815294980    -0.001240249660
      22       -0.000004161467    -0.000009833718     0.000003625197
      23       -0.000007804873     0.000000622542     0.000004471594
      24        0.000004062192    -0.000005349891    -0.000002919978
      25        0.000000197264     0.000001630353    -0.000005466577
      26        0.000000714594     0.000001440492     0.000004098763
      27        0.000003144494     0.000004251751    -0.000000389267
      28       -0.000008975771    -0.000004300188    -0.000003187809

  **** Optimization is complete! (in 11 steps) ****
    Final optimized geometry and variables:
    Molecular point group: c1

    Geometry (in Angstrom), charge = 0, multiplicity = 1:

    H            5.136598480361     1.731142485680    -0.685343420047
    C            4.359038111184     1.267231995379    -1.284292143679
    C            3.280712845607     0.641858999437    -0.400408817181
    H            3.938180772248     2.032766488540    -1.929539021153
    H            4.830837061982     0.521698050698    -1.918825435065
    C            2.174180650204    -0.032657307711    -1.214600186501
    H            2.846918169732     1.406260016285     0.234502379641
    H            3.739025018207    -0.093890599520     0.258697108528
    C            1.084909289886    -0.679136069890    -0.359360855944
    H            1.718439739451     0.693583808818    -1.879385263715
    H            2.616648420932    -0.801760241602    -1.843795719184
    C            0.132005861620     0.297697069642     0.308888671000
    H            0.476085528636    -1.349289903444    -0.965140815466
    H            1.522717843895    -1.308456278401     0.413579805782
    C           -0.943629451276    -0.294016280234     1.203066986625
    O            0.185477830442     1.474893183244     0.116117677543
    C           -2.127140106509    -0.863070838604     0.384393556923
    H           -1.290190824374     0.513883091844     1.836486758172
    H           -0.527164199363    -1.065247107405     1.843590821982
    C           -3.480325895582    -0.637932885943     1.058927160577
    H           -2.133884907307    -0.428250334184    -0.612337315752
    H           -1.978469435785    -1.929397746965     0.231283345814
    C           -4.641219171130    -1.251696898422     0.278251080648
    H           -3.644683223792     0.429914204332     1.177127416536
    H           -3.454526327765    -1.058092183616     2.062113672561
    H           -4.708193210950    -0.829584018570    -0.720349360617
    H           -4.521949578108    -2.326602358223     0.175893012663
    H           -5.587486876731    -1.070211901256     0.777842973688

  Mulliken Charges: (a.u.)
   Center  Symbol    Alpha    Beta     Spin     Total
       1     H     0.41944  0.41944  0.00000  0.16111
       2     C     3.24028  3.24028  0.00000 -0.48056
       3     C     3.15605  3.15605  0.00000 -0.31209
       4     H     0.41876  0.41876  0.00000  0.16247
       5     H     0.42414  0.42414  0.00000  0.15171
       6     C     3.14856  3.14856  0.00000 -0.29713
       7     H     0.40701  0.40701  0.00000  0.18598
       8     H     0.42821  0.42821  0.00000  0.14359
       9     C     3.21246  3.21246  0.00000 -0.42493
      10     H     0.40932  0.40932  0.00000  0.18135
      11     H     0.42219  0.42219  0.00000  0.15563
      12     C     2.73844  2.73844  0.00000  0.52313
      13     H     0.40472  0.40472  0.00000  0.19057
      14     H     0.41032  0.41032  0.00000  0.17937
      15     C     3.19949  3.19949  0.00000 -0.39899
      16     O     4.26599  4.26599  0.00000 -0.53198
      17     C     3.16162  3.16162  0.00000 -0.32323
      18     H     0.39952  0.39952  0.00000  0.20096
      19     H     0.41286  0.41286  0.00000  0.17429
      20     C     3.15298  3.15298  0.00000 -0.30596
      21     H     0.41289  0.41289  0.00000  0.17422
      22     H     0.41900  0.41900  0.00000  0.16200
      23     C     3.24132  3.24132  0.00000 -0.48264
      24     H     0.41584  0.41584  0.00000  0.16832
      25     H     0.42093  0.42093  0.00000  0.15814
      26     H     0.41945  0.41945  0.00000  0.16111
      27     H     0.42139  0.42139  0.00000  0.15723
      28     H     0.41683  0.41683  0.00000  0.16634

   Total alpha = 40.00000, Total beta = 40.00000, Total charge =  0.00000
