  ==> Input File <==

--------------------------------------------------------------------------
set {
	reference rhf
	basis 6-31G*
}

set_num_threads( 4 )
memory 2 gb

molecule MOL {
0 1

H	 -4.031818	 -0.453427	 -0.000094
C	 -2.967712	 -0.297022	 -0.000064
C	 -2.458620	 0.992929	 0.000032
C	 -2.109895	 -1.385637	 -0.000122
H	 -3.124998	 1.836319	 0.000077
C	 -1.090278	 1.193236	 0.000070
H	 -2.506361	 -2.384847	 -0.000198
C	 -0.739812	 -1.187531	 -0.000085
H	 -0.678594	 2.184290	 0.000146
C	 -0.226438	 0.104061	 0.000012
H	 -0.072310	 -2.027032	 -0.000131
C	 1.239129	 0.373821	 0.000060
O	 1.542367	 1.594005	 0.416954
O	 2.061737	 -0.418636	 -0.337856
C	 2.916635	 1.936101	 0.449046
H	 3.454718	 1.278460	 1.115958
H	 2.958086	 2.952013	 0.809681
H	 3.346030	 1.870646	 -0.540021

	symmetry c1
}
set optking {
	frozen_dihedral = ("
		13 12 10 6
	")
}

ee = optimize('scf')
oeprop('DIPOLE', 'QUADRUPOLE', 'MULLIKEN_CHARGES')
f=open( 'psi4out.xyz', 'w' )
f.write( "18  " )
f.write( str(ee) + "\n" )
f.write( MOL.save_string_xyz() )
f.close()
--------------------------------------------------------------------------

    Molecular point group: c1
  Charge       = 0
  Multiplicity = 1
  Basis Set: 6-31G*
  Basis Set:
  @DF-RHF Final Energy:  -457.34826614882479
    Total Energy =                       -457.3482661488249050
    Molecular point group: c1
  Basis Set: 6-31G*
  Basis Set:
  Basis Set: 6-31G*
  Basis Set:
  @DF-RHF Final Energy:  -457.34927764412186
    Total Energy =                       -457.3492776441216847
  Basis Set: 6-31G*
  Basis Set:
  Basis Set: 6-31G*
  Basis Set:
  @DF-RHF Final Energy:  -457.34964136987276
    Total Energy =                       -457.3496413698725291
  Basis Set: 6-31G*
  Basis Set:
  Basis Set: 6-31G*
  Basis Set:
  @DF-RHF Final Energy:  -457.34971353347328
    Total Energy =                       -457.3497135334735049
  Basis Set: 6-31G*
  Basis Set:
  Basis Set: 6-31G*
  Basis Set:
  @DF-RHF Final Energy:  -457.34971485584498
    Total Energy =                       -457.3497148558446952
  Basis Set: 6-31G*
  Basis Set:
  Charge       = 0
  Multiplicity = 1
  Basis Set: 6-31G*
  Basis Set:

    Orbital Energies (a.u.)
    -----------------------

    Doubly Occupied:

       1A    -20.607935     2A    -20.545012     3A    -11.377960
       4A    -11.283005     5A    -11.246006     6A    -11.244872
       7A    -11.244384     8A    -11.242010     9A    -11.237775
      10A    -11.237031    11A     -1.472935    12A     -1.364293
      13A     -1.165517    14A     -1.048267    15A     -1.025005
      16A     -0.978319    17A     -0.860185    18A     -0.834876
      19A     -0.778013    20A     -0.739478    21A     -0.683502
      22A     -0.677484    23A     -0.672610    24A     -0.630891
      25A     -0.624737    26A     -0.597695    27A     -0.585770
      28A     -0.559755    29A     -0.530195    30A     -0.516546
      31A     -0.503918    32A     -0.499677    33A     -0.458889
      34A     -0.444652    35A     -0.344611    36A     -0.341183

  @DF-RHF Final Energy:  -457.34971532731350

   => Energetics <=

    Nuclear Repulsion Energy =            492.9121294855240762
    One-Electron Energy =               -1600.1137045667396706
    Two-Electron Energy =                 649.8518597539025450
    DFT Exchange-Correlation Energy =       0.0000000000000000
    Empirical Dispersion Energy =           0.0000000000000000
    PCM Polarization Energy =               0.0000000000000000
    EFP Energy =                            0.0000000000000000
    Total Energy =                       -457.3497153273131062
    Molecular point group: c1
  Basis Set: 6-31G*
  Basis Set:

  -Total Gradient:
     Atom            X                  Y                   Z
    ------   -----------------  -----------------  -----------------
       1       -0.000002170473     0.000017542639    -0.000002770289
       2        0.000016286116    -0.000092223290     0.000009989985
       3        0.000068303057     0.000062549868     0.000000730337
       4       -0.000085355107     0.000041850211    -0.000005867035
       5       -0.000010211919    -0.000002776593    -0.000000243422
       6       -0.000097257617    -0.000008835356    -0.002483920104
       7        0.000017334736    -0.000000652380     0.000003061902
       8        0.000083217392     0.000088912897    -0.000011038450
       9        0.000006548345    -0.000003454463    -0.000006558995
      10        0.000093578904    -0.000352747433     0.004505108001
      11        0.000005449028    -0.000013185995    -0.000001278805
      12       -0.000178946220     0.001037405601    -0.004277158844
      13        0.000111628245    -0.000767015951     0.002263796028
      14       -0.000033082440    -0.000004559871     0.000000306206
      15        0.000009876237    -0.000002297977     0.000007068222
      16        0.000002239631     0.000002488407    -0.000000077555
      17       -0.000004370360    -0.000001872514    -0.000000862062
      18       -0.000003067564    -0.000001127792    -0.000000285119

  **** Optimization is complete! (in 6 steps) ****
    Final optimized geometry and variables:
    Molecular point group: c1

    Geometry (in Angstrom), charge = 0, multiplicity = 1:

    H           -3.966093674207    -0.844626238919    -0.110266434638
    C           -2.907659683482    -0.655125320230    -0.089203559533
    C           -2.440180550491     0.649602517766    -0.073532044479
    C           -2.015199225280    -1.716438782326    -0.082382291246
    H           -3.133343398393     1.471144896949    -0.086797196990
    C           -1.078464098507     0.896372775628    -0.040707356503
    H           -2.378850787405    -2.727846810290    -0.098324734809
    C           -0.653982355138    -1.472024212510    -0.062857535254
    H           -0.711766330782     1.904510570668    -0.022871445418
    C           -0.182105070226    -0.165437558179    -0.027507267638
    H            0.050597096815    -2.281656474438    -0.074533849300
    C            1.292466574534     0.049713620788    -0.042256383643
    O            1.640093012983     1.266189528069     0.349967063447
    O            2.084256251487    -0.785770333286    -0.347731596482
    C            3.024820259498     1.564936104273     0.356851980201
    H            3.549209680982     0.907655125056     1.034857639680
    H            3.102804561145     2.587823830990     0.690530234395
    H            3.440809053280     1.460157480257    -0.634678035490

  Mulliken Charges: (a.u.)
   Center  Symbol    Alpha    Beta     Spin     Total
       1     H     0.39549  0.39549  0.00000  0.20903
       2     C     3.09058  3.09058  0.00000 -0.18116
       3     C     3.10666  3.10666  0.00000 -0.21332
       4     C     3.10666  3.10666  0.00000 -0.21333
       5     H     0.39622  0.39622  0.00000  0.20757
       6     C     3.08877  3.08877  0.00000 -0.17754
       7     H     0.39537  0.39537  0.00000  0.20926
       8     C     3.08747  3.08747  0.00000 -0.17495
       9     H     0.38191  0.38191  0.00000  0.23619
      10     C     3.06600  3.06600  0.00000 -0.13201
      11     H     0.37748  0.37748  0.00000  0.24504
      12     C     2.59032  2.59032  0.00000  0.81936
      13     O     4.31111  4.31111  0.00000 -0.62221
      14     O     4.29026  4.29026  0.00000 -0.58052
      15     C     3.09294  3.09294  0.00000 -0.18588
      16     H     0.40716  0.40716  0.00000  0.18568
      17     H     0.40777  0.40777  0.00000  0.18446
      18     H     0.40784  0.40784  0.00000  0.18432

   Total alpha = 36.00000, Total beta = 36.00000, Total charge =  0.00000
