  ==> Input File <==

--------------------------------------------------------------------------
set {
	reference rhf
	basis cc-pvtz
}

set_num_threads( 4 )
memory 2 gb

molecule MOL {
0 1

H	 1.093097	 -0.623953	 0.107599
C	 0.848385	 0.440008	 0.000011
C	 -0.623497	 0.751021	 0.000090
O	 1.711827	 1.240500	 -0.104512
C	 -1.523725	 -0.474323	 -0.000013
H	 -0.813143	 1.382932	 -0.864897
H	 -0.813071	 1.382716	 0.865253
H	 -1.342980	 -1.087348	 -0.873016
H	 -2.565269	 -0.177464	 0.000070
H	 -1.342898	 -1.087564	 0.872820

	symmetry c1
}
set optking {
	frozen_dihedral = ("
		4 2 3 6
	")
}

ee = optimize('scf')
oeprop('DIPOLE', 'QUADRUPOLE', 'MULLIKEN_CHARGES')
f=open( 'psi4out.xyz', 'w' )
f.write( "10  " )
f.write( str(ee) + "\n" )
f.write( MOL.save_string_xyz() )
f.close()
--------------------------------------------------------------------------

    Molecular point group: c1
  Charge       = 0
  Multiplicity = 1
  Basis Set: CC-PVTZ
  Basis Set:
  @DF-RHF Final Energy:  -192.02177827282196
    Total Energy =                       -192.0217782728218481
    Molecular point group: c1
  Basis Set: CC-PVTZ
  Basis Set:
  Basis Set: CC-PVTZ
  Basis Set:
  @DF-RHF Final Energy:  -192.02197522906437
    Total Energy =                       -192.0219752290645374
  Basis Set: CC-PVTZ
  Basis Set:
  Basis Set: CC-PVTZ
  Basis Set:
  @DF-RHF Final Energy:  -192.02138747129777
    Total Energy =                       -192.0213874712977145
  Basis Set: CC-PVTZ
  Basis Set:
  Basis Set: CC-PVTZ
  Basis Set:
  @DF-RHF Final Energy:  -192.02203567236046
    Total Energy =                       -192.0220356723604596
  Basis Set: CC-PVTZ
  Basis Set:
  Charge       = 0
  Multiplicity = 1
  Basis Set: CC-PVTZ
  Basis Set:

    Orbital Energies (a.u.)
    -----------------------

    Doubly Occupied:

       1A    -20.552784     2A    -11.323898     3A    -11.238259
       4A    -11.230110     5A     -1.408794     6A     -1.067547
       7A     -0.902494     8A     -0.799009     9A     -0.662588
      10A     -0.643083    11A     -0.639322    12A     -0.554261
      13A     -0.547236    14A     -0.526498    15A     -0.492252
      16A     -0.415162

  @DF-RHF Final Energy:  -192.02203682010523

   => Energetics <=

    Nuclear Repulsion Energy =            117.1244989692055185
    One-Electron Energy =                -492.2864770149447509
    Two-Electron Energy =                 183.1399412256340327
    DFT Exchange-Correlation Energy =       0.0000000000000000
    Empirical Dispersion Energy =           0.0000000000000000
    PCM Polarization Energy =               0.0000000000000000
    EFP Energy =                            0.0000000000000000
    Total Energy =                       -192.0220368201052281
    Molecular point group: c1
  Basis Set: CC-PVTZ
  Basis Set:

  -Total Gradient:
     Atom            X                  Y                   Z
    ------   -----------------  -----------------  -----------------
       1       -0.000016767110    -0.000010056079    -0.000004811288
       2       -0.000058782024    -0.000167876426    -0.000661051946
       3        0.000111415497     0.000361004036     0.000481197365
       4       -0.000007205489     0.000088416674     0.000428283322
       5        0.000034620430     0.000039307541    -0.000019273862
       6       -0.000066393441    -0.000335639472    -0.000227281816
       7        0.000006910512     0.000022035336     0.000004767484
       8       -0.000006689821    -0.000010295896    -0.000005755391
       9       -0.000005221454     0.000001450387    -0.000000221319
      10        0.000008112901     0.000011653898     0.000004147453

  **** Optimization is complete! (in 5 steps) ****
    Final optimized geometry and variables:
    Molecular point group: c1

    Geometry (in Angstrom), charge = 0, multiplicity = 1:

    H            1.009240447502    -1.114873820155     0.154347099222
    C            0.749799187312    -0.055367523872     0.029655051013
    C           -0.725929136254     0.272484876809     0.027152948924
    O            1.603179716527     0.753900478062    -0.082644145426
    C           -1.624156000738    -0.957833665882     0.027983896885
    H           -0.916509639718     0.897672498974    -0.837355102765
    H           -0.913581813079     0.889022339794     0.900250514578
    H           -1.453508557675    -1.571052856632    -0.850074237768
    H           -2.667848029322    -0.671653211971     0.032509341387
    H           -1.447087260089    -1.574480387491     0.902342357409

  Mulliken Charges: (a.u.)
   Center  Symbol    Alpha    Beta     Spin     Total
       1     H     0.46274  0.46274  0.00000  0.07452
       2     C     2.90661  2.90661  0.00000  0.18678
       3     C     3.08243  3.08243  0.00000 -0.16486
       4     O     4.16522  4.16522  0.00000 -0.33043
       5     C     3.15454  3.15454  0.00000 -0.30907
       6     H     0.43949  0.43949  0.00000  0.12103
       7     H     0.44106  0.44106  0.00000  0.11788
       8     H     0.45116  0.45116  0.00000  0.09768
       9     H     0.44425  0.44425  0.00000  0.11151
      10     H     0.45252  0.45252  0.00000  0.09496

   Total alpha = 16.00000, Total beta = 16.00000, Total charge = -0.00000
