                              Psi4 1.0.54 Driver

  ==> Input File <==

--------------------------------------------------------------------------
set {
	reference rhf
	basis cc-pvtz
}

set_num_threads( 4 )
memory 2 gb

molecule MOL {
0 1

H	 1.068835	 -0.628888	 -1.182383
O	 1.675515	 -0.612943	 -0.465627
C	 1.135873	 0.113391	 0.608264
C	 0.027642	 1.012027	 0.090274
H	 1.902972	 0.727968	 1.072615
H	 0.756163	 -0.561896	 1.370018
C	 -1.138737	 0.285728	 -0.581921
H	 0.464661	 1.708096	 -0.618252
H	 -0.340737	 1.603071	 0.925246
C	 -1.933983	 -0.631436	 0.343653
H	 -0.763151	 -0.285569	 -1.422081
H	 -1.808359	 1.035291	 -0.992333
H	 -2.789188	 -1.049673	 -0.174718
H	 -1.335629	 -1.461368	 0.700418
H	 -2.305435	 -0.092167	 1.209725

	symmetry c1
}
set optking {
	frozen_dihedral = ("
		1 2 3 4
	")
}

ee,wfn = optimize('scf', return_wfn=True)
oeprop( wfn, 'DIPOLE', 'QUADRUPOLE', 'MULLIKEN_CHARGES')
f=open( 'psi4out.xyz', 'w' )
f.write( "15  " )
f.write( str(ee) + "\n" )
f.write( MOL.save_string_xyz() )
f.close()
--------------------------------------------------------------------------

    Molecular point group: c1
  Charge       = 0
  Multiplicity = 1
  Basis Set: CC-PVTZ
  Basis Set:
  @DF-RHF Final Energy:  -232.23244172683985
    Total Energy =                       -232.2324417268397383
    Molecular point group: c1
  Basis Set: CC-PVTZ
  Basis Set:
  Basis Set: CC-PVTZ
  Basis Set:
  @DF-RHF Final Energy:  -232.23369728461927
    Total Energy =                       -232.2336972846192680
  Basis Set: CC-PVTZ
  Basis Set:
  Basis Set: CC-PVTZ
  Basis Set:
  @DF-RHF Final Energy:  -232.23432975043232
    Total Energy =                       -232.2343297504325506
  Basis Set: CC-PVTZ
  Basis Set:
  Basis Set: CC-PVTZ
  Basis Set:
  @DF-RHF Final Energy:  -232.23473973536261
    Total Energy =                       -232.2347397353624956
  Basis Set: CC-PVTZ
  Basis Set:
  Basis Set: CC-PVTZ
  Basis Set:
  @DF-RHF Final Energy:  -232.23473715060089
    Total Energy =                       -232.2347371506009495
  Basis Set: CC-PVTZ
  Basis Set:
  Basis Set: CC-PVTZ
  Basis Set:
  @DF-RHF Final Energy:  -232.23475182465128
    Total Energy =                       -232.2347518246513118
  Basis Set: CC-PVTZ
  Basis Set:
  Basis Set: CC-PVTZ
  Basis Set:
  @DF-RHF Final Energy:  -232.23475365460610
    Total Energy =                       -232.2347536546059246
  Basis Set: CC-PVTZ
  Basis Set:
  Charge       = 0
  Multiplicity = 1
  Basis Set: CC-PVTZ
  Basis Set:

    Orbital Energies (a.u.)
    -----------------------

    Doubly Occupied:

       1A    -20.542815     2A    -11.264059     3A    -11.226075
       4A    -11.221607     5A    -11.213774     6A     -1.361317
       7A     -1.075524     8A     -0.977866     9A     -0.884225
      10A     -0.793556    11A     -0.679765    12A     -0.648719
      13A     -0.629730    14A     -0.588277    15A     -0.579308
      16A     -0.549016    17A     -0.507763    18A     -0.486456
      19A     -0.481917    20A     -0.459608    21A     -0.431608

  @DF-RHF Final Energy:  -232.23475370928432

   => Energetics <=

    Nuclear Repulsion Energy =            191.6635379473524097
    One-Electron Energy =                -694.5906084041280337
    Two-Electron Energy =                 270.6923167474914749
    DFT Exchange-Correlation Energy =       0.0000000000000000
    Empirical Dispersion Energy =           0.0000000000000000
    PCM Polarization Energy =               0.0000000000000000
    EFP Energy =                            0.0000000000000000
    Total Energy =                       -232.2347537092841208
    Molecular point group: c1
  Basis Set: CC-PVTZ
  Basis Set:

  -Total Gradient:
     Atom            X                  Y                   Z
    ------   -----------------  -----------------  -----------------
       1        0.000550946904     0.001000429633    -0.000458164947
       2       -0.000893885500    -0.001510395537     0.000611563584
       3        0.000845313268     0.001095886528    -0.000232008685
       4       -0.000509655186    -0.000576377731     0.000074245552
       5       -0.000005313699     0.000001374816    -0.000000753512
       6        0.000005546115    -0.000003065407    -0.000011703166
       7        0.000001515471    -0.000001594828    -0.000000248326
       8        0.000003935307    -0.000000928495     0.000006854848
       9       -0.000001123558    -0.000004683169    -0.000001633233
      10       -0.000001760124    -0.000008094375     0.000006912977
      11       -0.000007535038     0.000003140998    -0.000000032583
      12        0.000013509153     0.000004546221     0.000003166355
      13        0.000000351948    -0.000002173044    -0.000001007825
      14        0.000000255332     0.000001712743     0.000003502583
      15       -0.000002100397     0.000000221647    -0.000000693623

  **** Optimization is complete! (in 8 steps) ****
    Final optimized geometry and variables:
    Molecular point group: c1

    Geometry (in Angstrom), charge = 0, multiplicity = 1:

    H            1.468467458045    -0.765038567632    -0.822591297552
    O            1.846623499989    -0.583674440153     0.016486372915
    C            0.999567351660     0.239266837299     0.777215239707
    C           -0.022444454388     1.007210918056    -0.049053463597
    H            1.631334286652     0.944588129105     1.302571694801
    H            0.499082872038    -0.362631430034     1.529213382557
    C           -1.043003214530     0.155639257549    -0.810936605109
    H            0.510378536626     1.638294853302    -0.754840189683
    H           -0.553968124566     1.675821543274     0.622417546726
    C           -1.956864311926    -0.687346993203     0.074498594634
    H           -0.539623462139    -0.493621632871    -1.523573634273
    H           -1.650905655965     0.823370385572    -1.412386612750
    H           -2.703061335612    -1.198159763174    -0.522665419460
    H           -1.405720330601    -1.441924643573     0.622209029028
    H           -2.478765480401    -0.068006119449     0.796538503316

  Mulliken Charges: (a.u.)
   Center  Symbol    Alpha    Beta     Spin     Total
       1     H     0.39072  0.39072  0.00000  0.21855
       2     O     4.20918  4.20918  0.00000 -0.41836
       3     C     2.96001  2.96001  0.00000  0.07997
       4     C     3.11317  3.11317  0.00000 -0.22633
       5     H     0.45694  0.45694  0.00000  0.08612
       6     H     0.47326  0.47326  0.00000  0.05348
       7     C     3.09166  3.09166  0.00000 -0.18332
       8     H     0.44404  0.44404  0.00000  0.11192
       9     H     0.45290  0.45290  0.00000  0.09420
      10     C     3.15226  3.15226  0.00000 -0.30451
      11     H     0.46195  0.46195  0.00000  0.07611
      12     H     0.44493  0.44493  0.00000  0.11013
      13     H     0.44533  0.44533  0.00000  0.10934
      14     H     0.45008  0.45008  0.00000  0.09984
      15     H     0.45357  0.45357  0.00000  0.09286

   Total alpha = 21.00000, Total beta = 21.00000, Total charge =  0.00000

*** Psi4 exiting successfully. Buy a developer a beer!
