  ==> Input File <==

--------------------------------------------------------------------------
set {
	reference rhf
	basis cc-pvtz
}

set_num_threads( 4 )
memory 2 gb

molecule MOL {
0 1

H	 3.273419	 0.176595	 -0.102789
N	 2.433987	 -0.362316	 -0.080024
C	 1.263552	 0.494993	 0.021953
H	 2.497638	 -0.973615	 0.707122
C	 -0.016533	 -0.325589	 -0.026925
H	 1.280915	 1.180773	 -0.818522
H	 1.263064	 1.106893	 0.925038
C	 -1.280353	 0.525521	 0.047747
H	 -0.016686	 -0.912532	 -0.939714
H	 -0.014099	 -1.037598	 0.796369
C	 -1.127528	 1.881644	 -0.633110
H	 -1.550681	 0.675864	 1.089517
H	 -2.107871	 -0.012782	 -0.406475
H	 -0.329073	 2.458894	 -0.179258
H	 -2.039308	 2.463224	 -0.559819
H	 -0.892565	 1.766390	 -1.686054

	symmetry c1
}
set optking {
	frozen_dihedral = ("
		12 8 5 9
	")
}

ee = optimize('scf')
oeprop('DIPOLE', 'QUADRUPOLE', 'MULLIKEN_CHARGES')
f=open( 'psi4out.xyz', 'w' )
f.write( "16  " )
f.write( str(ee) + "\n" )
f.write( MOL.save_string_xyz() )
f.close()
--------------------------------------------------------------------------

    Molecular point group: c1
  Charge       = 0
  Multiplicity = 1
  Basis Set: CC-PVTZ
  Basis Set:
  @DF-RHF Final Energy:  -212.39316310691871
    Total Energy =                       -212.3931631069186778
    Molecular point group: c1
  Basis Set: CC-PVTZ
  Basis Set:
  Basis Set: CC-PVTZ
  Basis Set:
  @DF-RHF Final Energy:  -212.39460653777707
    Total Energy =                       -212.3946065377769514
  Basis Set: CC-PVTZ
  Basis Set:
  Basis Set: CC-PVTZ
  Basis Set:
  @DF-RHF Final Energy:  -212.39572194355063
    Total Energy =                       -212.3957219435505976
  Basis Set: CC-PVTZ
  Basis Set:
  Basis Set: CC-PVTZ
  Basis Set:
  @DF-RHF Final Energy:  -212.39581885577806
    Total Energy =                       -212.3958188557783160
  Basis Set: CC-PVTZ
  Basis Set:
  Basis Set: CC-PVTZ
  Basis Set:
  @DF-RHF Final Energy:  -212.39582798579292
    Total Energy =                       -212.3958279857930620
  Basis Set: CC-PVTZ
  Basis Set:
  Charge       = 0
  Multiplicity = 1
  Basis Set: CC-PVTZ
  Basis Set:

    Orbital Energies (a.u.)
    -----------------------

    Doubly Occupied:

       1A    -15.526433     2A    -11.237841     3A    -11.213312
       4A    -11.208217     5A    -11.206424     6A     -1.178348
       7A     -1.058242     8A     -0.955574     9A     -0.863697
      10A     -0.775812    11A     -0.665250    12A     -0.633748
      13A     -0.607934    14A     -0.591153    15A     -0.548364
      16A     -0.528417    17A     -0.516667    18A     -0.467625
      19A     -0.459068    20A     -0.457289    21A     -0.383778

  @DF-RHF Final Energy:  -212.39582891397853

   => Energetics <=

    Nuclear Repulsion Energy =            189.2486541530782063
    One-Electron Energy =                -661.1225825289599243
    Two-Electron Energy =                 259.4780994619029570
    DFT Exchange-Correlation Energy =       0.0000000000000000
    Empirical Dispersion Energy =           0.0000000000000000
    PCM Polarization Energy =               0.0000000000000000
    EFP Energy =                            0.0000000000000000
    Total Energy =                       -212.3958289139787894
    Molecular point group: c1
  Basis Set: CC-PVTZ
  Basis Set:

  -Total Gradient:
     Atom            X                  Y                   Z
    ------   -----------------  -----------------  -----------------
       1        0.000004485454    -0.000002678339     0.000005772691
       2        0.000026051531    -0.000006833256    -0.000009241206
       3       -0.000024143967    -0.000008683275    -0.000037651226
       4        0.000001589822    -0.000000013649     0.000003690796
       5        0.002289000034     0.004123364346    -0.003313803625
       6        0.000006617195    -0.000015491511    -0.000004575719
       7       -0.000019789124     0.000010023613    -0.000004303513
       8        0.003176974581     0.004574771612     0.000784621671
       9       -0.002434324637    -0.004129048180     0.002616692501
      10       -0.000011883478     0.000005876391     0.000026232254
      11        0.000023085086    -0.000013179302     0.000039107767
      12       -0.003019819141    -0.004520230980    -0.000096043266
      13       -0.000020360014    -0.000001335027    -0.000017452268
      14       -0.000021886921     0.000009389573     0.000010259747
      15       -0.000001775810    -0.000015516210    -0.000004535377
      16        0.000026179388    -0.000010415806     0.000001228773

  **** Optimization is complete! (in 6 steps) ****
    Final optimized geometry and variables:
    Molecular point group: c1

    Geometry (in Angstrom), charge = 0, multiplicity = 1:

    H            3.026903373619    -0.405527724454     0.107737620175
    N            2.156867710504    -0.893755439342     0.093830786870
    C            1.035710343959     0.030706114786     0.152513226848
    H            2.152198422197    -1.511911520977     0.878053094274
    C           -0.279325666498    -0.726946552127     0.052271276485
    H            1.133888219377     0.716531460405    -0.679942610522
    H            1.032536976596     0.636906227063     1.060211107309
    C           -1.553360261637     0.118547097219     0.192481098969
    H           -0.306168663280    -1.298268517198    -0.869525094779
    H           -0.294800540192    -1.477842482898     0.839943796345
    C           -1.545676784882     1.463762266839    -0.527031990985
    H           -1.789941525502     0.250864658452     1.244240562245
    H           -2.377902923724    -0.471256733580    -0.197564513249
    H           -0.812105489738     2.144164458768    -0.111443952028
    H           -2.515183575163     1.941852363347    -0.447899941525
    H           -1.324139302561     1.342368027161    -1.582421728029

  Mulliken Charges: (a.u.)
   Center  Symbol    Alpha    Beta     Spin     Total
       1     H     0.43007  0.43007  0.00000  0.13987
       2     N     3.69006  3.69006  0.00000 -0.38013
       3     C     3.02771  3.02771  0.00000 -0.05542
       4     H     0.43096  0.43096  0.00000  0.13808
       5     C     3.08774  3.08774  0.00000 -0.17548
       6     H     0.45408  0.45408  0.00000  0.09183
       7     H     0.46732  0.46732  0.00000  0.06537
       8     C     3.09362  3.09362  0.00000 -0.18723
       9     H     0.44729  0.44729  0.00000  0.10542
      10     H     0.45842  0.45842  0.00000  0.08315
      11     C     3.15693  3.15693  0.00000 -0.31385
      12     H     0.45381  0.45381  0.00000  0.09239
      13     H     0.45089  0.45089  0.00000  0.09823
      14     H     0.45345  0.45345  0.00000  0.09310
      15     H     0.44530  0.44530  0.00000  0.10939
      16     H     0.45235  0.45235  0.00000  0.09530

   Total alpha = 21.00000, Total beta = 21.00000, Total charge =  0.00000
