  ==> Input File <==

--------------------------------------------------------------------------
set {
	reference rhf
	basis 6-31G*
}

set_num_threads( 4 )
memory 2 gb

molecule MOL {
0 1

O	 0.796948	 1.215579	 0.435254
C	 0.576249	 0.131685	 -0.000108
C	 -0.766779	 -0.556801	 -0.000461
O	 1.508209	 -0.631562	 -0.556496
C	 -1.945214	 0.412366	 0.000161
H	 -0.796911	 -1.211249	 -0.867467
H	 -0.796854	 -1.212390	 0.865687
C	 -3.287791	 -0.317055	 0.000105
H	 -1.876087	 1.060580	 -0.866812
H	 -1.875822	 1.059691	 0.867761
H	 -3.394745	 -0.949193	 -0.877058
H	 -4.111778	 0.388953	 0.000015
H	 -3.394954	 -0.949187	 0.877259
C	 2.819693	 -0.101274	 -0.619857
H	 2.833448	 0.809926	 -1.200432
H	 3.421269	 -0.858475	 -1.097998
H	 3.194980	 0.103998	 0.372379

	symmetry c1
}
set optking {
	frozen_dihedral = ("
		1 2 3 6
	")
}

ee = optimize('scf')
oeprop('DIPOLE', 'QUADRUPOLE', 'MULLIKEN_CHARGES')
f=open( 'psi4out.xyz', 'w' )
f.write( "17  " )
f.write( str(ee) + "\n" )
f.write( MOL.save_string_xyz() )
f.close()
--------------------------------------------------------------------------

    Molecular point group: c1
  Charge       = 0
  Multiplicity = 1
  Basis Set: 6-31G*
  Basis Set:
  @DF-RHF Final Energy:  -344.90617090044873
    Total Energy =                       -344.9061709004490126
    Molecular point group: c1
  Basis Set: 6-31G*
  Basis Set:
  Basis Set: 6-31G*
  Basis Set:
  @DF-RHF Final Energy:  -344.90524972263927
    Total Energy =                       -344.9052497226397236
  Basis Set: 6-31G*
  Basis Set:
  Basis Set: 6-31G*
  Basis Set:
  @DF-RHF Final Energy:  -344.90633665275266
    Total Energy =                       -344.9063366527525432
  Basis Set: 6-31G*
  Basis Set:
  Basis Set: 6-31G*
  Basis Set:
  @DF-RHF Final Energy:  -344.90640580387560
    Total Energy =                       -344.9064058038752023
  Basis Set: 6-31G*
  Basis Set:
  Charge       = 0
  Multiplicity = 1
  Basis Set: 6-31G*
  Basis Set:

    Orbital Energies (a.u.)
    -----------------------

    Doubly Occupied:

       1A    -20.605014     2A    -20.544803     3A    -11.372652
       4A    -11.281158     5A    -11.235728     6A    -11.223331
       7A    -11.215058     8A     -1.470024     9A     -1.362820
      10A     -1.080773    11A     -1.001402    12A     -0.940286
      13A     -0.827682    14A     -0.768532    15A     -0.700013
      16A     -0.682869    17A     -0.672344    18A     -0.636879
      19A     -0.594922    20A     -0.577797    21A     -0.566055
      22A     -0.529128    23A     -0.522709    24A     -0.499550
      25A     -0.486612    26A     -0.478669    27A     -0.456580
      28A     -0.437108

  @DF-RHF Final Energy:  -344.90640625462765

   => Energetics <=

    Nuclear Repulsion Energy =            312.4647719388119640
    One-Electron Energy =               -1089.2013591986321899
    Two-Electron Energy =                 431.8301810051927987
    DFT Exchange-Correlation Energy =       0.0000000000000000
    Empirical Dispersion Energy =           0.0000000000000000
    PCM Polarization Energy =               0.0000000000000000
    EFP Energy =                            0.0000000000000000
    Total Energy =                       -344.9064062546274272
    Molecular point group: c1
  Basis Set: 6-31G*
  Basis Set:

  -Total Gradient:
     Atom            X                  Y                   Z
    ------   -----------------  -----------------  -----------------
       1        0.000226956428    -0.000463104452     0.000808485092
       2       -0.000267557805     0.000518798088    -0.001126885074
       3       -0.000348039761     0.000706762193    -0.000140124331
       4       -0.000000731044     0.000029617961    -0.000117779253
       5        0.000007928874    -0.000000054693    -0.000016184587
       6        0.000387324286    -0.000692230188     0.000482205244
       7       -0.000020563652    -0.000031248896    -0.000001864585
       8        0.000008012347    -0.000010440867    -0.000005499404
       9        0.000012116198    -0.000017320031     0.000015937614
      10       -0.000007178039     0.000006637055     0.000003956090
      11       -0.000002414297    -0.000002217260     0.000000259352
      12        0.000004388761     0.000003764247    -0.000005299384
      13       -0.000000984084    -0.000000438996     0.000000667649
      14       -0.000003657398    -0.000108353597     0.000205015980
      15       -0.000049959618     0.000021800432    -0.000029028927
      16        0.000007302849     0.000019265351    -0.000031106016
      17        0.000047055950     0.000018763653    -0.000042755457

  **** Optimization is complete! (in 5 steps) ****
    Final optimized geometry and variables:
    Molecular point group: c1

    Geometry (in Angstrom), charge = 0, multiplicity = 1:

    O            0.791738492368     1.195966371605     0.513611790322
    C            0.583297953726     0.112874967015     0.069165077896
    C           -0.757188064323    -0.581452392062     0.065585543716
    O            1.532111761398    -0.651101749237    -0.454952197809
    C           -1.937130531946     0.386741608562     0.115749282861
    H           -0.807410274593    -1.235840086556    -0.797270548380
    H           -0.766747358881    -1.233236001493     0.937457273797
    C           -3.278027336541    -0.343595538354     0.165865800740
    H           -1.905892816955     1.035403551747    -0.754858438974
    H           -1.830583013149     1.031320952455     0.980176721417
    H           -3.417799729264    -0.976568273372    -0.705929263169
    H           -4.101883051032     0.361858262692     0.197012219765
    H           -3.350336103666    -0.974703294307     1.047272490779
    C            2.849131195451    -0.130327241588    -0.454368016352
    H            2.894046754295     0.787343993301    -1.022880078176
    H            3.465534912508    -0.886450939555    -0.915052492675
    H            3.182234790452     0.060797276722     0.555588822519

  Mulliken Charges: (a.u.)
   Center  Symbol    Alpha    Beta     Spin     Total
       1     O     4.28634  4.28634  0.00000 -0.57268
       2     C     2.60488  2.60488  0.00000  0.79025
       3     C     3.20711  3.20711  0.00000 -0.41421
       4     O     4.30650  4.30650  0.00000 -0.61300
       5     C     3.15456  3.15456  0.00000 -0.30913
       6     H     0.40101  0.40101  0.00000  0.19798
       7     H     0.40060  0.40060  0.00000  0.19880
       8     C     3.24243  3.24243  0.00000 -0.48487
       9     H     0.41556  0.41556  0.00000  0.16888
      10     H     0.40500  0.40500  0.00000  0.19000
      11     H     0.42113  0.42113  0.00000  0.15774
      12     H     0.41513  0.41513  0.00000  0.16975
      13     H     0.42084  0.42084  0.00000  0.15833
      14     C     3.09300  3.09300  0.00000 -0.18601
      15     H     0.40844  0.40844  0.00000  0.18313
      16     H     0.40833  0.40833  0.00000  0.18334
      17     H     0.40915  0.40915  0.00000  0.18171

   Total alpha = 28.00000, Total beta = 28.00000, Total charge =  0.00000
