  ==> Input File <==

--------------------------------------------------------------------------
set {
	reference rhf
	basis cc-pvtz
}

set_num_threads( 4 )
memory 2 gb

molecule MOL {
0 1

H	 -0.939693	 0.000281	 1.681345
O	 -0.046262	 -0.000157	 1.387678
C	 -0.000837	 0.000006	 -0.025491
C	 -0.477155	 -1.352195	 -0.552581
C	 -0.875535	 1.129996	 -0.565094
C	 1.460862	 0.232789	 -0.382473
H	 -0.419266	 -1.394961	 -1.634068
H	 -1.509390	 -1.533960	 -0.268817
H	 0.130218	 -2.149571	 -0.143006
H	 -0.832178	 1.178127	 -1.647032
H	 -1.913271	 0.982376	 -0.281570
H	 -0.548872	 2.081374	 -0.164300
H	 1.598314	 0.249469	 -1.457237
H	 2.077761	 -0.554253	 0.032511
H	 1.799879	 1.177344	 0.023849

	symmetry c1
}
set optking {
	frozen_dihedral = ("
		4 3 2 1
	")
}

ee = optimize('scf')
oeprop('DIPOLE', 'QUADRUPOLE', 'MULLIKEN_CHARGES')
f=open( 'psi4out.xyz', 'w' )
f.write( "15  " )
f.write( str(ee) + "\n" )
f.write( MOL.save_string_xyz() )
f.close()
--------------------------------------------------------------------------

    Molecular point group: c1
  Charge       = 0
  Multiplicity = 1
  Basis Set: CC-PVTZ
  Basis Set:
  @DF-RHF Final Energy:  -232.24668336706563
    Total Energy =                       -232.2466833670654296
    Molecular point group: c1
  Basis Set: CC-PVTZ
  Basis Set:
  Basis Set: CC-PVTZ
  Basis Set:
  @DF-RHF Final Energy:  -232.24668888091611
    Total Energy =                       -232.2466888809160537
  Basis Set: CC-PVTZ
  Basis Set:
  Basis Set: CC-PVTZ
  Basis Set:
  @DF-RHF Final Energy:  -232.24669049333491
    Total Energy =                       -232.2466904933349952
  Basis Set: CC-PVTZ
  Basis Set:
  Charge       = 0
  Multiplicity = 1
  Basis Set: CC-PVTZ
  Basis Set:

    Orbital Energies (a.u.)
    -----------------------

    Doubly Occupied:

       1A    -20.542158     2A    -11.280784     3A    -11.210905
       4A    -11.207784     5A    -11.203776     6A     -1.364889
       7A     -1.065229     8A     -0.942828     9A     -0.939688
      10A     -0.778504    11A     -0.672646    12A     -0.624276
      13A     -0.622836    14A     -0.575947    15A     -0.557622
      16A     -0.532773    17A     -0.517026    18A     -0.511285
      19A     -0.504626    20A     -0.458631    21A     -0.428762

  @DF-RHF Final Energy:  -232.24669092935221

   => Energetics <=

    Nuclear Repulsion Energy =            200.6734567207593045
    One-Electron Energy =                -712.7543448731980789
    Two-Electron Energy =                 279.8341972230869033
    DFT Exchange-Correlation Energy =       0.0000000000000000
    Empirical Dispersion Energy =           0.0000000000000000
    PCM Polarization Energy =               0.0000000000000000
    EFP Energy =                            0.0000000000000000
    Total Energy =                       -232.2466909293518711
    Molecular point group: c1
  Basis Set: CC-PVTZ
  Basis Set:

  -Total Gradient:
     Atom            X                  Y                   Z
    ------   -----------------  -----------------  -----------------
       1        0.000007853332     0.000834021330    -0.000000548275
       2        0.000165667857    -0.001080130289    -0.000014641332
       3       -0.000661134932     0.000407499512    -0.000026440016
       4        0.000459049255    -0.000173953597     0.000016294846
       5        0.000004874724    -0.000000214893     0.000013077152
       6        0.000001882350     0.000034118567     0.000003976127
       7        0.000007309630    -0.000007697337    -0.000014007050
       8        0.000012373931    -0.000003642112     0.000002327863
       9       -0.000011113723     0.000003688827     0.000003582217
      10        0.000006665965    -0.000011261443     0.000020005193
      11       -0.000015334313    -0.000003858655    -0.000002127040
      12        0.000010988654     0.000001597446    -0.000002407881
      13       -0.000000064208    -0.000005728262     0.000003091567
      14       -0.000010052903    -0.000000020370    -0.000001014940
      15        0.000021034381     0.000005581275    -0.000001168432

  **** Optimization is complete! (in 4 steps) ****
    Final optimized geometry and variables:
    Molecular point group: c1

    Geometry (in Angstrom), charge = 0, multiplicity = 1:

    H           -0.938662001221    -0.008656609490     1.683005276918
    O           -0.045899015920    -0.006318813946     1.387826268018
    C           -0.001675829257    -0.000708521499    -0.025499352469
    C           -0.476547673984    -1.353172214993    -0.553718748453
    C           -0.874901163246     1.130427856567    -0.563503906984
    C            1.460408105688     0.230554481846    -0.383168302756
    H           -0.418441342301    -1.395977327742    -1.635381121829
    H           -1.507628558651    -1.536866380745    -0.268193394907
    H            0.132376108750    -2.148842005409    -0.143553159927
    H           -0.829635888907     1.179822705426    -1.645046410635
    H           -1.913790346588     0.982323971004    -0.283391491915
    H           -0.548520691577     2.081607790394    -0.161589555772
    H            1.599884730174     0.233521356772    -1.457803200027
    H            2.077020794504    -0.551183772438     0.042200011868
    H            1.798442355381     1.179976877547     0.012457571231

  Mulliken Charges: (a.u.)
   Center  Symbol    Alpha    Beta     Spin     Total
       1     H     0.39559  0.39559  0.00000  0.20882
       2     O     4.21120  4.21120  0.00000 -0.42240
       3     C     2.87828  2.87828  0.00000  0.24345
       4     C     3.14872  3.14872  0.00000 -0.29743
       5     C     3.15190  3.15190  0.00000 -0.30379
       6     C     3.14299  3.14299  0.00000 -0.28599
       7     H     0.45630  0.45630  0.00000  0.08741
       8     H     0.45549  0.45549  0.00000  0.08901
       9     H     0.44701  0.44701  0.00000  0.10597
      10     H     0.45466  0.45466  0.00000  0.09069
      11     H     0.45622  0.45622  0.00000  0.08757
      12     H     0.44594  0.44594  0.00000  0.10811
      13     H     0.45880  0.45880  0.00000  0.08240
      14     H     0.44778  0.44778  0.00000  0.10443
      15     H     0.44912  0.44912  0.00000  0.10176

   Total alpha = 21.00000, Total beta = 21.00000, Total charge = -0.00000
