  ==> Input File <==

--------------------------------------------------------------------------
set {
	reference rhf
	basis 6-31G*
}

set_num_threads( 4 )
memory 2 gb

molecule MOL {
0 1

H	 -0.629772	 1.841590	 -2.206889
C	 0.068095	 1.979439	 -1.371614
C	 0.065331	 0.871482	 -0.349150
O	 0.757924	 2.945625	 -1.323244
C	 -1.339775	 0.583656	 0.198860
H	 0.753781	 1.137125	 0.444818
H	 0.448630	 -0.021570	 -0.840783
C	 -1.808407	 -0.848507	 -0.061364
H	 -2.036183	 1.280685	 -0.256307
H	 -1.360094	 0.788874	 1.267089
H	 -1.828843	 -1.063152	 -1.125336
H	 -2.808409	 -1.004529	 0.329750
H	 -1.153967	 -1.577789	 0.406873

	symmetry c1
}
set optking {
	frozen_dihedral = ("
		6 3 5 9
	")
}

ee = optimize('scf')
oeprop('DIPOLE', 'QUADRUPOLE', 'MULLIKEN_CHARGES')
f=open( 'psi4out.xyz', 'w' )
f.write( "13  " )
f.write( str(ee) + "\n" )
f.write( MOL.save_string_xyz() )
f.close()
--------------------------------------------------------------------------

    Molecular point group: c1
  Charge       = 0
  Multiplicity = 1
  Basis Set: 6-31G*
  Basis Set:
  @DF-RHF Final Energy:  -230.97970795901600
    Total Energy =                       -230.9797079590159683
    Molecular point group: c1
  Basis Set: 6-31G*
  Basis Set:
  Basis Set: 6-31G*
  Basis Set:
  @DF-RHF Final Energy:  -230.97970624907759
    Total Energy =                       -230.9797062490776511
  Basis Set: 6-31G*
  Basis Set:
  Basis Set: 6-31G*
  Basis Set:
  @DF-RHF Final Energy:  -230.97567894668890
    Total Energy =                       -230.9756789466887597
  Basis Set: 6-31G*
  Basis Set:
  Basis Set: 6-31G*
  Basis Set:
  @DF-RHF Final Energy:  -230.98003803245442
    Total Energy =                       -230.9800380324542743
  Basis Set: 6-31G*
  Basis Set:
  @DF-RHF Final Energy:  -230.98008789555354
    Total Energy =                       -230.9800878955535950
  Basis Set: 6-31G*
  Basis Set:
  @DF-RHF Final Energy:  -230.98008891189022
    Total Energy =                       -230.9800889118900500
  Basis Set: 6-31G*
  Basis Set:
  Basis Set: 6-31G*
  Basis Set:
  @DF-RHF Final Energy:  -230.98009872512827
    Total Energy =                       -230.9800987251282720
  Basis Set: 6-31G*
  Basis Set:
  Basis Set: 6-31G*
  Basis Set:
  @DF-RHF Final Energy:  -230.98010002371831
    Total Energy =                       -230.9801000237184212
  Basis Set: 6-31G*
  Basis Set:
  Charge       = 0
  Multiplicity = 1
  Basis Set: 6-31G*
  Basis Set:

    Orbital Energies (a.u.)
    -----------------------

    Doubly Occupied:

       1A    -20.562678     2A    -11.327543     3A    -11.239085
       4A    -11.235815     5A    -11.224927     6A     -1.403067
       7A     -1.084663     8A     -0.976290     9A     -0.843864
      10A     -0.794126    11A     -0.672905    12A     -0.647290
      13A     -0.614524    14A     -0.588779    15A     -0.580070
      16A     -0.525094    17A     -0.508770    18A     -0.490317
      19A     -0.484268    20A     -0.410881

  @DF-RHF Final Energy:  -230.98010060178206

   => Energetics <=

    Nuclear Repulsion Energy =            170.4403654650380986
    One-Electron Energy =                -650.4110174514454457
    Two-Electron Energy =                 248.9905513846252347
    DFT Exchange-Correlation Energy =       0.0000000000000000
    Empirical Dispersion Energy =           0.0000000000000000
    PCM Polarization Energy =               0.0000000000000000
    EFP Energy =                            0.0000000000000000
    Total Energy =                       -230.9801006017821123
    Molecular point group: c1
  Basis Set: 6-31G*
  Basis Set:

  -Total Gradient:
     Atom            X                  Y                   Z
    ------   -----------------  -----------------  -----------------
       1       -0.000000555957    -0.000005415478    -0.000000599348
       2       -0.000001213693     0.000000790397     0.000009952369
       3        0.000213536570    -0.000631527591     0.000185680825
       4        0.000005536438     0.000005155057    -0.000003234125
       5       -0.000154735824    -0.000316326963    -0.000572100553
       6       -0.000147799301     0.000575613368    -0.000070954584
       7       -0.000003619076     0.000000956217     0.000002557823
       8       -0.000001104424    -0.000004395867     0.000010166189
       9        0.000089595780     0.000382125210     0.000439763668
      10        0.000001610354    -0.000005720936    -0.000003163432
      11        0.000001912264     0.000006897297     0.000003329015
      12       -0.000003277249    -0.000004906513    -0.000000674641
      13        0.000000114117    -0.000003244203    -0.000000723202

  **** Optimization is complete! (in 9 steps) ****
    Final optimized geometry and variables:
    Molecular point group: c1

    Geometry (in Angstrom), charge = 0, multiplicity = 1:

    H           -0.231175129576     0.808949634936    -1.569731860465
    C            0.520725228586     0.893848979027    -0.775455941020
    C            0.503912428861    -0.218300830130     0.243384828557
    O            1.276348002503     1.810183792717    -0.763456393500
    C           -0.916750387812    -0.516769695359     0.779010667516
    H            1.190079615365     0.053196007590     1.035639084087
    H            0.909549913721    -1.101170165171    -0.248027861025
    C           -1.374025826983    -1.954535261176     0.534958079690
    H           -1.634702076092     0.165195775680     0.328595370459
    H           -0.944029715709    -0.305834660555     1.842442168243
    H           -1.400778393947    -2.183326935889    -0.526691536341
    H           -2.368651654998    -2.121174656191     0.935496720449
    H           -0.701166689244    -2.662996742718     1.008963721021

  Mulliken Charges: (a.u.)
   Center  Symbol    Alpha    Beta     Spin     Total
       1     H     0.43203  0.43203  0.00000  0.13593
       2     C     2.83205  2.83205  0.00000  0.33590
       3     C     3.21093  3.21093  0.00000 -0.42186
       4     O     4.23779  4.23779  0.00000 -0.47557
       5     C     3.16708  3.16708  0.00000 -0.33416
       6     H     0.39624  0.39624  0.00000  0.20753
       7     H     0.40487  0.40487  0.00000  0.19026
       8     C     3.24103  3.24103  0.00000 -0.48206
       9     H     0.41557  0.41557  0.00000  0.16886
      10     H     0.40916  0.40916  0.00000  0.18168
      11     H     0.42036  0.42036  0.00000  0.15928
      12     H     0.41543  0.41543  0.00000  0.16914
      13     H     0.41746  0.41746  0.00000  0.16508

   Total alpha = 20.00000, Total beta = 20.00000, Total charge = -0.00000
