  ==> Input File <==

--------------------------------------------------------------------------
set {
	reference rhf
	basis cc-pvtz
}

set_num_threads( 4 )
memory 2 gb

molecule MOL {
0 1

H	 -2.452979	 2.404516	 0.703141
O	 -1.771673	 1.810511	 0.447844
C	 -2.302264	 0.528872	 0.237390
C	 -1.175688	 -0.398187	 -0.171891
H	 -2.775386	 0.159031	 1.144664
H	 -3.062066	 0.554513	 -0.540989
C	 0.196029	 0.106276	 0.266738
H	 -1.201873	 -0.515469	 -1.250677
H	 -1.365975	 -1.378728	 0.252664
C	 1.330220	 -0.826136	 -0.155230
H	 0.359542	 1.097229	 -0.145561
H	 0.212134	 0.218135	 1.348778
C	 2.719700	 -0.407669	 0.328325
H	 1.339388	 -0.911200	 -1.239363
H	 1.119001	 -1.821953	 0.224128
C	 3.241564	 0.893452	 -0.276737
H	 3.418299	 -1.204729	 0.093035
H	 2.711776	 -0.323368	 1.411960
H	 3.254204	 0.841071	 -1.360784
H	 2.634460	 1.745075	 0.005842
H	 4.254264	 1.092401	 0.054971

	symmetry c1
}
set optking {
	frozen_dihedral = ("
		2 3 4 8
	")
}

ee = optimize('scf')
oeprop('DIPOLE', 'QUADRUPOLE', 'MULLIKEN_CHARGES')
f=open( 'psi4out.xyz', 'w' )
f.write( "21  " )
f.write( str(ee) + "\n" )
f.write( MOL.save_string_xyz() )
f.close()
--------------------------------------------------------------------------

    Molecular point group: c1
  Charge       = 0
  Multiplicity = 1
  Basis Set: CC-PVTZ
  Basis Set:
  @DF-RHF Final Energy:  -310.32519294143674
    Total Energy =                       -310.3251929414367964
    Molecular point group: c1
  Basis Set: CC-PVTZ
  Basis Set:
  Basis Set: CC-PVTZ
  Basis Set:
  @DF-RHF Final Energy:  -310.32596231236801
    Total Energy =                       -310.3259623123678352
  Basis Set: CC-PVTZ
  Basis Set:
  Basis Set: CC-PVTZ
  Basis Set:
  @DF-RHF Final Energy:  -310.32698045845143
    Total Energy =                       -310.3269804584514873
  Basis Set: CC-PVTZ
  Basis Set:
  Basis Set: CC-PVTZ
  Basis Set:
  @DF-RHF Final Energy:  -310.32703110386598
    Total Energy =                       -310.3270311038659202
  Basis Set: CC-PVTZ
  Basis Set:
  Basis Set: CC-PVTZ
  Basis Set:
  @DF-RHF Final Energy:  -310.32703350475100
    Total Energy =                       -310.3270335047510002
  Basis Set: CC-PVTZ
  Basis Set:
  Basis Set: CC-PVTZ
  Basis Set:
  @DF-RHF Final Energy:  -310.32703589947289
    Total Energy =                       -310.3270358994727758
  Basis Set: CC-PVTZ
  Basis Set:
  Charge       = 0
  Multiplicity = 1
  Basis Set: CC-PVTZ
  Basis Set:

    Orbital Energies (a.u.)
    -----------------------

    Doubly Occupied:

       1A    -20.545911     2A    -11.266629     3A    -11.210898
       4A    -11.207825     5A    -11.205494     6A    -11.202246
       7A    -11.200259     8A     -1.363850     9A     -1.080097
      10A     -1.028023    11A     -0.952868    12A     -0.876286
      13A     -0.800720    14A     -0.772994    15A     -0.700371
      16A     -0.654032    17A     -0.619807    18A     -0.603200
      19A     -0.586555    20A     -0.562903    21A     -0.536117
      22A     -0.521341    23A     -0.497896    24A     -0.493529
      25A     -0.481694    26A     -0.457487    27A     -0.448182
      28A     -0.437898    29A     -0.427675

  @DF-RHF Final Energy:  -310.32703689495156

   => Energetics <=

    Nuclear Repulsion Energy =            318.4289899343898469
    One-Electron Energy =               -1052.0264810777121056
    Two-Electron Energy =                 423.2704542483703563
    DFT Exchange-Correlation Energy =       0.0000000000000000
    Empirical Dispersion Energy =           0.0000000000000000
    PCM Polarization Energy =               0.0000000000000000
    EFP Energy =                            0.0000000000000000
    Total Energy =                       -310.3270368949519025
    Molecular point group: c1
  Basis Set: CC-PVTZ
  Basis Set:

  -Total Gradient:
     Atom            X                  Y                   Z
    ------   -----------------  -----------------  -----------------
       1        0.000012797383    -0.000054354449    -0.000011223399
       2        0.001064822490    -0.000974092980     0.004586467803
       3       -0.002164180556     0.000196671334    -0.005911629353
       4        0.004569149461     0.005985120938     0.000648422428
       5        0.000010134188    -0.000060425251    -0.000024142779
       6        0.000000211084    -0.000053219149    -0.000008110545
       7        0.000000682039    -0.000003852277     0.000031632221
       8       -0.003489661651    -0.005070622718     0.000671384172
       9       -0.000019052480     0.000014455460     0.000018852009
      10        0.000028110949     0.000025106427    -0.000025741002
      11       -0.000008389531    -0.000021674884     0.000005084919
      12        0.000004405488     0.000009794900     0.000018377447
      13       -0.000020050553     0.000017587241     0.000013425767
      14        0.000000829027    -0.000001985609    -0.000010072602
      15        0.000004307362     0.000003291173     0.000000984481
      16        0.000008226512    -0.000004801215    -0.000005960937
      17       -0.000008165846    -0.000001802746     0.000002761165
      18       -0.000005655170     0.000004373754     0.000003541350
      19       -0.000005798551     0.000003501191    -0.000003448705
      20        0.000012538927    -0.000008552999     0.000005262544
      21        0.000004739430    -0.000004518140    -0.000005866984

  **** Optimization is complete! (in 7 steps) ****
    Final optimized geometry and variables:
    Molecular point group: c1

    Geometry (in Angstrom), charge = 0, multiplicity = 1:

    H           -2.927170263137     2.077195976905     0.603718019328
    O           -2.186845506471     1.551936957846     0.363214026368
    C           -2.596787885582     0.225861635153     0.146162900296
    C           -1.413286753068    -0.638683703066    -0.301753354104
    H           -3.003356541369    -0.176029864928     1.071070320016
    H           -3.385338154849     0.184622914641    -0.599253623456
    C           -0.039845285903    -0.157741589194     0.155551825823
    H           -1.438961030259    -0.767510952703    -1.379569774566
    H           -1.583446727325    -1.637303024879     0.093034478677
    C            1.071555707209    -1.121208132460    -0.256517886526
    H            0.144920457017     0.827399197519    -0.248466494149
    H           -0.038740629031    -0.047562266418     1.236663637609
    C            2.468278272938    -0.728316287943     0.228332907525
    H            1.084385672540    -1.214519392901    -1.340471061244
    H            0.840527217981    -2.110921624633     0.128869276043
    C            3.021366820443     0.552876465611    -0.391138407364
    H            3.150526096622    -1.543738468443     0.007347117175
    H            2.456492544303    -0.628876121709     1.310599199005
    H            3.038726319358     0.485022607101    -1.474331131165
    H            2.430318272587     1.420146730178    -0.123952694431
    H            4.036550740330     0.734277335446    -0.056455783930

  Mulliken Charges: (a.u.)
   Center  Symbol    Alpha    Beta     Spin     Total
       1     H     0.39829  0.39829  0.00000  0.20341
       2     O     4.19243  4.19243  0.00000 -0.38485
       3     C     2.96968  2.96968  0.00000  0.06064
       4     C     3.10080  3.10080  0.00000 -0.20160
       5     H     0.47308  0.47308  0.00000  0.05385
       6     H     0.46844  0.46844  0.00000  0.06311
       7     C     3.08573  3.08573  0.00000 -0.17146
       8     H     0.45328  0.45328  0.00000  0.09345
       9     H     0.45663  0.45663  0.00000  0.08674
      10     C     3.09572  3.09572  0.00000 -0.19145
      11     H     0.44204  0.44204  0.00000  0.11592
      12     H     0.45409  0.45409  0.00000  0.09182
      13     C     3.08940  3.08940  0.00000 -0.17881
      14     H     0.45558  0.45558  0.00000  0.08885
      15     H     0.45173  0.45173  0.00000  0.09654
      16     C     3.15235  3.15235  0.00000 -0.30470
      17     H     0.44987  0.44987  0.00000  0.10027
      18     H     0.45543  0.45543  0.00000  0.08915
      19     H     0.45587  0.45587  0.00000  0.08826
      20     H     0.45169  0.45169  0.00000  0.09661
      21     H     0.44787  0.44787  0.00000  0.10425

   Total alpha = 29.00000, Total beta = 29.00000, Total charge =  0.00000
