                              Psi4 1.0.54 Driver

  ==> Input File <==

--------------------------------------------------------------------------
set {
	reference rhf
	basis cc-pvtz
}

set_num_threads( 4 )
memory 2 gb

molecule MOL {
0 1

H	 2.485910	 -0.833860	 0.271050
O	 2.063695	 -0.083403	 -0.105237
C	 0.742924	 0.005675	 0.350750
H	 0.731380	 0.039219	 1.440080
C	 -0.064076	 -1.193495	 -0.124425
C	 -0.047832	 1.190568	 -0.194462
H	 0.194729	 -1.376165	 -1.161308
H	 0.163013	 -2.094508	 0.429933
C	 -1.533112	 -0.752002	 0.006102
H	 0.148003	 1.266545	 -1.259275
H	 0.226235	 2.136493	 0.259722
C	 -1.506634	 0.799189	 0.067162
H	 -2.124360	 -1.110499	 -0.826089
H	 -1.983103	 -1.158030	 0.903403
H	 -2.183808	 1.252169	 -0.644677
H	 -1.813926	 1.138698	 1.049457

	symmetry c1
}
set optking {
	frozen_dihedral = ("
		1 2 3 6
	")
}

ee,wfn = optimize('scf', return_wfn=True)
oeprop( wfn, 'DIPOLE', 'QUADRUPOLE', 'MULLIKEN_CHARGES')
f=open( 'psi4out.xyz', 'w' )
f.write( "16  " )
f.write( str(ee) + "\n" )
f.write( MOL.save_string_xyz() )
f.close()
--------------------------------------------------------------------------

    Molecular point group: c1
  Charge       = 0
  Multiplicity = 1
  Basis Set: CC-PVTZ
  Basis Set:
  @DF-RHF Final Energy:  -270.11516749083302
    Total Energy =                       -270.1151674908330733
    Molecular point group: c1
  Basis Set: CC-PVTZ
  Basis Set:
  Basis Set: CC-PVTZ
  Basis Set:
  @DF-RHF Final Energy:  -270.11667285141459
    Total Energy =                       -270.1166728514145916
  Basis Set: CC-PVTZ
  Basis Set:
  Basis Set: CC-PVTZ
  Basis Set:
  @DF-RHF Final Energy:  -270.11686518399927
    Total Energy =                       -270.1168651839993231
  Basis Set: CC-PVTZ
  Basis Set:
  Basis Set: CC-PVTZ
  Basis Set:
  @DF-RHF Final Energy:  -270.11687196940386
    Total Energy =                       -270.1168719694040306
  Basis Set: CC-PVTZ
  Basis Set:
  @DF-RHF Final Energy:  -270.11687452763056
    Total Energy =                       -270.1168745276305572
  Basis Set: CC-PVTZ
  Basis Set:
  @DF-RHF Final Energy:  -270.11688052790021
    Total Energy =                       -270.1168805278999230
  Basis Set: CC-PVTZ
  Basis Set:
  Basis Set: CC-PVTZ
  Basis Set:
  @DF-RHF Final Energy:  -270.11688689983987
    Total Energy =                       -270.1168868998400967
  Basis Set: CC-PVTZ
  Basis Set:
  Basis Set: CC-PVTZ
  Basis Set:
  @DF-RHF Final Energy:  -270.11689037245355
    Total Energy =                       -270.1168903724534402
  Basis Set: CC-PVTZ
  Basis Set:
  Charge       = 0
  Multiplicity = 1
  Basis Set: CC-PVTZ
  Basis Set:

    Orbital Energies (a.u.)
    -----------------------

    Doubly Occupied:

       1A    -20.545865     2A    -11.267222     3A    -11.215030
       4A    -11.213367     5A    -11.210513     6A    -11.207012
       7A     -1.365878     8A     -1.114925     9A     -0.966851
      10A     -0.949265    11A     -0.788917    12A     -0.779246
      13A     -0.704512    14A     -0.658928    15A     -0.620874
      16A     -0.589750    17A     -0.567482    18A     -0.526153
      19A     -0.507725    20A     -0.481670    21A     -0.471096
      22A     -0.456143    23A     -0.450177    24A     -0.422360

  @DF-RHF Final Energy:  -270.11689080144060

   => Energetics <=

    Nuclear Repulsion Energy =            255.6037998155075286
    One-Electron Energy =                -873.2794591245350375
    Two-Electron Energy =                 347.5587685075871605
    DFT Exchange-Correlation Energy =       0.0000000000000000
    Empirical Dispersion Energy =           0.0000000000000000
    PCM Polarization Energy =               0.0000000000000000
    EFP Energy =                            0.0000000000000000
    Total Energy =                       -270.1168908014403769
    Molecular point group: c1
  Basis Set: CC-PVTZ
  Basis Set:

  -Total Gradient:
     Atom            X                  Y                   Z
    ------   -----------------  -----------------  -----------------
       1       -0.000053459020    -0.000125662845    -0.000153902055
       2        0.000039901827     0.000132411915     0.000151175797
       3        0.000027895703     0.000079655924     0.000109879343
       4        0.000002108232    -0.000002010508     0.000004197158
       5        0.000008850874    -0.000000899529    -0.000017363534
       6       -0.000035339957    -0.000074197652    -0.000099184036
       7        0.000001947157    -0.000019623029     0.000001256923
       8       -0.000002351469     0.000013043011     0.000012922605
       9       -0.000003210921     0.000003036369     0.000016840952
      10       -0.000004696545    -0.000010790676    -0.000003413183
      11        0.000001072519     0.000002922489    -0.000014631689
      12        0.000007796831    -0.000003712321    -0.000007284241
      13        0.000024420840     0.000011110618    -0.000013687687
      14       -0.000021234430    -0.000013480397    -0.000013496789
      15       -0.000013368784     0.000016214612     0.000018686017
      16        0.000019667144    -0.000008017982     0.000008004418

  **** Optimization is complete! (in 9 steps) ****
    Final optimized geometry and variables:
    Molecular point group: c1

    Geometry (in Angstrom), charge = 0, multiplicity = 1:

    H            2.548182030629    -0.652861280215     0.315865799364
    O            2.066426529969     0.046737300160    -0.086255283111
    C            0.738622887981     0.034761612201     0.357193514512
    H            0.711501207805     0.152753790291     1.440427040258
    C           -0.056397348959    -1.207636166859    -0.036266633195
    C           -0.050810331385     1.162548858582    -0.286879035038
    H            0.189938572725    -1.450125105645    -1.064591578103
    H            0.178563144956    -2.075298973520     0.570225392127
    C           -1.525893652148    -0.771729508569     0.085555693229
    H            0.177067553838     1.166927442450    -1.347458166881
    H            0.208858319777     2.136159815261     0.107678267892
    C           -1.515462547900     0.776410377380    -0.040953706123
    H           -2.140283511746    -1.237456870146    -0.673476995313
    H           -1.936956833365    -1.068773606003     1.042534720166
    H           -2.162221717164     1.126254103126    -0.834465196382
    H           -1.875582832396     1.227877805626     0.875724561652

  Mulliken Charges: (a.u.)
   Center  Symbol    Alpha    Beta     Spin     Total
       1     H     0.39559  0.39559  0.00000  0.20881
       2     O     4.19975  4.19975  0.00000 -0.39951
       3     C     2.92238  2.92238  0.00000  0.15524
       4     H     0.46634  0.46634  0.00000  0.06731
       5     C     3.10778  3.10778  0.00000 -0.21555
       6     C     3.09798  3.09798  0.00000 -0.19596
       7     H     0.45257  0.45257  0.00000  0.09486
       8     H     0.44873  0.44873  0.00000  0.10255
       9     C     3.11350  3.11350  0.00000 -0.22699
      10     H     0.45238  0.45238  0.00000  0.09524
      11     H     0.44416  0.44416  0.00000  0.11168
      12     C     3.11127  3.11127  0.00000 -0.22254
      13     H     0.44443  0.44443  0.00000  0.11115
      14     H     0.44901  0.44901  0.00000  0.10198
      15     H     0.44415  0.44415  0.00000  0.11169
      16     H     0.44998  0.44998  0.00000  0.10004

   Total alpha = 24.00000, Total beta = 24.00000, Total charge =  0.00000

*** Psi4 exiting successfully. Buy a developer a beer!
