  ==> Input File <==

--------------------------------------------------------------------------
set {
	reference rhf
	basis 6-31G*
}

set_num_threads( 1 )
memory 2 gb

molecule MOL {
0 1

H	 0.918550	 1.385733	 -1.798767
O	 1.200923	 1.601879	 -0.920474
C	 0.709265	 0.639550	 -0.033818
C	 -0.793441	 0.596080	 0.058728
H	 1.127029	 0.881241	 0.936884
H	 1.079861	 -0.351456	 -0.293799
C	 -1.530462	 -0.493172	 -0.025500
H	 -1.268471	 1.554324	 0.202247
H	 -1.092586	 -1.461565	 -0.186463
H	 -2.602122	 -0.450675	 0.050101

	symmetry c1
}
set optking {
	frozen_dihedral = ("
		5 3 2 1,
		3 4 7 9
	")
}

ee = energy('scf')
oeprop('DIPOLE', 'QUADRUPOLE', 'MULLIKEN_CHARGES')
f=open( 'psi4out.xyz', 'w' )
f.write( "10  " )
f.write( str(ee) + "\n" )
f.write( MOL.save_string_xyz() )
f.close()
--------------------------------------------------------------------------

    Molecular point group: c1

    Geometry (in Angstrom), charge = 0, multiplicity = 1:

       Center              X                  Y                   Z               Mass
    ------------   -----------------  -----------------  -----------------  -----------------
           H          0.953337209603     0.763747399806    -1.526061982901     1.007825032070
           O          1.235710209603     0.979893399806    -0.647768982901    15.994914619560
           C          0.744052209603     0.017564399806     0.238887017099    12.000000000000
           C         -0.758653790397    -0.025905600194     0.331433017099    12.000000000000
           H          1.161816209603     0.259255399806     1.209589017099     1.007825032070
           H          1.114648209603    -0.973441600194    -0.021093982901     1.007825032070
           C         -1.495674790397    -1.115157600194     0.247205017099    12.000000000000
           H         -1.233683790397     0.932338399806     0.474952017099     1.007825032070
           H         -1.057798790397    -2.083550600194     0.086242017099     1.007825032070
           H         -2.567334790397    -1.072660600194     0.322806017099     1.007825032070

  Charge       = 0
  Multiplicity = 1
  Basis Set: 6-31G*
  Basis Set:

    Orbital Energies (a.u.)
    -----------------------

    Doubly Occupied:

       1A    -20.559551     2A    -11.276471     3A    -11.231490
       4A    -11.226901     5A     -1.367835     6A     -1.063804
       7A     -0.921709     8A     -0.775149     9A     -0.705156
      10A     -0.622513    11A     -0.613320    12A     -0.609337
      13A     -0.527347    14A     -0.491415    15A     -0.443510
      16A     -0.372859

  @DF-RHF Final Energy:  -191.91712872702431

   => Energetics <=

    Nuclear Repulsion Energy =            117.2389334480321281
    One-Electron Energy =                -492.6953781107841905
    Two-Electron Energy =                 183.5393159357277568
    DFT Exchange-Correlation Energy =       0.0000000000000000
    Empirical Dispersion Energy =           0.0000000000000000
    PCM Polarization Energy =               0.0000000000000000
    EFP Energy =                            0.0000000000000000
    Total Energy =                       -191.9171287270243056

  Mulliken Charges: (a.u.)
   Center  Symbol    Alpha    Beta     Spin     Total
       1     H     0.28113  0.28113  0.00000  0.43774
       2     O     4.36655  4.36655  0.00000 -0.73311
       3     C     3.00880  3.00880  0.00000 -0.01759
       4     C     3.08465  3.08465  0.00000 -0.16931
       5     H     0.41010  0.41010  0.00000  0.17980
       6     H     0.42639  0.42639  0.00000  0.14722
       7     C     3.19778  3.19778  0.00000 -0.39556
       8     H     0.40411  0.40411  0.00000  0.19178
       9     H     0.41220  0.41220  0.00000  0.17560
      10     H     0.40829  0.40829  0.00000  0.18342

   Total alpha = 16.00000, Total beta = 16.00000, Total charge =  0.00000
