                              Psi4 1.0.54 Driver

  ==> Input File <==

--------------------------------------------------------------------------
set {
	reference rhf
	basis cc-pvtz
}

set_num_threads( 4 )
memory 2 gb

molecule MOL {
0 1

H	 -3.162190	 0.493205	 -0.000107
C	 -2.363908	 -0.234727	 0.000005
O	 -1.158738	 0.454634	 -0.000087
H	 -2.464314	 -0.863616	 -0.882153
H	 -2.464327	 -0.863359	 0.882345
C	 -0.028611	 -0.359694	 0.000037
C	 1.212847	 0.509314	 -0.000053
H	 -0.034155	 -1.007047	 -0.877198
H	 -0.034195	 -1.006836	 0.877430
C	 1.372299	 1.297088	 1.295453
H	 2.078030	 -0.124352	 -0.160836
H	 1.160120	 1.186850	 -0.845107
H	 1.451490	 0.636677	 2.152584
H	 2.265968	 1.908350	 1.268327
H	 0.527603	 1.956851	 1.463588

	symmetry c1
}
set optking {
	frozen_dihedral = ("
		11 7 6 8
	")
}

ee,wfn = optimize('scf', return_wfn=True)
oeprop( wfn, 'DIPOLE', 'QUADRUPOLE', 'MULLIKEN_CHARGES')
f=open( 'psi4out.xyz', 'w' )
f.write( "15  " )
f.write( str(ee) + "\n" )
f.write( MOL.save_string_xyz() )
f.close()
--------------------------------------------------------------------------

    Molecular point group: c1
  Charge       = 0
  Multiplicity = 1
  Basis Set: CC-PVTZ
  Basis Set:
  @DF-RHF Final Energy:  -232.22804109412098
    Total Energy =                       -232.2280410941208402
    Molecular point group: c1
  Basis Set: CC-PVTZ
  Basis Set:
  Basis Set: CC-PVTZ
  Basis Set:
  @DF-RHF Final Energy:  -232.22813423371616
    Total Energy =                       -232.2281342337161618
  Basis Set: CC-PVTZ
  Basis Set:
  Basis Set: CC-PVTZ
  Basis Set:
  @DF-RHF Final Energy:  -232.22814472576817
    Total Energy =                       -232.2281447257680611
  Basis Set: CC-PVTZ
  Basis Set:
  Charge       = 0
  Multiplicity = 1
  Basis Set: CC-PVTZ
  Basis Set:

    Orbital Energies (a.u.)
    -----------------------

    Doubly Occupied:

       1A    -20.548245     2A    -11.264766     3A    -11.262340
       4A    -11.213535     5A    -11.202545     6A     -1.382481
       7A     -1.055442     8A     -0.951842     9A     -0.886439
      10A     -0.800376    11A     -0.671470    12A     -0.664022
      13A     -0.634685    14A     -0.591382    15A     -0.568987
      16A     -0.546539    17A     -0.500313    18A     -0.484714
      19A     -0.479971    20A     -0.460787    21A     -0.416151

  @DF-RHF Final Energy:  -232.22814498434340

   => Energetics <=

    Nuclear Repulsion Energy =            192.8766921008896418
    One-Electron Energy =                -697.0356073893609619
    Two-Electron Energy =                 271.9307703041279751
    DFT Exchange-Correlation Energy =       0.0000000000000000
    Empirical Dispersion Energy =           0.0000000000000000
    PCM Polarization Energy =               0.0000000000000000
    EFP Energy =                            0.0000000000000000
    Total Energy =                       -232.2281449843433734
    Molecular point group: c1
  Basis Set: CC-PVTZ
  Basis Set:

  -Total Gradient:
     Atom            X                  Y                   Z
    ------   -----------------  -----------------  -----------------
       1       -0.000011600293    -0.000006682141    -0.000000075351
       2       -0.000026587233     0.000008597734     0.000007861967
       3        0.000009869758    -0.000021910277     0.000030065369
       4        0.000003769969     0.000000616906     0.000001871428
       5       -0.000001329710     0.000001117039    -0.000004723797
       6       -0.000497087820     0.000779052549    -0.000755347361
       7        0.000227334829    -0.000287235302     0.001087350762
       8        0.000413734162    -0.000585841592     0.000430267075
       9       -0.000020558215     0.000020520075     0.000002675403
      10       -0.000033294098     0.000017956067     0.000017483884
      11       -0.000052760802     0.000101032002    -0.000814984509
      12       -0.000013795241    -0.000014526347     0.000005695987
      13        0.000007992853    -0.000003985091    -0.000001531408
      14       -0.000006403559    -0.000013702066    -0.000010532712
      15        0.000000715402     0.000004990444     0.000003923263

  **** Optimization is complete! (in 4 steps) ****
    Final optimized geometry and variables:
    Molecular point group: c1

    Geometry (in Angstrom), charge = 0, multiplicity = 1:

    H           -2.940413355114     0.162230557473    -0.270382249678
    C           -2.139994155718    -0.563488475071    -0.264003696623
    O           -0.936388131236     0.128097976160    -0.271497486461
    H           -2.239322802077    -1.200830827721    -1.140310257250
    H           -2.238156774161    -1.184387802885     0.624013833136
    C            0.196518992870    -0.683771181084    -0.270487644478
    C            1.442258473146     0.181047749584    -0.249637130375
    H            0.200694541553    -1.321790657757    -1.153351878087
    H            0.181873993087    -1.341148198228     0.599714340198
    C            1.611853434683     0.976139971725     1.040139858871
    H            2.302183724205    -0.463285469194    -0.407339165840
    H            1.400631782988     0.857407322816    -1.096995103191
    H            1.693868708659     0.315510858315     1.897398882693
    H            2.508720664884     1.583663242871     1.004437493533
    H            0.766917226515     1.632094231657     1.203392504695

  Mulliken Charges: (a.u.)
   Center  Symbol    Alpha    Beta     Spin     Total
       1     H     0.44720  0.44720  0.00000  0.10561
       2     C     3.03225  3.03225  0.00000 -0.06449
       3     O     4.17507  4.17507  0.00000 -0.35014
       4     H     0.47142  0.47142  0.00000  0.05715
       5     H     0.47195  0.47195  0.00000  0.05610
       6     C     2.97020  2.97020  0.00000  0.05960
       7     C     3.07991  3.07991  0.00000 -0.15982
       8     H     0.46556  0.46556  0.00000  0.06888
       9     H     0.47419  0.47419  0.00000  0.05162
      10     C     3.14970  3.14970  0.00000 -0.29941
      11     H     0.45533  0.45533  0.00000  0.08935
      12     H     0.45260  0.45260  0.00000  0.09481
      13     H     0.45850  0.45850  0.00000  0.08301
      14     H     0.45036  0.45036  0.00000  0.09928
      15     H     0.44578  0.44578  0.00000  0.10844

   Total alpha = 21.00000, Total beta = 21.00000, Total charge =  0.00000

*** Psi4 exiting successfully. Buy a developer a beer!
