                              Psi4 1.0.54 Driver

  ==> Input File <==

--------------------------------------------------------------------------
set {
	reference rhf
	basis cc-pvtz
}

set_num_threads( 4 )
memory 2 gb

molecule MOL {
0 1

H	 1.128311	 0.207724	 1.465118
C	 1.134565	 0.093781	 0.372499
C	 0.062554	 0.862911	 -0.350953
O	 1.948932	 -0.587720	 -0.146651
C	 -0.612226	 0.039523	 -1.452460
H	 0.497176	 1.772617	 -0.744695
H	 -0.679863	 1.140328	 0.393985
C	 0.315004	 -0.289059	 -2.619048
H	 -1.469847	 0.592814	 -1.817056
H	 -1.004380	 -0.879502	 -1.025782
H	 0.688717	 0.615998	 -3.084631
H	 -0.206670	 -0.862631	 -3.375694
H	 1.173127	 -0.869535	 -2.298567

	symmetry c1
}
set optking {
	frozen_dihedral = ("
		6 3 2 4
	")
}

ee,wfn = optimize('scf', return_wfn=True)
oeprop( wfn, 'DIPOLE', 'QUADRUPOLE', 'MULLIKEN_CHARGES')
f=open( 'psi4out.xyz', 'w' )
f.write( "13  " )
f.write( str(ee) + "\n" )
f.write( MOL.save_string_xyz() )
f.close()
--------------------------------------------------------------------------

    Molecular point group: c1
  Charge       = 0
  Multiplicity = 1
  Basis Set: CC-PVTZ
  Basis Set:
  @DF-RHF Final Energy:  -231.06604150661283
    Total Energy =                       -231.0660415066126916
    Molecular point group: c1
  Basis Set: CC-PVTZ
  Basis Set:
  Basis Set: CC-PVTZ
  Basis Set:
  @DF-RHF Final Energy:  -231.06773750388950
    Total Energy =                       -231.0677375038893615
  Basis Set: CC-PVTZ
  Basis Set:
  Basis Set: CC-PVTZ
  Basis Set:
  @DF-RHF Final Energy:  -231.06786941762218
    Total Energy =                       -231.0678694176222052
  Basis Set: CC-PVTZ
  Basis Set:
  Basis Set: CC-PVTZ
  Basis Set:
  @DF-RHF Final Energy:  -231.06680006585182
    Total Energy =                       -231.0668000658517087
  Basis Set: CC-PVTZ
  Basis Set:
  Basis Set: CC-PVTZ
  Basis Set:
  @DF-RHF Final Energy:  -231.06770059035577
    Total Energy =                       -231.0677005903557415
  Basis Set: CC-PVTZ
  Basis Set:
  Basis Set: CC-PVTZ
  Basis Set:
  @DF-RHF Final Energy:  -231.06801691504967
    Total Energy =                       -231.0680169150497534
  Basis Set: CC-PVTZ
  Basis Set:
  Basis Set: CC-PVTZ
  Basis Set:
  @DF-RHF Final Energy:  -231.06801903186101
    Total Energy =                       -231.0680190318611551
  Basis Set: CC-PVTZ
  Basis Set:
  Charge       = 0
  Multiplicity = 1
  Basis Set: CC-PVTZ
  Basis Set:

    Orbital Energies (a.u.)
    -----------------------

    Doubly Occupied:

       1A    -20.553423     2A    -11.324132     3A    -11.236410
       4A    -11.228549     5A    -11.205722     6A     -1.409201
       7A     -1.077849     8A     -0.972164     9A     -0.846357
      10A     -0.774539    11A     -0.685922    12A     -0.650169
      13A     -0.604107    14A     -0.589766    15A     -0.572191
      16A     -0.524689    17A     -0.498824    18A     -0.486794
      19A     -0.480993    20A     -0.409822

  @DF-RHF Final Energy:  -231.06801967162062

   => Energetics <=

    Nuclear Repulsion Energy =            176.0893859526455572
    One-Electron Energy =                -662.0515626811115908
    Two-Electron Energy =                 254.8941570568453585
    DFT Exchange-Correlation Energy =       0.0000000000000000
    Empirical Dispersion Energy =           0.0000000000000000
    PCM Polarization Energy =               0.0000000000000000
    EFP Energy =                            0.0000000000000000
    Total Energy =                       -231.0680196716206751
    Molecular point group: c1
  Basis Set: CC-PVTZ
  Basis Set:

  -Total Gradient:
     Atom            X                  Y                   Z
    ------   -----------------  -----------------  -----------------
       1        0.000013513722    -0.000012459685    -0.000007143101
       2       -0.001842800233    -0.002975065855     0.000153991404
       3       -0.000323295594     0.002389188477     0.001718274251
       4        0.001363275038     0.001893258139    -0.000303617039
       5       -0.000039682067     0.000009086924    -0.000011327266
       6        0.000793277293    -0.001321310359    -0.001545892684
       7        0.000001566523     0.000003572976    -0.000006201182
       8        0.000042831047    -0.000004720366     0.000009387764
       9        0.000018122451    -0.000001916957     0.000002487549
      10        0.000000065044     0.000017087297     0.000003335605
      11       -0.000009120409    -0.000009890378    -0.000002185690
      12        0.000003590706     0.000003497779     0.000003718942
      13       -0.000021343521     0.000009672005    -0.000014828551

  **** Optimization is complete! (in 8 steps) ****
    Final optimized geometry and variables:
    Molecular point group: c1

    Geometry (in Angstrom), charge = 0, multiplicity = 1:

    H            0.213034950904     0.578960674654     2.357746906224
    C            0.365559862978     0.257644945298     1.320084331410
    C           -0.611258179770     0.825786623049     0.316978151259
    O            1.271392680049    -0.455523173254     1.056420870947
    C           -1.070342949417    -0.154001208262    -0.770776837554
    H           -0.114706762353     1.674775214092    -0.148482785997
    H           -1.464770542625     1.216167153038     0.859200840537
    C           -0.038752758394    -0.421196407108    -1.863101966804
    H           -1.966720292461     0.255812832401    -1.223907743005
    H           -1.363386302314    -1.090520477134    -0.307328712812
    H            0.237106723797     0.500690974134    -2.365427925683
    H           -0.446123329414    -1.092825740205    -2.610156579545
    H            0.858941447804    -0.865031915732    -1.458888675936

  Mulliken Charges: (a.u.)
   Center  Symbol    Alpha    Beta     Spin     Total
       1     H     0.44977  0.44977  0.00000  0.10047
       2     C     2.92024  2.92024  0.00000  0.15953
       3     C     3.09558  3.09558  0.00000 -0.19116
       4     O     4.16770  4.16770  0.00000 -0.33540
       5     C     3.08393  3.08393  0.00000 -0.16785
       6     H     0.44539  0.44539  0.00000  0.10922
       7     H     0.44130  0.44130  0.00000  0.11739
       8     C     3.14735  3.14735  0.00000 -0.29470
       9     H     0.44783  0.44783  0.00000  0.10434
      10     H     0.45146  0.45146  0.00000  0.09708
      11     H     0.45951  0.45951  0.00000  0.08097
      12     H     0.45075  0.45075  0.00000  0.09851
      13     H     0.43919  0.43919  0.00000  0.12162

   Total alpha = 20.00000, Total beta = 20.00000, Total charge = -0.00000

*** Psi4 exiting successfully. Buy a developer a beer!
