  ==> Input File <==

--------------------------------------------------------------------------
set {
	reference rhf
	basis 6-31G*
}

set_num_threads( 1 )
memory 2 gb

molecule MOL {
0 1

O	 -0.988096	 -1.408613	 0.050699
C	 -0.676749	 -0.249230	 -0.009274
C	 -1.746085	 0.827156	 -0.009539
N	 0.623947	 0.147590	 -0.102813
H	 -1.701500	 1.431508	 -0.908902
H	 -2.703425	 0.330732	 0.036390
H	 -1.647323	 1.487769	 0.845106
C	 0.959079	 1.515816	 0.240000
C	 1.639799	 -0.573124	 -0.838246
H	 1.912312	 1.535568	 0.756695
H	 0.196497	 1.921699	 0.881615
H	 1.038346	 2.137771	 -0.648994
H	 2.598892	 -0.423701	 -0.356736
H	 1.443310	 -1.633383	 -0.851538
H	 1.722378	 -0.223635	 -1.865792

	symmetry c1
}
set optking {
	frozen_dihedral = ("
		2 4 8 10
	")
}

ee = energy('scf')
oeprop('DIPOLE', 'QUADRUPOLE', 'MULLIKEN_CHARGES')
f=open( 'psi4out.xyz', 'w' )
f.write( "15  " )
f.write( str(ee) + "\n" )
f.write( MOL.save_string_xyz() )
f.close()
--------------------------------------------------------------------------

    Molecular point group: c1

    Geometry (in Angstrom), charge = 0, multiplicity = 1:

       Center              X                  Y                   Z               Mass
    ------------   -----------------  -----------------  -----------------  -----------------
           O         -0.964287773007    -1.459138545428     0.167413697134    15.994914619560
           C         -0.652940773007    -0.299755545428     0.107440697134    12.000000000000
           C         -1.722276773007     0.776630454572     0.107175697134    12.000000000000
           N          0.647755226993     0.097064454572     0.013901697134    14.003074004780
           H         -1.677691773007     1.380982454572    -0.792187302866     1.007825032070
           H         -2.679616773007     0.280206454572     0.153104697134     1.007825032070
           H         -1.623514773007     1.437243454572     0.961820697134     1.007825032070
           C          0.982887226993     1.465290454572     0.356714697134    12.000000000000
           C          1.663607226993    -0.623649545428    -0.721531302866    12.000000000000
           H          1.936120226993     1.485042454572     0.873409697134     1.007825032070
           H          0.220305226993     1.871173454572     0.998329697134     1.007825032070
           H          1.062154226993     2.087245454572    -0.532279302866     1.007825032070
           H          2.622700226993    -0.474226545428    -0.240021302866     1.007825032070
           H          1.467118226993    -1.683908545428    -0.734823302866     1.007825032070
           H          1.746186226993    -0.274160545428    -1.749077302866     1.007825032070

  Charge       = 0
  Multiplicity = 1
  Basis Set: 6-31G*
  Basis Set:

    Orbital Energies (a.u.)
    -----------------------

    Doubly Occupied:

       1A    -20.517472     2A    -15.578119     3A    -11.342014
       4A    -11.262331     5A    -11.256331     6A    -11.228840
       7A     -1.383414     8A     -1.244375     9A     -1.016183
      10A     -0.969734    11A     -0.923174    12A     -0.739249
      13A     -0.679326    14A     -0.659652    15A     -0.652207
      16A     -0.593636    17A     -0.577249    18A     -0.565010
      19A     -0.564672    20A     -0.556702    21A     -0.529271
      22A     -0.497597    23A     -0.411292    24A     -0.362456

  @DF-RHF Final Energy:  -286.01782820233211

   => Energetics <=

    Nuclear Repulsion Energy =            252.2596203278334031
    One-Electron Energy =                -888.3342054105634134
    Two-Electron Energy =                 350.0567568803978702
    DFT Exchange-Correlation Energy =       0.0000000000000000
    Empirical Dispersion Energy =           0.0000000000000000
    PCM Polarization Energy =               0.0000000000000000
    EFP Energy =                            0.0000000000000000
    Total Energy =                       -286.0178282023321117

  Mulliken Charges: (a.u.)
   Center  Symbol    Alpha    Beta     Spin     Total
       1     O     4.29473  4.29473  0.00000 -0.58945
       2     C     2.63231  2.63231  0.00000  0.73539
       3     C     3.29800  3.29800  0.00000 -0.59599
       4     N     3.81938  3.81938  0.00000 -0.63876
       5     H     0.40588  0.40588  0.00000  0.18825
       6     H     0.39086  0.39086  0.00000  0.21827
       7     H     0.40749  0.40749  0.00000  0.18502
       8     C     3.14081  3.14081  0.00000 -0.28162
       9     C     3.14170  3.14170  0.00000 -0.28340
      10     H     0.40953  0.40953  0.00000  0.18094
      11     H     0.41148  0.41148  0.00000  0.17705
      12     H     0.42080  0.42080  0.00000  0.15841
      13     H     0.41628  0.41628  0.00000  0.16743
      14     H     0.39065  0.39065  0.00000  0.21869
      15     H     0.42011  0.42011  0.00000  0.15977

   Total alpha = 24.00000, Total beta = 24.00000, Total charge =  0.00000
