  ==> Input File <==

--------------------------------------------------------------------------
set {
	reference rhf
	basis 6-31G*
}

set_num_threads( 4 )
memory 2 gb

molecule MOL {
0 1

O	 -1.983794	 -3.257841	 0.518266
C	 -1.252383	 -3.381306	 -0.416736
C	 -0.435540	 -2.206907	 -0.926502
C	 -1.076827	 -4.710108	 -1.117335
C	 0.802119	 -1.976128	 -0.044412
H	 -1.069875	 -1.327671	 -0.897081
H	 -0.132048	 -2.370815	 -1.956577
C	 1.631333	 -0.777471	 -0.511575
H	 0.467619	 -1.834156	 0.977027
H	 1.427101	 -2.867823	 -0.049497
C	 2.915987	 -0.544314	 0.291766
H	 1.016307	 0.119769	 -0.473784
H	 1.897402	 -0.921053	 -1.556773
C	 3.373361	 0.914346	 0.347591
H	 3.708709	 -1.142521	 -0.150311
H	 2.780642	 -0.921148	 1.303579
H	 3.506512	 1.320010	 -0.651625
H	 4.322697	 0.999599	 0.867103
H	 2.660624	 1.545032	 0.868198
H	 -1.465649	 -4.643269	 -2.130061
H	 -1.606062	 -5.484723	 -0.580058
H	 -0.024490	 -4.967737	 -1.194914

	symmetry c1
}
set optking {
	frozen_dihedral = ("
		12 8 11 15
	")
}

ee = optimize('scf')
oeprop('DIPOLE', 'QUADRUPOLE', 'MULLIKEN_CHARGES')
f=open( 'psi4out.xyz', 'w' )
f.write( "22  " )
f.write( str(ee) + "\n" )
f.write( MOL.save_string_xyz() )
f.close()
--------------------------------------------------------------------------

    Molecular point group: c1
  Charge       = 0
  Multiplicity = 1
  Basis Set: 6-31G*
  Basis Set:
  @DF-RHF Final Energy:  -348.09685696950123
    Total Energy =                       -348.0968569695015162
    Molecular point group: c1
  Basis Set: 6-31G*
  Basis Set:
  Basis Set: 6-31G*
  Basis Set:
  @DF-RHF Final Energy:  -348.09716554848478
    Total Energy =                       -348.0971655484848952
  Basis Set: 6-31G*
  Basis Set:
  Basis Set: 6-31G*
  Basis Set:
  @DF-RHF Final Energy:  -348.09466622693645
    Total Energy =                       -348.0946662269366243
  Basis Set: 6-31G*
  Basis Set:
  Basis Set: 6-31G*
  Basis Set:
  @DF-RHF Final Energy:  -348.09726379619087
    Total Energy =                       -348.0972637961908163
  Basis Set: 6-31G*
  Basis Set:
  @DF-RHF Final Energy:  -348.09725749814618
    Total Energy =                       -348.0972574981464618
  @DF-RHF Final Energy:  -348.09706214738048
    Total Energy =                       -348.0970621473809388
  Basis Set: 6-31G*
  Basis Set:
  @DF-RHF Final Energy:  -348.09729085219283
    Total Energy =                       -348.0972908521927138
  Basis Set: 6-31G*
  Basis Set:
  Basis Set: 6-31G*
  Basis Set:
  @DF-RHF Final Energy:  -348.09729783440667
    Total Energy =                       -348.0972978344065041
  Basis Set: 6-31G*
  Basis Set:
  Basis Set: 6-31G*
  Basis Set:
  @DF-RHF Final Energy:  -348.09730263148367
    Total Energy =                       -348.0973026314833305
  Basis Set: 6-31G*
  Basis Set:
  Charge       = 0
  Multiplicity = 1
  Basis Set: 6-31G*
  Basis Set:

    Orbital Energies (a.u.)
    -----------------------

    Doubly Occupied:

       1A    -20.547391     2A    -11.324515     3A    -11.230386
       4A    -11.229165     5A    -11.228212     6A    -11.222039
       7A    -11.220414     8A    -11.212233     9A     -1.393154
      10A     -1.095249    11A     -1.045240    12A     -1.000880
      13A     -0.938483    14A     -0.845737    15A     -0.798843
      16A     -0.732553    17A     -0.664418    18A     -0.646096
      19A     -0.630973    20A     -0.608394    21A     -0.595509
      22A     -0.582918    23A     -0.560846    24A     -0.554170
      25A     -0.528345    26A     -0.514648    27A     -0.498837
      28A     -0.485658    29A     -0.475488    30A     -0.465857
      31A     -0.459231    32A     -0.396123

  @DF-RHF Final Energy:  -348.09730257222657

   => Energetics <=

    Nuclear Repulsion Energy =            368.5538568278848288
    One-Electron Energy =               -1201.8383060722924256
    Two-Electron Energy =                 485.1871466721811430
    DFT Exchange-Correlation Energy =       0.0000000000000000
    Empirical Dispersion Energy =           0.0000000000000000
    PCM Polarization Energy =               0.0000000000000000
    EFP Energy =                            0.0000000000000000
    Total Energy =                       -348.0973025722264538
    Molecular point group: c1
  Basis Set: 6-31G*
  Basis Set:

  -Total Gradient:
     Atom            X                  Y                   Z
    ------   -----------------  -----------------  -----------------
       1        0.000008243828     0.000006104450    -0.000000380846
       2       -0.000000027550    -0.000026891596     0.000010946851
       3        0.000013433178     0.000009515776     0.000013525242
       4       -0.000042224672     0.000010811953    -0.000016898046
       5        0.000005295756     0.000029508294     0.000017024467
       6       -0.000013614395     0.000004429061    -0.000009908937
       7        0.000004027801    -0.000001218720     0.000009634506
       8       -0.002209824295    -0.001060727836     0.003695675594
       9        0.000018894829    -0.000005754557     0.000013364462
      10       -0.000003199978    -0.000003698003    -0.000030820982
      11       -0.000879524950    -0.003638645119     0.002320696245
      12        0.001978283255     0.001450359880    -0.003499386295
      13        0.000018848698    -0.000005334817    -0.000005039765
      14       -0.000012148111     0.000004204274     0.000000384620
      15        0.001085214157     0.003237313194    -0.002535730862
      16        0.000002999877    -0.000007224869     0.000001784626
      17        0.000000649544    -0.000004110869     0.000000043014
      18       -0.000000676479    -0.000003926795    -0.000003343316
      19       -0.000001884578     0.000003391162     0.000006242147
      20        0.000010704035     0.000004633905     0.000004124659
      21        0.000003931048     0.000000345259     0.000002135829
      22        0.000012599007    -0.000003084016     0.000005926785

  **** Optimization is complete! (in 10 steps) ****
    Final optimized geometry and variables:
    Molecular point group: c1

    Geometry (in Angstrom), charge = 0, multiplicity = 1:

    O           -2.487692930476    -1.275822467007     0.746277425121
    C           -1.753649531539    -1.389748780487    -0.187735624274
    C           -0.946375770850    -0.206790237350    -0.693004104470
    C           -1.570441906610    -2.713106340798    -0.897003395677
    C            0.304148429888     0.014184465935     0.172143457351
    H           -1.581597806506     0.670784101381    -0.642108086429
    H           -0.657938225420    -0.356524684789    -1.729588967964
    C            1.125590990470     1.221742875613    -0.276861514744
    H           -0.007330589035     0.144964959147     1.203875668547
    H            0.931379728250    -0.875455682745     0.146131665120
    C            2.409054874094     1.430172134350     0.542192534133
    H            0.516607133942     2.122759063421    -0.244741953435
    H            1.394700517230     1.102087492295    -1.325083987645
    C            2.869543182999     2.889062500242     0.554802371797
    H            3.208128930507     0.829108472685     0.115866723704
    H            2.261531242724     1.091515560830     1.564226957195
    H            3.027241883212     3.258056249832    -0.455029683488
    H            3.803218167630     3.002113936137     1.096983271976
    H            2.130661481472     3.529090666926     1.028176578255
    H           -1.963502092678    -2.642922522920    -1.907825697073
    H           -2.092257062406    -3.494639410508    -0.362536775471
    H           -0.516654867518    -2.962862796083    -0.979897626369

  Mulliken Charges: (a.u.)
   Center  Symbol    Alpha    Beta     Spin     Total
       1     O     4.26215  4.26215  0.00000 -0.52431
       2     C     2.73726  2.73726  0.00000  0.52548
       3     C     3.20042  3.20042  0.00000 -0.40083
       4     C     3.28956  3.28956  0.00000 -0.57913
       5     C     3.16279  3.16279  0.00000 -0.32558
       6     H     0.40099  0.40099  0.00000  0.19801
       7     H     0.41682  0.41682  0.00000  0.16636
       8     C     3.15303  3.15303  0.00000 -0.30606
       9     H     0.40572  0.40572  0.00000  0.18855
      10     H     0.42036  0.42036  0.00000  0.15927
      11     C     3.15347  3.15347  0.00000 -0.30695
      12     H     0.41919  0.41919  0.00000  0.16163
      13     H     0.42249  0.42249  0.00000  0.15502
      14     C     3.24064  3.24064  0.00000 -0.48127
      15     H     0.42107  0.42107  0.00000  0.15787
      16     H     0.41951  0.41951  0.00000  0.16097
      17     H     0.42172  0.42172  0.00000  0.15657
      18     H     0.41884  0.41884  0.00000  0.16233
      19     H     0.42029  0.42029  0.00000  0.15941
      20     H     0.40684  0.40684  0.00000  0.18632
      21     H     0.39706  0.39706  0.00000  0.20588
      22     H     0.40977  0.40977  0.00000  0.18047

   Total alpha = 32.00000, Total beta = 32.00000, Total charge =  0.00000
