  ==> Input File <==

--------------------------------------------------------------------------
set {
	reference rhf
	basis 6-31G*
}

set_num_threads( 4 )
memory 2 gb

molecule MOL {
0 1

H	 -3.892951	 0.981613	 -0.358725
C	 -3.196921	 0.361773	 0.172313
C	 -2.076860	 -0.007332	 -0.404944
H	 -3.439953	 0.057760	 1.173024
O	 -1.180634	 -0.819263	 0.215062
H	 -1.811520	 0.292194	 -1.403480
C	 0.051604	 -1.018856	 -0.387932
C	 1.043764	 0.054862	 -0.001873
H	 -0.017620	 -1.041351	 -1.469781
H	 0.437898	 -1.966374	 -0.042284
F	 0.527251	 1.246826	 -0.263105
F	 1.331522	 0.016042	 1.288676
F	 2.174160	 -0.052800	 -0.668960

	symmetry c1
}
set optking {
	frozen_dihedral = ("
		11 8 7 9
	")
}

ee = optimize('scf')
oeprop('DIPOLE', 'QUADRUPOLE', 'MULLIKEN_CHARGES')
f=open( 'psi4out.xyz', 'w' )
f.write( "13  " )
f.write( str(ee) + "\n" )
f.write( MOL.save_string_xyz() )
f.close()
--------------------------------------------------------------------------

    Molecular point group: c1
  Charge       = 0
  Multiplicity = 1
  Basis Set: 6-31G*
  Basis Set:
  @DF-RHF Final Energy:  -527.53506689995424
    Total Energy =                       -527.5350668999539039
    Molecular point group: c1
  Basis Set: 6-31G*
  Basis Set:
  Basis Set: 6-31G*
  Basis Set:
  @DF-RHF Final Energy:  -527.53548481631674
    Total Energy =                       -527.5354848163171937
  Basis Set: 6-31G*
  Basis Set:
  Basis Set: 6-31G*
  Basis Set:
  @DF-RHF Final Energy:  -527.53559306208081
    Total Energy =                       -527.5355930620808067
  Basis Set: 6-31G*
  Basis Set:
  Basis Set: 6-31G*
  Basis Set:
  @DF-RHF Final Energy:  -527.53561251068083
    Total Energy =                       -527.5356125106809486
  Basis Set: 6-31G*
  Basis Set:
  Basis Set: 6-31G*
  Basis Set:
  @DF-RHF Final Energy:  -527.53561644073932
    Total Energy =                       -527.5356164407393180
  Basis Set: 6-31G*
  Basis Set:
  Basis Set: 6-31G*
  Basis Set:
  @DF-RHF Final Energy:  -527.53561862988795
    Total Energy =                       -527.5356186298881767
  Basis Set: 6-31G*
  Basis Set:
  Charge       = 0
  Multiplicity = 1
  Basis Set: 6-31G*
  Basis Set:

    Orbital Energies (a.u.)
    -----------------------

    Doubly Occupied:

       1A    -26.345340     2A    -26.343870     3A    -26.339802
       4A    -20.608724     5A    -11.503281     6A    -11.318920
       7A    -11.299574     8A    -11.215611     9A     -1.741825
      10A     -1.640733    11A     -1.637460    12A     -1.438622
      13A     -1.084299    14A     -1.016389    15A     -0.925421
      16A     -0.836680    17A     -0.831258    18A     -0.821255
      19A     -0.791380    20A     -0.723110    21A     -0.711458
      22A     -0.696842    23A     -0.675468    24A     -0.660869
      25A     -0.654318    26A     -0.643065    27A     -0.633466
      28A     -0.584476    29A     -0.562873    30A     -0.524401
      31A     -0.514182    32A     -0.351333

  @DF-RHF Final Energy:  -527.53561929218358

   => Energetics <=

    Nuclear Repulsion Energy =            413.3114865605402315
    One-Electron Energy =               -1550.3415998643686180
    Two-Electron Energy =                 609.4944940116449743
    DFT Exchange-Correlation Energy =       0.0000000000000000
    Empirical Dispersion Energy =           0.0000000000000000
    PCM Polarization Energy =               0.0000000000000000
    EFP Energy =                            0.0000000000000000
    Total Energy =                       -527.5356192921833554
    Molecular point group: c1
  Basis Set: 6-31G*
  Basis Set:

  -Total Gradient:
     Atom            X                  Y                   Z
    ------   -----------------  -----------------  -----------------
       1       -0.000005686682    -0.000007998352    -0.000003949642
       2        0.000024340761     0.000013327308     0.000003078831
       3       -0.000075186374     0.000025646199     0.000047421780
       4        0.000003019997     0.000003789677    -0.000000157667
       5        0.000005835759    -0.000007452970    -0.000045647056
       6        0.000013354880    -0.000020896296    -0.000018915473
       7       -0.002092510055     0.001688943692     0.000625721629
       8        0.001229057010    -0.000332084691    -0.002201683608
       9        0.001540608665    -0.001379522447    -0.000042553922
      10        0.000008023870    -0.000002630739    -0.000012790871
      11       -0.000691420612     0.000054681961     0.001634080497
      12       -0.000015095933     0.000003927007     0.000038235759
      13        0.000055658717    -0.000039730346    -0.000022840259

  **** Optimization is complete! (in 7 steps) ****
    Final optimized geometry and variables:
    Molecular point group: c1

    Geometry (in Angstrom), charge = 0, multiplicity = 1:

    H           -3.914845354328     0.953335050467    -0.369327679383
    C           -3.215705562790     0.338936173741     0.163936881475
    C           -2.083385804636    -0.007150713093    -0.403397653050
    H           -3.465278063821     0.022317967417     1.159196772144
    O           -1.180489949520    -0.808197283621     0.221144229804
    H           -1.811265459639     0.305156428491    -1.396073958154
    C            0.047869970464    -1.011672354959    -0.385877899427
    C            1.048533556026     0.057069330099    -0.004723187002
    H           -0.016912871656    -1.047291305707    -1.467683274774
    H            0.434046073606    -1.958686124988    -0.037691960367
    F            0.594559515121     1.271405995109    -0.261463951999
    F            1.352156963821     0.009847030033     1.277754341478
    F            2.167155809661    -0.115916942108    -0.692491466395

  Mulliken Charges: (a.u.)
   Center  Symbol    Alpha    Beta     Spin     Total
       1     H     0.40711  0.40711  0.00000  0.18578
       2     C     3.23624  3.23624  0.00000 -0.47249
       3     C     2.89390  2.89390  0.00000  0.21220
       4     H     0.40189  0.40189  0.00000  0.19621
       5     O     4.30146  4.30146  0.00000 -0.60292
       6     H     0.40701  0.40701  0.00000  0.18599
       7     C     3.06566  3.06566  0.00000 -0.13132
       8     C     2.45455  2.45455  0.00000  1.09089
       9     H     0.40547  0.40547  0.00000  0.18907
      10     H     0.38962  0.38962  0.00000  0.22076
      11     F     4.67872  4.67872  0.00000 -0.35744
      12     F     4.67582  4.67582  0.00000 -0.35164
      13     F     4.68254  4.68254  0.00000 -0.36509

   Total alpha = 32.00000, Total beta = 32.00000, Total charge =  0.00000
