  ==> Input File <==

--------------------------------------------------------------------------
set {
	reference rhf
	basis 6-31G*
}

set_num_threads( 1 )
memory 2 gb

molecule MOL {
0 1

O	 -0.988096	 -1.408613	 0.050699
C	 -0.676749	 -0.249230	 -0.009274
C	 -1.746085	 0.827156	 -0.009539
N	 0.623947	 0.147590	 -0.102813
H	 -1.701500	 1.431508	 -0.908902
H	 -2.703425	 0.330732	 0.036390
H	 -1.647323	 1.487769	 0.845106
C	 1.216786	 0.279994	 -1.419205
C	 1.561446	 0.116606	 0.998269
H	 1.874916	 1.141775	 -1.433901
H	 0.438992	 0.411991	 -2.151021
H	 1.799612	 -0.600632	 -1.680417
H	 2.277429	 0.920742	 0.876723
H	 1.066455	 0.261164	 1.945381
H	 2.113259	 -0.820894	 1.035801

	symmetry c1
}
set optking {
	frozen_dihedral = ("
		2 4 8 10
	")
}

ee = energy('scf')
oeprop('DIPOLE', 'QUADRUPOLE', 'MULLIKEN_CHARGES')
f=open( 'psi4out.xyz', 'w' )
f.write( "15  " )
f.write( str(ee) + "\n" )
f.write( MOL.save_string_xyz() )
f.close()
--------------------------------------------------------------------------

    Molecular point group: c1

    Geometry (in Angstrom), charge = 0, multiplicity = 1:

       Center              X                  Y                   Z               Mass
    ------------   -----------------  -----------------  -----------------  -----------------
           O         -0.996633970740    -1.360722506444     0.135136366089    15.994914619560
           C         -0.685286970740    -0.201339506444     0.075163366089    12.000000000000
           C         -1.754622970740     0.875046493556     0.074898366089    12.000000000000
           N          0.615409029260     0.195480493556    -0.018375633911    14.003074004780
           H         -1.710037970740     1.479398493556    -0.824464633911     1.007825032070
           H         -2.711962970740     0.378622493556     0.120827366089     1.007825032070
           H         -1.655860970740     1.535659493556     0.929543366089     1.007825032070
           C          1.208248029260     0.327884493556    -1.334767633911    12.000000000000
           C          1.552908029260     0.164496493556     1.082706366089    12.000000000000
           H          1.866378029260     1.189665493556    -1.349463633911     1.007825032070
           H          0.430454029260     0.459881493556    -2.066583633911     1.007825032070
           H          1.791074029260    -0.552741506444    -1.595979633911     1.007825032070
           H          2.268891029260     0.968632493556     0.961160366089     1.007825032070
           H          1.057917029260     0.309054493556     2.029818366089     1.007825032070
           H          2.104721029260    -0.773003506444     1.120238366089     1.007825032070

  Charge       = 0
  Multiplicity = 1
  Basis Set: 6-31G*
  Basis Set:

    Orbital Energies (a.u.)
    -----------------------

    Doubly Occupied:

       1A    -20.546526     2A    -15.547720     3A    -11.347864
       4A    -11.258267     5A    -11.257103     6A    -11.224977
       7A     -1.398649     8A     -1.233710     9A     -1.007261
      10A     -0.971496    11A     -0.915246    12A     -0.738986
      13A     -0.675262    14A     -0.658221    15A     -0.643401
      16A     -0.599365    17A     -0.582555    18A     -0.575161
      19A     -0.557131    20A     -0.546320    21A     -0.535136
      22A     -0.483607    23A     -0.424945    24A     -0.350613

  @DF-RHF Final Energy:  -285.99497746933298

   => Energetics <=

    Nuclear Repulsion Energy =            250.8500947481959429
    One-Electron Energy =                -885.5308990514961351
    Two-Electron Energy =                 348.6858268339675533
    DFT Exchange-Correlation Energy =       0.0000000000000000
    Empirical Dispersion Energy =           0.0000000000000000
    PCM Polarization Energy =               0.0000000000000000
    EFP Energy =                            0.0000000000000000
    Total Energy =                       -285.9949774693326390

  Mulliken Charges: (a.u.)
   Center  Symbol    Alpha    Beta     Spin     Total
       1     O     4.25018  4.25018  0.00000 -0.50035
       2     C     2.66649  2.66649  0.00000  0.66701
       3     C     3.27789  3.27789  0.00000 -0.55578
       4     N     3.82734  3.82734  0.00000 -0.65468
       5     H     0.40942  0.40942  0.00000  0.18115
       6     H     0.40019  0.40019  0.00000  0.19963
       7     H     0.40754  0.40754  0.00000  0.18492
       8     C     3.13392  3.13392  0.00000 -0.26783
       9     C     3.13139  3.13139  0.00000 -0.26277
      10     H     0.41730  0.41730  0.00000  0.16540
      11     H     0.41412  0.41412  0.00000  0.17176
      12     H     0.41629  0.41629  0.00000  0.16743
      13     H     0.41717  0.41717  0.00000  0.16566
      14     H     0.41302  0.41302  0.00000  0.17396
      15     H     0.41775  0.41775  0.00000  0.16451

   Total alpha = 24.00000, Total beta = 24.00000, Total charge =  0.00000
