  ==> Input File <==

--------------------------------------------------------------------------
set {
	reference rhf
	basis cc-pvtz
}

set_num_threads( 4 )
memory 2 gb

molecule MOL {
0 1

O	 1.450887	 -0.066038	 0.768187
C	 0.576499	 0.134701	 -0.003900
C	 -0.765656	 -0.550508	 -0.002152
O	 0.671688	 1.002260	 -0.998009
C	 -1.945526	 0.411052	 0.000603
H	 -0.794329	 -1.203792	 -0.868145
H	 -0.791555	 -1.205429	 0.862701
C	 -3.282915	 -0.321280	 0.002596
H	 -1.880300	 1.059126	 -0.864925
H	 -1.877207	 1.057892	 0.866807
H	 -3.388495	 -0.952755	 -0.873419
H	 -4.107811	 0.380864	 0.004116
H	 -3.385717	 -0.953283	 0.878571
C	 1.885238	 1.716320	 -1.122208
H	 2.074056	 2.303796	 -0.236052
H	 1.764349	 2.360871	 -1.977561
H	 2.711580	 1.039142	 -1.279151

	symmetry c1
}
set optking {
	frozen_dihedral = ("
		1 2 3 6
	")
}

ee = optimize('scf')
oeprop('DIPOLE', 'QUADRUPOLE', 'MULLIKEN_CHARGES')
f=open( 'psi4out.xyz', 'w' )
f.write( "17  " )
f.write( str(ee) + "\n" )
f.write( MOL.save_string_xyz() )
f.close()
--------------------------------------------------------------------------

    Molecular point group: c1
  Charge       = 0
  Multiplicity = 1
  Basis Set: CC-PVTZ
  Basis Set:
  @DF-RHF Final Energy:  -345.03365853428534
    Total Energy =                       -345.0336585342854505
    Molecular point group: c1
  Basis Set: CC-PVTZ
  Basis Set:
  Basis Set: CC-PVTZ
  Basis Set:
  @DF-RHF Final Energy:  -345.03346614192236
    Total Energy =                       -345.0334661419229292
  Basis Set: CC-PVTZ
  Basis Set:
  Basis Set: CC-PVTZ
  Basis Set:
  @DF-RHF Final Energy:  -345.03364794321277
    Total Energy =                       -345.0336479432131682
  Basis Set: CC-PVTZ
  Basis Set:
  Basis Set: CC-PVTZ
  Basis Set:
  @DF-RHF Final Energy:  -345.03394616726206
    Total Energy =                       -345.0339461672618881
  Basis Set: CC-PVTZ
  Basis Set:
  Basis Set: CC-PVTZ
  Basis Set:
  @DF-RHF Final Energy:  -345.03394787918040
    Total Energy =                       -345.0339478791804027
  Basis Set: CC-PVTZ
  Basis Set:
  Charge       = 0
  Multiplicity = 1
  Basis Set: CC-PVTZ
  Basis Set:

    Orbital Energies (a.u.)
    -----------------------

    Doubly Occupied:

       1A    -20.597541     2A    -20.532924     3A    -11.364112
       4A    -11.279051     5A    -11.233534     6A    -11.228292
       7A    -11.216300     8A     -1.472523     9A     -1.364967
      10A     -1.085292    11A     -0.999668    12A     -0.942846
      13A     -0.832193    14A     -0.776535    15A     -0.699175
      16A     -0.684093    17A     -0.676329    18A     -0.638911
      19A     -0.597495    20A     -0.577959    21A     -0.552434
      22A     -0.544231    23A     -0.526736    24A     -0.512441
      25A     -0.490278    26A     -0.483219    27A     -0.459485
      28A     -0.434752

  @DF-RHF Final Energy:  -345.03394807284025

   => Energetics <=

    Nuclear Repulsion Energy =            314.7310357124632105
    One-Electron Energy =               -1093.9233348573434341
    Two-Electron Energy =                 434.1583510720396362
    DFT Exchange-Correlation Energy =       0.0000000000000000
    Empirical Dispersion Energy =           0.0000000000000000
    PCM Polarization Energy =               0.0000000000000000
    EFP Energy =                            0.0000000000000000
    Total Energy =                       -345.0339480728406443
    Molecular point group: c1
  Basis Set: CC-PVTZ
  Basis Set:

  -Total Gradient:
     Atom            X                  Y                   Z
    ------   -----------------  -----------------  -----------------
       1        0.000200949841    -0.000448194275    -0.000417584835
       2       -0.000234741135     0.000497032734     0.000717222607
       3       -0.000186832625     0.000375087555    -0.000581720490
       4       -0.000009246229     0.000050645596    -0.000049302050
       5        0.000004732530     0.000002789010    -0.000011553343
       6        0.000236975154    -0.000459518040     0.000337757896
       7        0.000001746695     0.000000803929    -0.000005755363
       8       -0.000004480016    -0.000003732767     0.000010903338
       9        0.000007230174     0.000002641534     0.000000424432
      10       -0.000001647498    -0.000004123449    -0.000005520084
      11       -0.000000510537     0.000001773939    -0.000001594834
      12        0.000000605963     0.000001260506     0.000002264247
      13       -0.000001568099    -0.000004875326    -0.000002485830
      14       -0.000020650202    -0.000016836526     0.000011804350
      15        0.000004420211     0.000003688820    -0.000001298956
      16       -0.000001651194    -0.000000208852    -0.000001509153
      17        0.000004666969     0.000001765614    -0.000002051930

  **** Optimization is complete! (in 6 steps) ****
    Final optimized geometry and variables:
    Molecular point group: c1

    Geometry (in Angstrom), charge = 0, multiplicity = 1:

    O            1.620679827913    -0.431294900420     0.959027144774
    C            0.750023643057    -0.204697892868     0.189134298130
    C           -0.591413464905    -0.892079171917     0.188761429040
    O            0.864525412267     0.675223154480    -0.791792028994
    C           -1.786962659450     0.061792032865     0.184728919286
    H           -0.625221712990    -1.529260618753    -0.689927432364
    H           -0.612843885137    -1.533695619395     1.058103863063
    C           -3.113985559041    -0.687154636510     0.232912657352
    H           -1.748428447585     0.685404017499    -0.698945871893
    H           -1.716152368779     0.727111871738     1.039770693729
    H           -3.226107947098    -1.339719397261    -0.626451891221
    H           -3.948258978364     0.004028369422     0.234544797469
    H           -3.188607084318    -1.299116092243     1.125180189918
    C            2.091932008750     1.367185995087    -0.902511839392
    H            2.291221166497     1.935149744967    -0.006021458593
    H            1.985528716642     2.028876540895    -1.746787509941
    H            2.904790470828     0.676275355974    -1.069880558419

  Mulliken Charges: (a.u.)
   Center  Symbol    Alpha    Beta     Spin     Total
       1     O     4.19917  4.19917  0.00000 -0.39835
       2     C     2.81026  2.81026  0.00000  0.37948
       3     C     3.07909  3.07909  0.00000 -0.15818
       4     O     4.14868  4.14868  0.00000 -0.29736
       5     C     3.09015  3.09015  0.00000 -0.18030
       6     H     0.44793  0.44793  0.00000  0.10413
       7     H     0.43693  0.43693  0.00000  0.12613
       8     C     3.15146  3.15146  0.00000 -0.30291
       9     H     0.44333  0.44333  0.00000  0.11335
      10     H     0.44989  0.44989  0.00000  0.10022
      11     H     0.45445  0.45445  0.00000  0.09109
      12     H     0.44613  0.44613  0.00000  0.10773
      13     H     0.45313  0.45313  0.00000  0.09374
      14     C     3.03646  3.03646  0.00000 -0.07292
      15     H     0.45408  0.45408  0.00000  0.09184
      16     H     0.44580  0.44580  0.00000  0.10841
      17     H     0.45306  0.45306  0.00000  0.09388

   Total alpha = 28.00000, Total beta = 28.00000, Total charge = -0.00000
