  ==> Input File <==

--------------------------------------------------------------------------
set {
	reference rhf
	basis 6-31G*
}

set_num_threads( 4 )
memory 2 gb

molecule MOL {
0 1

H	 2.465338	 -2.224223	 0.000000
O	 2.784187	 -1.332015	 0.000000
C	 1.765313	 -0.449364	 0.000000
C	 0.581648	 -0.840339	 -0.618077
C	 1.863030	 0.799600	 0.581958
H	 0.530677	 -1.816128	 -1.063157
C	 -0.497234	 0.018725	 -0.651054
H	 2.762647	 1.126794	 1.064823
C	 0.760393	 1.637078	 0.530581
H	 -1.407217	 -0.291255	 -1.130326
C	 -0.423979	 1.279168	 -0.073334
N	 0.869089	 2.957220	 1.147750
H	 -1.252331	 1.956611	 -0.090859
O	 1.906723	 3.243412	 1.664898
O	 -0.084424	 3.671863	 1.099144

	symmetry c1
}
set optking {
	frozen_dihedral = ("
		4 3 2 1
	")
}

ee = optimize('scf')
oeprop('DIPOLE', 'QUADRUPOLE', 'MULLIKEN_CHARGES')
f=open( 'psi4out.xyz', 'w' )
f.write( "15  " )
f.write( str(ee) + "\n" )
f.write( MOL.save_string_xyz() )
f.close()
--------------------------------------------------------------------------

    Molecular point group: c1
  Charge       = 0
  Multiplicity = 1
  Basis Set: 6-31G*
  Basis Set:
  @DF-RHF Final Energy:  -509.02360487600356
    Total Energy =                       -509.0236048760034464
    Molecular point group: c1
  Basis Set: 6-31G*
  Basis Set:
  Basis Set: 6-31G*
  Basis Set:
  @DF-RHF Final Energy:  -509.02567892935190
    Total Energy =                       -509.0256789293518978
  Basis Set: 6-31G*
  Basis Set:
  Basis Set: 6-31G*
  Basis Set:
  @DF-RHF Final Energy:  -509.01667626761792
    Total Energy =                       -509.0166762676178678
  Basis Set: 6-31G*
  Basis Set:
  Basis Set: 6-31G*
  Basis Set:
  @DF-RHF Final Energy:  -509.02572453810734
    Total Energy =                       -509.0257245381069424
  Basis Set: 6-31G*
  Basis Set:
  Basis Set: 6-31G*
  Basis Set:
  @DF-RHF Final Energy:  -509.02587274797577
    Total Energy =                       -509.0258727479756544
  Basis Set: 6-31G*
  Basis Set:
  Basis Set: 6-31G*
  Basis Set:
  @DF-RHF Final Energy:  -509.02589001362867
    Total Energy =                       -509.0258900136286684
  Basis Set: 6-31G*
  Basis Set:
  Basis Set: 6-31G*
  Basis Set:
  @DF-RHF Final Energy:  -509.02589253286521
    Total Energy =                       -509.0258925328657824
  Basis Set: 6-31G*
  Basis Set:
  Charge       = 0
  Multiplicity = 1
  Basis Set: 6-31G*
  Basis Set:

    Orbital Energies (a.u.)
    -----------------------

    Doubly Occupied:

       1A    -20.612350     2A    -20.602362     3A    -20.602047
       4A    -15.856817     5A    -11.328520     6A    -11.309372
       7A    -11.268363     8A    -11.266138     9A    -11.263873
      10A    -11.263750    11A     -1.635771    12A     -1.432289
      13A     -1.419075    14A     -1.199939    15A     -1.094206
      16A     -1.047349    17A     -0.964231    18A     -0.864109
      19A     -0.845556    20A     -0.794841    21A     -0.734653
      22A     -0.732417    23A     -0.718254    24A     -0.710741
      25A     -0.678524    26A     -0.637656    27A     -0.622638
      28A     -0.582855    29A     -0.564991    30A     -0.535853
      31A     -0.514594    32A     -0.489675    33A     -0.487364
      34A     -0.452038    35A     -0.378364    36A     -0.345212

  @DF-RHF Final Energy:  -509.02589279800026

   => Energetics <=

    Nuclear Repulsion Energy =            503.2293303234517339
    One-Electron Energy =               -1692.7968701144404804
    Two-Electron Energy =                 680.5416469929883760
    DFT Exchange-Correlation Energy =       0.0000000000000000
    Empirical Dispersion Energy =           0.0000000000000000
    PCM Polarization Energy =               0.0000000000000000
    EFP Energy =                            0.0000000000000000
    Total Energy =                       -509.0258927980004273
    Molecular point group: c1
  Basis Set: 6-31G*
  Basis Set:

  -Total Gradient:
     Atom            X                  Y                   Z
    ------   -----------------  -----------------  -----------------
       1       -0.000051483796    -0.000020501518     0.001979396156
       2        0.000369021680     0.000328276663    -0.003194816224
       3       -0.000824427781    -0.000975099505     0.002494456058
       4        0.000524718290     0.000597836603    -0.001276778118
       5       -0.000028396616     0.000061598887    -0.000004074270
       6        0.000001414520    -0.000003560650    -0.000004413486
       7       -0.000010437351     0.000014491454    -0.000007605611
       8       -0.000003331071    -0.000015964962    -0.000006733133
       9        0.000023331003    -0.000006060951     0.000011710051
      10        0.000000499654     0.000002158571     0.000004830187
      11        0.000001293336    -0.000000011552     0.000007017581
      12        0.000035582381    -0.000002842445    -0.000021021973
      13        0.000002025306     0.000000078384     0.000000304569
      14       -0.000023930794     0.000005035818     0.000005597614
      15       -0.000015878762     0.000014565206     0.000012130596

  **** Optimization is complete! (in 8 steps) ****
    Final optimized geometry and variables:
    Molecular point group: c1

    Geometry (in Angstrom), charge = 0, multiplicity = 1:

    H            1.586863848264    -3.330702382945    -0.385947130940
    O            1.834527167822    -2.416522210893    -0.370954798305
    C            0.745187336053    -1.615317980574    -0.400727733361
    C           -0.434373794417    -1.986883057162    -1.027709984835
    C            0.859056911592    -0.362760554301     0.179674709393
    H           -0.509474069543    -2.954073386954    -1.493542019272
    C           -1.511276038487    -1.115533528815    -1.057961873648
    H            1.770054414155    -0.069327317905     0.658607719903
    C           -0.227634922431     0.485407461683     0.121294970088
    H           -2.422410725959    -1.415516138271    -1.541372783297
    C           -1.421865674345     0.138687283448    -0.483578501556
    N           -0.109120370410     1.807124862259     0.735329453653
    H           -2.240945750967     0.827146271626    -0.501980904890
    O            0.928255300734     2.087741158403     1.252947616318
    O           -1.059177459669     2.527498594348     0.682317256016

  Mulliken Charges: (a.u.)
   Center  Symbol    Alpha    Beta     Spin     Total
       1     H     0.26897  0.26897  0.00000  0.46206
       2     O     4.37622  4.37622  0.00000 -0.75245
       3     C     2.80137  2.80137  0.00000  0.39726
       4     C     3.12327  3.12327  0.00000 -0.24654
       5     C     3.11171  3.11171  0.00000 -0.22343
       6     H     0.39203  0.39203  0.00000  0.21593
       7     C     3.10069  3.10069  0.00000 -0.20137
       8     H     0.35744  0.35744  0.00000  0.28513
       9     C     2.91378  2.91378  0.00000  0.17243
      10     H     0.38694  0.38694  0.00000  0.22611
      11     C     3.09624  3.09624  0.00000 -0.19248
      12     N     3.24113  3.24113  0.00000  0.51774
      13     H     0.36503  0.36503  0.00000  0.26994
      14     O     4.23198  4.23198  0.00000 -0.46397
      15     O     4.23318  4.23318  0.00000 -0.46637

   Total alpha = 36.00000, Total beta = 36.00000, Total charge =  0.00000
