  ==> Input File <==

--------------------------------------------------------------------------
set {
	reference rhf
	basis 6-31G*
}

set_num_threads( 4 )
memory 2 gb

molecule MOL {
0 1

H	 -1.411757	 1.042621	 -2.120914
C	 -1.075571	 0.568357	 -1.220104
C	 -1.930507	 0.432938	 -0.076308
C	 0.167625	 0.079275	 -1.126937
H	 -2.934818	 0.815695	 -0.119912
C	 -1.487595	 -0.164143	 1.039392
H	 0.868955	 0.140418	 -1.937371
N	 0.640212	 -0.532897	 -0.000111
H	 -2.097887	 -0.283257	 1.913297
C	 -0.134759	 -0.696304	 1.140501
C	 2.010177	 -1.032049	 0.000042
O	 0.301125	 -1.239654	 2.124869
H	 2.187698	 -1.635381	 -0.882279
H	 2.677579	 -0.189247	 -0.001871
H	 2.188882	 -1.632203	 0.884288

	symmetry c1
}
set optking {
	frozen_dihedral = ("
		10 8 11 13
	")
}

ee = optimize('scf')
oeprop('DIPOLE', 'QUADRUPOLE', 'MULLIKEN_CHARGES')
f=open( 'psi4out.xyz', 'w' )
f.write( "15  " )
f.write( str(ee) + "\n" )
f.write( MOL.save_string_xyz() )
f.close()
--------------------------------------------------------------------------

    Molecular point group: c1
  Charge       = 0
  Multiplicity = 1
  Basis Set: 6-31G*
  Basis Set:
  @DF-RHF Final Energy:  -360.59546679469946
    Total Energy =                       -360.5954667946995187
    Molecular point group: c1
  Basis Set: 6-31G*
  Basis Set:
  Basis Set: 6-31G*
  Basis Set:
  @DF-RHF Final Energy:  -360.59580339792598
    Total Energy =                       -360.5958033979258062
  Basis Set: 6-31G*
  Basis Set:
  Basis Set: 6-31G*
  Basis Set:
  @DF-RHF Final Energy:  -360.59583846539732
    Total Energy =                       -360.5958384653974349
  Basis Set: 6-31G*
  Basis Set:
  Basis Set: 6-31G*
  Basis Set:
  @DF-RHF Final Energy:  -360.59583772318598
    Total Energy =                       -360.5958377231859799
  Basis Set: 6-31G*
  Basis Set:
  Charge       = 0
  Multiplicity = 1
  Basis Set: 6-31G*
  Basis Set:

    Orbital Energies (a.u.)
    -----------------------

    Doubly Occupied:

       1A    -20.508666     2A    -15.621223     3A    -11.343450
       4A    -11.296601     5A    -11.264218     6A    -11.260451
       7A    -11.233784     8A    -11.229233     9A     -1.384300
      10A     -1.281019    11A     -1.114812    12A     -1.025768
      13A     -0.969938    14A     -0.872108    15A     -0.835318
      16A     -0.715403    17A     -0.698527    18A     -0.660671
      19A     -0.647941    20A     -0.621672    21A     -0.606706
      22A     -0.571964    23A     -0.553349    24A     -0.546925
      25A     -0.526069    26A     -0.476143    27A     -0.413632
      28A     -0.405982    29A     -0.305262

  @DF-RHF Final Energy:  -360.59585487493888

   => Energetics <=

    Nuclear Repulsion Energy =            357.5866031465604351
    One-Electron Energy =               -1198.3826456587335088
    Two-Electron Energy =                 480.2001876372341940
    DFT Exchange-Correlation Energy =       0.0000000000000000
    Empirical Dispersion Energy =           0.0000000000000000
    PCM Polarization Energy =               0.0000000000000000
    EFP Energy =                            0.0000000000000000
    Total Energy =                       -360.5958548749388228
    Molecular point group: c1
  Basis Set: 6-31G*
  Basis Set:

  -Total Gradient:
     Atom            X                  Y                   Z
    ------   -----------------  -----------------  -----------------
       1        0.000005430515     0.000008909165     0.000006450886
       2        0.000011978565     0.000028070769     0.000015221180
       3       -0.000012627358    -0.000028836144    -0.000003918468
       4       -0.000022031232    -0.000074622198    -0.000034229743
       5       -0.000000656341     0.000006777810     0.000007008001
       6       -0.000003896530     0.000014024115     0.000003540829
       7        0.000011162126     0.000013703359     0.000008932590
       8        0.000065993352     0.000252903287     0.000132091793
       9       -0.000002859415     0.000005969777    -0.000000200545
      10       -0.000070398105    -0.000189109644    -0.000086643478
      11        0.000057909761     0.000180882987    -0.000203735749
      12        0.000008737178     0.000005303583    -0.000000885589
      13       -0.000065411462    -0.000187685858     0.000120820594
      14       -0.000009126707    -0.000007440719     0.000002726992
      15        0.000025795652    -0.000028850291     0.000032820702

  **** Optimization is complete! (in 5 steps) ****
    Final optimized geometry and variables:
    Molecular point group: c1

    Geometry (in Angstrom), charge = 0, multiplicity = 1:

    H           -1.285689372569     1.401903355419    -2.381179349974
    C           -0.948444167930     0.925226072320    -1.482099147025
    C           -1.802822223911     0.785648271319    -0.338326864281
    C            0.294462514565     0.434689020900    -1.392290646008
    H           -2.807546622422     1.167393089932    -0.380714460475
    C           -1.358768303189     0.186180990968     0.775608019941
    H            0.994592637964     0.497668805419    -2.203463492605
    N            0.767107575704    -0.182943999239    -0.268476133509
    H           -1.968072984394     0.064740762728     1.649989515253
    C           -0.003670982194    -0.340521876094     0.875552303359
    C            2.140362856167    -0.673179041402    -0.263299765633
    O            0.438366084381    -0.875187113894     1.861936939562
    H            2.315634651047    -1.283613183798    -1.140397375207
    H            2.839315170902     0.155193234156    -0.258316440793
    H            2.286257485405    -1.265260867871     0.622341587158

  Mulliken Charges: (a.u.)
   Center  Symbol    Alpha    Beta     Spin     Total
       1     H     0.39284  0.39284  0.00000  0.21431
       2     C     3.16152  3.16152  0.00000 -0.32304
       3     C     3.05827  3.05827  0.00000 -0.11653
       4     C     2.92084  2.92084  0.00000  0.15832
       5     H     0.39084  0.39084  0.00000  0.21832
       6     C     3.16971  3.16971  0.00000 -0.33942
       7     H     0.38790  0.38790  0.00000  0.22420
       8     N     3.86561  3.86561  0.00000 -0.73121
       9     H     0.38634  0.38634  0.00000  0.22733
      10     C     2.59397  2.59397  0.00000  0.81205
      11     C     3.15514  3.15514  0.00000 -0.31029
      12     O     4.32200  4.32200  0.00000 -0.64401
      13     H     0.41179  0.41179  0.00000  0.17643
      14     H     0.40900  0.40900  0.00000  0.18200
      15     H     0.37423  0.37423  0.00000  0.25153

   Total alpha = 29.00000, Total beta = 29.00000, Total charge =  0.00000
