  ==> Input File <==

--------------------------------------------------------------------------
set {
	reference rhf
	basis cc-pvtz
}

set_num_threads( 4 )
memory 2 gb

molecule MOL {
0 1

H	 -3.144994	 -1.202467	 -0.018751
O	 -2.321472	 -0.864941	 -0.318626
C	 -2.021813	 0.336996	 0.342658
C	 -0.669613	 0.837286	 -0.127252
H	 -2.780861	 1.084746	 0.127159
H	 -2.006390	 0.184138	 1.420053
C	 0.490865	 -0.082543	 0.241244
H	 -0.708709	 0.967192	 -1.204587
H	 -0.507562	 1.822272	 0.303070
C	 1.276211	 -0.569050	 -0.973313
H	 0.109102	 -0.934793	 0.791683
H	 1.163871	 0.443729	 0.915205
C	 2.440934	 -1.482192	 -0.605377
H	 0.604911	 -1.096340	 -1.645641
H	 1.651777	 0.286886	 -1.528303
H	 2.093463	 -2.365330	 -0.079784
H	 2.976770	 -1.811893	 -1.488260
H	 3.149063	 -0.972754	 0.039968

	symmetry c1
}
set optking {
	frozen_dihedral = ("
		10 7 4 8
	")
}

ee = optimize('scf')
oeprop('DIPOLE', 'QUADRUPOLE', 'MULLIKEN_CHARGES')
f=open( 'psi4out.xyz', 'w' )
f.write( "18  " )
f.write( str(ee) + "\n" )
f.write( MOL.save_string_xyz() )
f.close()
--------------------------------------------------------------------------

    Molecular point group: c1
  Charge       = 0
  Multiplicity = 1
  Basis Set: CC-PVTZ
  Basis Set:
  @DF-RHF Final Energy:  -271.28192002904370
    Total Energy =                       -271.2819200290433628
    Molecular point group: c1
  Basis Set: CC-PVTZ
  Basis Set:
  Basis Set: CC-PVTZ
  Basis Set:
  @DF-RHF Final Energy:  -271.28216237503659
    Total Energy =                       -271.2821623750367053
  Basis Set: CC-PVTZ
  Basis Set:
  Basis Set: CC-PVTZ
  Basis Set:
  @DF-RHF Final Energy:  -271.28223840627902
    Total Energy =                       -271.2822384062793617
  Basis Set: CC-PVTZ
  Basis Set:
  Basis Set: CC-PVTZ
  Basis Set:
  @DF-RHF Final Energy:  -271.28223953984048
    Total Energy =                       -271.2822395398403614
  Basis Set: CC-PVTZ
  Basis Set:
  Charge       = 0
  Multiplicity = 1
  Basis Set: CC-PVTZ
  Basis Set:

    Orbital Energies (a.u.)
    -----------------------

    Doubly Occupied:

       1A    -20.547074     2A    -11.266267     3A    -11.210170
       4A    -11.205788     5A    -11.205164     6A    -11.200378
       7A     -1.364893     8A     -1.073217     9A     -1.008554
      10A     -0.913214    11A     -0.819263    12A     -0.783199
      13A     -0.708686    14A     -0.643011    15A     -0.622537
      16A     -0.582520    17A     -0.570127    18A     -0.559542
      19A     -0.523096    20A     -0.501752    21A     -0.488611
      22A     -0.466710    23A     -0.452872    24A     -0.448337
      25A     -0.432189

  @DF-RHF Final Energy:  -271.28223998382441

   => Energetics <=

    Nuclear Repulsion Energy =            251.9187070997832052
    One-Electron Energy =                -867.2075461014944722
    Two-Electron Energy =                 344.0065990178869129
    DFT Exchange-Correlation Energy =       0.0000000000000000
    Empirical Dispersion Energy =           0.0000000000000000
    PCM Polarization Energy =               0.0000000000000000
    EFP Energy =                            0.0000000000000000
    Total Energy =                       -271.2822399838243541
    Molecular point group: c1
  Basis Set: CC-PVTZ
  Basis Set:

  -Total Gradient:
     Atom            X                  Y                   Z
    ------   -----------------  -----------------  -----------------
       1        0.000000249133     0.000016052751     0.000000683353
       2        0.000027351636     0.000003149157     0.000011733772
       3       -0.000030428990    -0.000000009720    -0.000014263226
       4       -0.000304875351    -0.000426039939    -0.000038203057
       5       -0.000009612405     0.000008704849     0.000008011013
       6        0.000013907275    -0.000006309258    -0.000010971543
       7        0.000254780813     0.000337921857     0.000033876687
       8        0.000208006243     0.000261661586     0.000024939762
       9        0.000000797155    -0.000008867429     0.000010265223
      10       -0.000169952571    -0.000194113416    -0.000010776207
      11       -0.000006163965     0.000006086088    -0.000011778533
      12       -0.000003657879     0.000006630612    -0.000005476787
      13        0.000015149596     0.000000046880    -0.000000543783
      14       -0.000000320061    -0.000001056870     0.000007443014
      15       -0.000005288149     0.000000010443    -0.000000025633
      16       -0.000000145299     0.000006271285    -0.000003266814
      17        0.000011910090    -0.000005207907    -0.000001074505
      18       -0.000001707273    -0.000004930969    -0.000000572735

  **** Optimization is complete! (in 5 steps) ****
    Final optimized geometry and variables:
    Molecular point group: c1

    Geometry (in Angstrom), charge = 0, multiplicity = 1:

    H           -2.932444814852    -0.899309398469     0.242972847839
    O           -2.125328096163    -0.538656590379    -0.073917845821
    C           -1.845901926201     0.673175365962     0.578262425420
    C           -0.494794320214     1.177606566321     0.111470774436
    H           -2.611688625956     1.410423007270     0.350402305174
    H           -1.835741198108     0.529957045508     1.656966271080
    C            0.678187346979     0.245612327666     0.473995578021
    H           -0.542245515027     1.316746387586    -0.963281234747
    H           -0.342256822594     2.162316298216     0.541160054668
    C            1.467534079951    -0.242231110419    -0.738339861619
    H            0.300286752804    -0.618932232959     1.008640571726
    H            1.353811962105     0.754729143036     1.154691646281
    C            2.624945328476    -1.162394838388    -0.367302068656
    H            0.791124891410    -0.760574426359    -1.410580744318
    H            1.850134460937     0.614745617025    -1.286979959349
    H            2.269697205715    -2.046066900864     0.152457569316
    H            3.163388269293    -1.491981930932    -1.248673744971
    H            3.333190075996    -0.659948395847     0.283724128161

  Mulliken Charges: (a.u.)
   Center  Symbol    Alpha    Beta     Spin     Total
       1     H     0.39572  0.39572  0.00000  0.20855
       2     O     4.19957  4.19957  0.00000 -0.39913
       3     C     2.97491  2.97491  0.00000  0.05019
       4     C     3.09834  3.09834  0.00000 -0.19669
       5     H     0.46408  0.46408  0.00000  0.07185
       6     H     0.47260  0.47260  0.00000  0.05480
       7     C     3.08793  3.08793  0.00000 -0.17586
       8     H     0.45225  0.45225  0.00000  0.09551
       9     H     0.44836  0.44836  0.00000  0.10329
      10     C     3.08205  3.08205  0.00000 -0.16410
      11     H     0.45413  0.45413  0.00000  0.09174
      12     H     0.45201  0.45201  0.00000  0.09599
      13     C     3.15118  3.15118  0.00000 -0.30237
      14     H     0.44906  0.44906  0.00000  0.10188
      15     H     0.45650  0.45650  0.00000  0.08701
      16     H     0.45473  0.45473  0.00000  0.09055
      17     H     0.44947  0.44947  0.00000  0.10106
      18     H     0.45714  0.45714  0.00000  0.08572

   Total alpha = 25.00000, Total beta = 25.00000, Total charge = -0.00000
