                              Psi4 1.0.54 Driver

  ==> Input File <==

--------------------------------------------------------------------------
set {
	reference rhf
	basis cc-pvtz
}

set_num_threads( 4 )
memory 2 gb

molecule MOL {
0 1

H	 -4.230259	 0.539112	 0.036360
O	 -3.515113	 -0.019339	 -0.206321
C	 -2.302264	 0.528872	 0.237390
C	 -1.175688	 -0.398187	 -0.171891
H	 -2.148018	 1.514076	 -0.197759
H	 -2.310727	 0.646384	 1.319032
C	 0.196029	 0.106276	 0.266738
H	 -1.201873	 -0.515469	 -1.250677
H	 -1.365975	 -1.378728	 0.252664
C	 1.330220	 -0.826136	 -0.155230
H	 0.359542	 1.097229	 -0.145561
H	 0.212134	 0.218135	 1.348778
C	 2.719700	 -0.407669	 0.328325
H	 1.339388	 -0.911200	 -1.239363
H	 1.119001	 -1.821953	 0.224128
C	 2.727135	 0.419038	 1.612014
H	 3.196650	 0.168595	 -0.458533
H	 3.332965	 -1.294266	 0.467206
H	 2.115771	 1.309469	 1.505117
H	 2.349134	 -0.141619	 2.458458
H	 3.733576	 0.738365	 1.857534

	symmetry c1
}
set optking {
	frozen_dihedral = ("
		16 13 10 14
	")
}

ee,wfn = optimize('scf', return_wfn=True)
oeprop( wfn, 'DIPOLE', 'QUADRUPOLE', 'MULLIKEN_CHARGES')
f=open( 'psi4out.xyz', 'w' )
f.write( "21  " )
f.write( str(ee) + "\n" )
f.write( MOL.save_string_xyz() )
f.close()
--------------------------------------------------------------------------

    Molecular point group: c1
  Charge       = 0
  Multiplicity = 1
  Basis Set: CC-PVTZ
  Basis Set:
  @DF-RHF Final Energy:  -310.32665323139867
    Total Energy =                       -310.3266532313987227
    Molecular point group: c1
  Basis Set: CC-PVTZ
  Basis Set:
  Basis Set: CC-PVTZ
  Basis Set:
  @DF-RHF Final Energy:  -310.11969856858769
    Total Energy =                       -310.1196985685876371
  Basis Set: CC-PVTZ
  Basis Set:
  Basis Set: CC-PVTZ
  Basis Set:
  @DF-RHF Final Energy:  -310.24607835968152
    Total Energy =                       -310.2460783596813485
  Basis Set: CC-PVTZ
  Basis Set:
  Basis Set: CC-PVTZ
  Basis Set:
  @DF-RHF Final Energy:  -310.32001036826500
    Total Energy =                       -310.3200103682648887
  Basis Set: CC-PVTZ
  Basis Set:
  @DF-RHF Final Energy:  -310.32675269224524
    Total Energy =                       -310.3267526922452362
  Basis Set: CC-PVTZ
  Basis Set:
  @DF-RHF Final Energy:  -310.32820427554554
    Total Energy =                       -310.3282042755456587
  Basis Set: CC-PVTZ
  Basis Set:
  Basis Set: CC-PVTZ
  Basis Set:
  @DF-RHF Final Energy:  -310.32837400855965
    Total Energy =                       -310.3283740085598197
  Basis Set: CC-PVTZ
  Basis Set:
  Basis Set: CC-PVTZ
  Basis Set:
  @DF-RHF Final Energy:  -310.32838353502632
    Total Energy =                       -310.3283835350259210
  Basis Set: CC-PVTZ
  Basis Set:
  Charge       = 0
  Multiplicity = 1
  Basis Set: CC-PVTZ
  Basis Set:

    Orbital Energies (a.u.)
    -----------------------

    Doubly Occupied:

       1A    -20.545300     2A    -11.264840     3A    -11.213350
       4A    -11.212908     5A    -11.211541     6A    -11.208675
       7A    -11.206181     8A     -1.363131     9A     -1.086193
      10A     -1.032839    11A     -0.954836    12A     -0.879299
      13A     -0.809401    14A     -0.772883    15A     -0.695538
      16A     -0.664380    17A     -0.629871    18A     -0.600015
      19A     -0.586036    20A     -0.575260    21A     -0.535226
      22A     -0.526485    23A     -0.507900    24A     -0.486448
      25A     -0.484666    26A     -0.457358    27A     -0.451383
      28A     -0.444515    29A     -0.437205

  @DF-RHF Final Energy:  -310.32838390160794

   => Energetics <=

    Nuclear Repulsion Energy =            313.8360414824195459
    One-Electron Energy =               -1042.6415175489730700
    Two-Electron Energy =                 418.4770921649453044
    DFT Exchange-Correlation Energy =       0.0000000000000000
    Empirical Dispersion Energy =           0.0000000000000000
    PCM Polarization Energy =               0.0000000000000000
    EFP Energy =                            0.0000000000000000
    Total Energy =                       -310.3283839016082197
    Molecular point group: c1
  Basis Set: CC-PVTZ
  Basis Set:

  -Total Gradient:
     Atom            X                  Y                   Z
    ------   -----------------  -----------------  -----------------
       1       -0.000004730596    -0.000000089376     0.000005309127
       2        0.000020904740     0.000002391411     0.000006657436
       3        0.000007145473     0.000011165402    -0.000007111489
       4        0.000003735406     0.000021564868     0.000025985709
       5       -0.000009298220     0.000022270643     0.000000624560
       6        0.000013150276    -0.000004721120    -0.000019846776
       7       -0.000052054077    -0.000062454538    -0.000002495582
       8       -0.000004917698    -0.000003200645     0.000007693041
       9        0.000009832906    -0.000021095174     0.000005604495
      10        0.002054196981    -0.005293141172    -0.001339374138
      11       -0.000002583445     0.000038019145     0.000020541953
      12       -0.000029139686    -0.000007474204    -0.000041167018
      13       -0.001147135208    -0.005134675021     0.001952239674
      14       -0.001458933574     0.005959416069     0.000653634718
      15        0.000025997089    -0.000011245752     0.000016422290
      16        0.000592232270     0.004492416218    -0.001273179812
      17       -0.000029528036    -0.000015562792     0.000008530505
      18        0.000010996732    -0.000002977213    -0.000021932192
      19        0.000020368448     0.000021161288     0.000026489769
      20       -0.000006746994     0.000008704125    -0.000016827832
      21       -0.000013492791    -0.000020472162    -0.000007798438

  **** Optimization is complete! (in 9 steps) ****
    Final optimized geometry and variables:
    Molecular point group: c1

    Geometry (in Angstrom), charge = 0, multiplicity = 1:

    H           -3.623099637571     1.214824245059    -1.818858130427
    O           -2.870430145218     0.657379883102    -1.888645542014
    C           -2.012017841424     0.866167459490    -0.798699617606
    C           -0.814431773981    -0.050645553794    -0.945313016135
    H           -1.683242011174     1.902875948059    -0.766385333145
    H           -2.526683796520     0.656659985030     0.136645586488
    C            0.189713030231     0.099796381269     0.193707106920
    H           -0.335701393526     0.159418689989    -1.896408437303
    H           -1.169920816083    -1.075074891616    -0.995526778683
    C            1.389080094624    -0.837434559455     0.035873527744
    H            0.537463710205     1.129687488371     0.231743403931
    H           -0.311204999246    -0.089315838474     1.137666583095
    C            2.505486839658    -0.680275095497     1.086967203802
    H            1.814485443527    -0.627071631811    -0.940241656561
    H            1.031733243907    -1.862153875273     0.022368911706
    C            2.071702218948    -0.231058590623     2.481015111100
    H            3.223424921492     0.047499153890     0.719452322067
    H            3.047888606846    -1.616448886694     1.163026306497
    H            1.631565947186     0.757738756114     2.465999314423
    H            1.346824410819    -0.910163329220     2.918599626605
    H            2.928101909946    -0.197825733488     3.144821785493

  Mulliken Charges: (a.u.)
   Center  Symbol    Alpha    Beta     Spin     Total
       1     H     0.39768  0.39768  0.00000  0.20465
       2     O     4.19406  4.19406  0.00000 -0.38811
       3     C     2.96320  2.96320  0.00000  0.07360
       4     C     3.08512  3.08512  0.00000 -0.17024
       5     H     0.47515  0.47515  0.00000  0.04969
       6     H     0.47496  0.47496  0.00000  0.05008
       7     C     3.10514  3.10514  0.00000 -0.21029
       8     H     0.45057  0.45057  0.00000  0.09886
       9     H     0.45116  0.45116  0.00000  0.09768
      10     C     3.09407  3.09407  0.00000 -0.18815
      11     H     0.45457  0.45457  0.00000  0.09087
      12     H     0.45187  0.45187  0.00000  0.09626
      13     C     3.08819  3.08819  0.00000 -0.17637
      14     H     0.45135  0.45135  0.00000  0.09730
      15     H     0.45116  0.45116  0.00000  0.09769
      16     C     3.15694  3.15694  0.00000 -0.31388
      17     H     0.45429  0.45429  0.00000  0.09142
      18     H     0.44943  0.44943  0.00000  0.10114
      19     H     0.45202  0.45202  0.00000  0.09597
      20     H     0.45410  0.45410  0.00000  0.09181
      21     H     0.44499  0.44499  0.00000  0.11001

   Total alpha = 29.00000, Total beta = 29.00000, Total charge =  0.00000

*** Psi4 exiting successfully. Buy a developer a beer!
