  ==> Input File <==

--------------------------------------------------------------------------
set {
	reference rhf
	basis cc-pvtz
}

set_num_threads( 4 )
memory 2 gb

molecule MOL {
0 1

H	 1.155103	 1.077433	 1.751857
C	 0.231802	 1.186641	 1.202040
O	 -0.000000	 0.000000	 0.518769
H	 -0.570060	 1.405417	 1.904187
H	 0.328654	 2.027692	 0.518587
C	 -1.165153	 0.000000	 -0.236961
H	 -1.229451	 0.882440	 -0.870223
H	 -2.002557	 0.000000	 0.445289
H	 -1.229451	 -0.882440	 -0.870223

	symmetry c1
}
set optking {
	frozen_dihedral = ("
		2 3 6 7
	")
}

ee = optimize('scf')
oeprop('DIPOLE', 'QUADRUPOLE', 'MULLIKEN_CHARGES')
f=open( 'psi4out.xyz', 'w' )
f.write( "9  " )
f.write( str(ee) + "\n" )
f.write( MOL.save_string_xyz() )
f.close()
--------------------------------------------------------------------------

    Molecular point group: c1
  Charge       = 0
  Multiplicity = 1
  Basis Set: CC-PVTZ
  Basis Set:
  @DF-RHF Final Energy:  -154.12597552748406
    Total Energy =                       -154.1259755274841154
    Molecular point group: c1
  Basis Set: CC-PVTZ
  Basis Set:
  Basis Set: CC-PVTZ
  Basis Set:
  @DF-RHF Final Energy:  -154.12673403243573
    Total Energy =                       -154.1267340324357633
  Basis Set: CC-PVTZ
  Basis Set:
  Basis Set: CC-PVTZ
  Basis Set:
  @DF-RHF Final Energy:  -154.12692007254293
    Total Energy =                       -154.1269200725429585
  Basis Set: CC-PVTZ
  Basis Set:
  Charge       = 0
  Multiplicity = 1
  Basis Set: CC-PVTZ
  Basis Set:

    Orbital Energies (a.u.)
    -----------------------

    Doubly Occupied:

       1A    -20.550172     2A    -11.263306     3A    -11.263217
       4A     -1.382639     5A     -0.975855     6A     -0.872824
       7A     -0.663734     8A     -0.656018     9A     -0.647060
      10A     -0.551642    11A     -0.530042    12A     -0.477227
      13A     -0.419859

  @DF-RHF Final Energy:  -154.12692131962859

   => Energetics <=

    Nuclear Repulsion Energy =             84.8526167099633284
    One-Electron Energy =                -377.4518822609967970
    Two-Electron Energy =                 138.4723442314048327
    DFT Exchange-Correlation Energy =       0.0000000000000000
    Empirical Dispersion Energy =           0.0000000000000000
    PCM Polarization Energy =               0.0000000000000000
    EFP Energy =                            0.0000000000000000
    Total Energy =                       -154.1269213196286216
    Molecular point group: c1
  Basis Set: CC-PVTZ
  Basis Set:

  -Total Gradient:
     Atom            X                  Y                   Z
    ------   -----------------  -----------------  -----------------
       1       -0.000020808916    -0.000091071053    -0.000041059298
       2        0.000464274030     0.000519440470    -0.001053614204
       3       -0.001042612887    -0.000474195108     0.001666095676
       4        0.000010241950    -0.000023506381     0.000010613525
       5        0.000020424517     0.000027436547     0.000007582152
       6        0.001121018122    -0.000704122597    -0.001783407678
       7       -0.000657034642     0.000753069554     0.001129204087
       8        0.000035719777    -0.000002770860     0.000031874046
       9        0.000068778050    -0.000004280571     0.000032711693

  **** Optimization is complete! (in 4 steps) ****
    Final optimized geometry and variables:
    Molecular point group: c1

    Geometry (in Angstrom), charge = 0, multiplicity = 1:

    H            1.487369703637     0.659373029662     1.249739082649
    C            0.562430911355     0.776509365536     0.703976745979
    O            0.318949080433    -0.407894548305     0.021096251285
    H           -0.233689294001     1.002405301950     1.410887892288
    H            0.662592122710     1.616439913766     0.019828774740
    C           -0.853664638285    -0.404463789463    -0.723577917982
    H           -0.922520749643     0.478269737342    -1.355646423599
    H           -1.731019379832    -0.425769955282    -0.079851370397
    H           -0.857015671524    -1.287018480885    -1.346382975714

  Mulliken Charges: (a.u.)
   Center  Symbol    Alpha    Beta     Spin     Total
       1     H     0.44840  0.44840  0.00000  0.10321
       2     C     3.02207  3.02207  0.00000 -0.04414
       3     O     4.16753  4.16753  0.00000 -0.33506
       4     H     0.47364  0.47364  0.00000  0.05271
       5     H     0.47236  0.47236  0.00000  0.05527
       6     C     3.02154  3.02154  0.00000 -0.04308
       7     H     0.47481  0.47481  0.00000  0.05038
       8     H     0.47106  0.47106  0.00000  0.05789
       9     H     0.44859  0.44859  0.00000  0.10282

   Total alpha = 13.00000, Total beta = 13.00000, Total charge =  0.00000
