  ==> Input File <==

--------------------------------------------------------------------------
set {
	reference rhf
	basis 6-31G*
}

set_num_threads( 4 )
memory 2 gb

molecule MOL {
0 1

O	 1.314373	 1.009109	 0.807906
C	 0.861134	 0.272526	 -0.014869
C	 -0.623889	 -0.118271	 -0.003699
C	 1.765096	 -0.297726	 -1.093604
C	 -0.895332	 -1.256461	 -1.002431
C	 -1.473649	 1.103340	 -0.370799
C	 -0.983900	 -0.581483	 1.422328
H	 -0.615301	 -0.972064	 -2.012700
H	 -1.954261	 -1.493213	 -1.010207
H	 -0.360539	 -2.164946	 -0.747760
H	 -1.227476	 1.468527	 -1.361691
H	 -2.526716	 0.838935	 -0.358521
H	 -1.314819	 1.915855	 0.325860
H	 -2.039679	 -0.828001	 1.472951
H	 -0.427637	 -1.464071	 1.720694
H	 -0.789023	 0.202493	 2.147048
H	 1.620263	 0.255889	 -2.016639
H	 2.793632	 -0.181693	 -0.780928
H	 1.560873	 -1.340500	 -1.303695

	symmetry c1
}
set optking {
	frozen_dihedral = ("
		1 2 3 5
	")
}

ee = optimize('scf')
oeprop('DIPOLE', 'QUADRUPOLE', 'MULLIKEN_CHARGES')
f=open( 'psi4out.xyz', 'w' )
f.write( "19  " )
f.write( str(ee) + "\n" )
f.write( MOL.save_string_xyz() )
f.close()
--------------------------------------------------------------------------

    Molecular point group: c1
  Charge       = 0
  Multiplicity = 1
  Basis Set: 6-31G*
  Basis Set:
  @DF-RHF Final Energy:  -309.05940939229419
    Total Energy =                       -309.0594093922940715
    Molecular point group: c1
  Basis Set: 6-31G*
  Basis Set:
  Basis Set: 6-31G*
  Basis Set:
  @DF-RHF Final Energy:  -309.05979084491622
    Total Energy =                       -309.0597908449166198
  Basis Set: 6-31G*
  Basis Set:
  Basis Set: 6-31G*
  Basis Set:
  @DF-RHF Final Energy:  -309.06134402734324
    Total Energy =                       -309.0613440273432388
  Basis Set: 6-31G*
  Basis Set:
  Basis Set: 6-31G*
  Basis Set:
  @DF-RHF Final Energy:  -309.06167380369186
    Total Energy =                       -309.0616738036919173
  Basis Set: 6-31G*
  Basis Set:
  @DF-RHF Final Energy:  -309.06173279763232
    Total Energy =                       -309.0617327976323168
  @DF-RHF Final Energy:  -309.06185549877915
    Total Energy =                       -309.0618554987789821
  Basis Set: 6-31G*
  Basis Set:
  @DF-RHF Final Energy:  -309.06199246804925
    Total Energy =                       -309.0619924680495956
  Basis Set: 6-31G*
  Basis Set:
  Basis Set: 6-31G*
  Basis Set:
  @DF-RHF Final Energy:  -309.06200331685039
    Total Energy =                       -309.0620033168504506
  Basis Set: 6-31G*
  Basis Set:
  Basis Set: 6-31G*
  Basis Set:
  @DF-RHF Final Energy:  -309.06199706819280
    Total Energy =                       -309.0619970681927953
  Basis Set: 6-31G*
  Basis Set:
  Charge       = 0
  Multiplicity = 1
  Basis Set: 6-31G*
  Basis Set:

    Orbital Energies (a.u.)
    -----------------------

    Doubly Occupied:

       1A    -20.547403     2A    -11.323543     3A    -11.246275
       4A    -11.227655     5A    -11.222234     6A    -11.219363
       7A    -11.213347     8A     -1.394521     9A     -1.107894
      10A     -1.003566    11A     -0.942330    12A     -0.938186
      13A     -0.833485    14A     -0.703911    15A     -0.664728
      16A     -0.631014    17A     -0.622367    18A     -0.587834
      19A     -0.585752    20A     -0.572056    21A     -0.551502
      22A     -0.545961    23A     -0.523374    24A     -0.513443
      25A     -0.500029    26A     -0.471669    27A     -0.460386
      28A     -0.391802

  @DF-RHF Final Energy:  -309.06200516273498

   => Energetics <=

    Nuclear Repulsion Energy =            326.1847820136309792
    One-Electron Energy =               -1065.4023181944787666
    Two-Electron Energy =                 430.1555310181129244
    DFT Exchange-Correlation Energy =       0.0000000000000000
    Empirical Dispersion Energy =           0.0000000000000000
    PCM Polarization Energy =               0.0000000000000000
    EFP Energy =                            0.0000000000000000
    Total Energy =                       -309.0620051627348630
    Molecular point group: c1
  Basis Set: 6-31G*
  Basis Set:

  -Total Gradient:
     Atom            X                  Y                   Z
    ------   -----------------  -----------------  -----------------
       1       -0.000217224885     0.000823659082    -0.000591224142
       2        0.000282452394    -0.000934685001     0.000604921689
       3        0.000078088096    -0.000412843158     0.000520688903
       4       -0.000006683906     0.000015351903    -0.000003510802
       5       -0.000124020166     0.000524213093    -0.000528139435
       6        0.000005124204     0.000000961612     0.000003491233
       7        0.000001429001    -0.000009575724     0.000000120701
       8       -0.000000456129    -0.000001545983     0.000000208401
       9       -0.000001201248     0.000000722849    -0.000001381373
      10       -0.000002305018    -0.000004748343     0.000000623880
      11       -0.000003029079    -0.000000066239     0.000002170915
      12       -0.000004557986     0.000005566799    -0.000003903981
      13       -0.000003771226    -0.000001295035    -0.000004218058
      14        0.000003663964     0.000001785560    -0.000002213180
      15       -0.000000941815    -0.000001205701     0.000000227822
      16        0.000001638794    -0.000000635563    -0.000001680648
      17        0.000003017205    -0.000001905298    -0.000003099701
      18       -0.000003291531    -0.000003805953     0.000002626527
      19       -0.000007930671     0.000000051099     0.000004291248

  **** Optimization is complete! (in 10 steps) ****
    Final optimized geometry and variables:
    Molecular point group: c1

    Geometry (in Angstrom), charge = 0, multiplicity = 1:

    O            1.292176951748     0.948175112731     0.893103649051
    C            0.876506530171     0.227684093820     0.036094449842
    C           -0.614430347768    -0.160331509357     0.025387599664
    C            1.801768118940    -0.255486022851    -1.062286009331
    C           -0.949449186537    -1.272752596650    -0.978333140675
    C           -1.395535130251     1.114711377379    -0.347324727101
    C           -1.006961899234    -0.608694932286     1.441673161053
    H           -0.720744161539    -0.989334487413    -2.000126826817
    H           -2.010875779724    -1.493677257253    -0.933962749943
    H           -0.418115528459    -2.193355266841    -0.756783709601
    H           -1.131414610229     1.467747482549    -1.340750340888
    H           -2.462462084981     0.914007179433    -0.341970845134
    H           -1.190913703656     1.909685325528     0.358928311579
    H           -2.070122364553    -0.825212640276     1.483351204323
    H           -0.473119545848    -1.509501856941     1.731044281394
    H           -0.781611372579     0.161915970641     2.166250556598
    H            1.443165324696     0.062126958315    -2.036397517061
    H            2.786641985031     0.155494708021    -0.891131652778
    H            1.858994733132    -1.338654605787    -1.077626657600

  Mulliken Charges: (a.u.)
   Center  Symbol    Alpha    Beta     Spin     Total
       1     O     4.26757  4.26757  0.00000 -0.53515
       2     C     2.72732  2.72732  0.00000  0.54535
       3     C     3.06124  3.06124  0.00000 -0.12247
       4     C     3.28969  3.28969  0.00000 -0.57938
       5     C     3.24034  3.24034  0.00000 -0.48068
       6     C     3.23829  3.23829  0.00000 -0.47659
       7     C     3.23471  3.23471  0.00000 -0.46942
       8     H     0.41824  0.41824  0.00000  0.16352
       9     H     0.41411  0.41411  0.00000  0.17178
      10     H     0.41805  0.41805  0.00000  0.16391
      11     H     0.42040  0.42040  0.00000  0.15920
      12     H     0.41628  0.41628  0.00000  0.16743
      13     H     0.40297  0.40297  0.00000  0.19406
      14     H     0.41987  0.41987  0.00000  0.16026
      15     H     0.42006  0.42006  0.00000  0.15988
      16     H     0.40059  0.40059  0.00000  0.19883
      17     H     0.40790  0.40790  0.00000  0.18419
      18     H     0.39544  0.39544  0.00000  0.20912
      19     H     0.40691  0.40691  0.00000  0.18617

   Total alpha = 28.00000, Total beta = 28.00000, Total charge = -0.00000
