                              Psi4 1.0.54 Driver

  ==> Input File <==

--------------------------------------------------------------------------
set {
	reference rhf
	basis cc-pvtz
}

set_num_threads( 4 )
memory 2 gb

molecule MOL {
0 1

O	 -1.278312	 1.034818	 -0.784722
C	 -1.204188	 0.062697	 -0.112341
C	 -2.386471	 -0.667669	 0.460294
O	 -0.068131	 -0.518343	 0.226853
H	 -2.383025	 -1.693143	 0.114304
H	 -3.296729	 -0.175673	 0.158371
H	 -2.312610	 -0.685162	 1.540071
C	 1.169013	 0.037513	 -0.230641
C	 2.157457	 -1.110410	 -0.279263
C	 1.605096	 1.157712	 0.696501
H	 1.008735	 0.431044	 -1.222877
H	 1.807581	 -1.888603	 -0.945410
H	 3.117309	 -0.758565	 -0.637873
H	 2.295942	 -1.540022	 0.705720
H	 2.547923	 1.571616	 0.358476
H	 0.872593	 1.952648	 0.709344
H	 1.737918	 0.785343	 1.705948

	symmetry c1
}
ee,wfn = energy('scf', return_wfn=True)
oeprop( wfn, 'DIPOLE', 'QUADRUPOLE', 'MULLIKEN_CHARGES')
oeprop( wfn, 'GRID_ESP')
f=open( 'psi4out.xyz', 'w' )
f.write( "17  " )
f.write( str(ee) + "\n" )
f.write( MOL.save_string_xyz() )
f.close()
--------------------------------------------------------------------------

    Molecular point group: c1

    Geometry (in Angstrom), charge = 0, multiplicity = 1:

       Center              X                  Y                   Z               Mass
    ------------   -----------------  -----------------  -----------------  -----------------
           O         -1.278238531462     1.034789407139    -0.784693201426    15.994914619560
           C         -1.204114531462     0.062668407139    -0.112312201426    12.000000000000
           C         -2.386397531462    -0.667697592861     0.460322798574    12.000000000000
           O         -0.068057531462    -0.518371592861     0.226881798574    15.994914619560
           H         -2.382951531462    -1.693171592861     0.114332798574     1.007825032070
           H         -3.296655531462    -0.175701592861     0.158399798574     1.007825032070
           H         -2.312536531462    -0.685190592861     1.540099798574     1.007825032070
           C          1.169086468538     0.037484407139    -0.230612201426    12.000000000000
           C          2.157530468538    -1.110438592861    -0.279234201426    12.000000000000
           C          1.605169468538     1.157683407139     0.696529798574    12.000000000000
           H          1.008808468538     0.431015407139    -1.222848201426     1.007825032070
           H          1.807654468538    -1.888631592861    -0.945381201426     1.007825032070
           H          3.117382468538    -0.758593592861    -0.637844201426     1.007825032070
           H          2.296015468538    -1.540050592861     0.705748798574     1.007825032070
           H          2.547996468538     1.571587407139     0.358504798574     1.007825032070
           H          0.872666468538     1.952619407139     0.709372798574     1.007825032070
           H          1.737991468538     0.785314407139     1.705976798574     1.007825032070

  Charge       = 0
  Multiplicity = 1
  Basis Set: CC-PVTZ
  Basis Set:

    Orbital Energies (a.u.)
    -----------------------

    Doubly Occupied:

       1A    -20.591298     2A    -20.531446     3A    -11.366736
       4A    -11.288154     5A    -11.230534     6A    -11.217714
       7A    -11.214062     8A     -1.468510     9A     -1.364470
      10A     -1.079652    11A     -1.005640    12A     -0.948765
      13A     -0.850012    14A     -0.767199    15A     -0.694739
      16A     -0.673067    17A     -0.662047    18A     -0.614179
      19A     -0.587052    20A     -0.579028    21A     -0.564016
      22A     -0.550863    23A     -0.538292    24A     -0.521731
      25A     -0.504050    26A     -0.483148    27A     -0.450418
      28A     -0.439067

  @DF-RHF Final Energy:  -345.04339654176221

   => Energetics <=

    Nuclear Repulsion Energy =            323.6373558234308234
    One-Electron Energy =               -1111.7895147770650510
    Two-Electron Energy =                 443.1087624118717940
    DFT Exchange-Correlation Energy =       0.0000000000000000
    Empirical Dispersion Energy =           0.0000000000000000
    PCM Polarization Energy =               0.0000000000000000
    EFP Energy =                            0.0000000000000000
    Total Energy =                       -345.0433965417623767

  Mulliken Charges: (a.u.)
   Center  Symbol    Alpha    Beta     Spin     Total
       1     O     4.19951  4.19951  0.00000 -0.39902
       2     C     2.80574  2.80574  0.00000  0.38852
       3     C     3.13913  3.13913  0.00000 -0.27826
       4     O     4.16401  4.16401  0.00000 -0.32801
       5     H     0.44594  0.44594  0.00000  0.10813
       6     H     0.43842  0.43842  0.00000  0.12316
       7     H     0.44619  0.44619  0.00000  0.10762
       8     C     2.93095  2.93095  0.00000  0.13810
       9     C     3.13794  3.13794  0.00000 -0.27588
      10     C     3.15395  3.15395  0.00000 -0.30790
      11     H     0.44216  0.44216  0.00000  0.11568
      12     H     0.44705  0.44705  0.00000  0.10591
      13     H     0.45418  0.45418  0.00000  0.09165
      14     H     0.45250  0.45250  0.00000  0.09499
      15     H     0.45007  0.45007  0.00000  0.09987
      16     H     0.43867  0.43867  0.00000  0.12266
      17     H     0.45361  0.45361  0.00000  0.09278

   Total alpha = 28.00000, Total beta = 28.00000, Total charge = -0.00000

*** Psi4 exiting successfully. Buy a developer a beer!
