                              Psi4 1.0.54 Driver

  ==> Input File <==

--------------------------------------------------------------------------
set {
	reference rhf
	basis cc-pvtz
}

set_num_threads( 4 )
memory 2 gb

molecule MOL {
0 1

H	 -3.034039	 -0.667848	 0.004703
O	 -2.240597	 -1.171748	 0.000934
C	 -1.159675	 -0.364500	 0.000370
C	 -0.685027	 0.237761	 1.147717
C	 -0.526434	 -0.152451	 -1.214577
H	 -1.175561	 0.076343	 2.090255
C	 0.429033	 1.055299	 1.065687
H	 -0.922023	 -0.633666	 -2.088006
C	 0.585781	 0.661197	 -1.294141
H	 0.799486	 1.528020	 1.955671
C	 1.062279	 1.270323	 -0.137463
C	 1.288654	 0.872901	 -2.611257
H	 1.923583	 1.909424	 -0.184020
H	 1.554343	 1.913940	 -2.747164
H	 0.666624	 0.571098	 -3.442966
H	 2.204587	 0.293267	 -2.652919

	symmetry c1
}
set optking {
	frozen_dihedral = ("
		5 3 2 1
	")
}

ee,wfn = optimize('scf', return_wfn=True)
oeprop( wfn, 'DIPOLE', 'QUADRUPOLE', 'MULLIKEN_CHARGES')
f=open( 'psi4out.xyz', 'w' )
f.write( "16  " )
f.write( str(ee) + "\n" )
f.write( MOL.save_string_xyz() )
f.close()
--------------------------------------------------------------------------

    Molecular point group: c1
  Charge       = 0
  Multiplicity = 1
  Basis Set: CC-PVTZ
  Basis Set:
  @DF-RHF Final Energy:  -344.71558501856691
    Total Energy =                       -344.7155850185672534
    Molecular point group: c1
  Basis Set: CC-PVTZ
  Basis Set:
  Basis Set: CC-PVTZ
  Basis Set:
  @DF-RHF Final Energy:  -344.71624164568010
    Total Energy =                       -344.7162416456801566
  Basis Set: CC-PVTZ
  Basis Set:
  Basis Set: CC-PVTZ
  Basis Set:
  @DF-RHF Final Energy:  -344.71629394348548
    Total Energy =                       -344.7162939434853683
  Basis Set: CC-PVTZ
  Basis Set:
  Basis Set: CC-PVTZ
  Basis Set:
  @DF-RHF Final Energy:  -344.71629918172277
    Total Energy =                       -344.7162991817224906
  Basis Set: CC-PVTZ
  Basis Set:
  Basis Set: CC-PVTZ
  Basis Set:
  @DF-RHF Final Energy:  -344.71630051989268
    Total Energy =                       -344.7163005198925703
  Basis Set: CC-PVTZ
  Basis Set:
  Charge       = 0
  Multiplicity = 1
  Basis Set: CC-PVTZ
  Basis Set:

    Orbital Energies (a.u.)
    -----------------------

    Doubly Occupied:

       1A    -20.569040     2A    -11.286483     3A    -11.240296
       4A    -11.231164     5A    -11.220691     6A    -11.219609
       7A    -11.219030     8A    -11.218406     9A     -1.395794
      10A     -1.155004    11A     -1.046828    12A     -1.007482
      13A     -0.939121    14A     -0.830614    15A     -0.811917
      16A     -0.720231    17A     -0.679796    18A     -0.659755
      19A     -0.622408    20A     -0.593228    21A     -0.577842
      22A     -0.570624    23A     -0.552683    24A     -0.514108
      25A     -0.506236    26A     -0.485148    27A     -0.466675
      28A     -0.333923    29A     -0.322732

  @DF-RHF Final Energy:  -344.71630149931036

   => Energetics <=

    Nuclear Repulsion Energy =            345.8160523281804899
    One-Electron Energy =               -1153.0709714054378310
    Two-Electron Energy =                 462.5386175779469795
    DFT Exchange-Correlation Energy =       0.0000000000000000
    Empirical Dispersion Energy =           0.0000000000000000
    PCM Polarization Energy =               0.0000000000000000
    EFP Energy =                            0.0000000000000000
    Total Energy =                       -344.7163014993103616
    Molecular point group: c1
  Basis Set: CC-PVTZ
  Basis Set:

  -Total Gradient:
     Atom            X                  Y                   Z
    ------   -----------------  -----------------  -----------------
       1       -0.000033250813    -0.000038997449    -0.000812818682
       2       -0.000235151369     0.000231577102     0.000941477976
       3        0.000651404005    -0.000676790243     0.000008974379
       4        0.000041526059     0.000084835113     0.000045359717
       5       -0.000472088003     0.000418453691    -0.000184402146
       6       -0.000008858932    -0.000009864412    -0.000000385509
       7       -0.000098641761    -0.000077361716     0.000019865702
       8        0.000028014192     0.000016129064     0.000040425715
       9        0.000064208325     0.000085823910     0.000052260528
      10        0.000006772231     0.000005201923    -0.000000086539
      11        0.000050418997    -0.000045192895    -0.000086416695
      12       -0.000002992805    -0.000014317330     0.000004417871
      13       -0.000009894067     0.000000010342    -0.000006611979
      14       -0.000009589144     0.000030307679    -0.000007938641
      15       -0.000001635524    -0.000017340973    -0.000021569106
      16        0.000029758609     0.000007526191     0.000007447403

  **** Optimization is complete! (in 6 steps) ****
    Final optimized geometry and variables:
    Molecular point group: c1

    Geometry (in Angstrom), charge = 0, multiplicity = 1:

    H           -2.841692050039    -0.961832446334     0.443852472185
    O           -2.043002132224    -1.459348389065     0.440762313637
    C           -0.960037277646    -0.625149814195     0.391899153969
    C           -0.487963707007    -0.029484347755     1.542513938845
    C           -0.325139906321    -0.415440075982    -0.818123087117
    H           -0.983008796281    -0.211477946323     2.476592403660
    C            0.625920159113     0.786169722503     1.466926512302
    H           -0.714438702701    -0.900913065716    -1.692497825822
    C            0.794517227208     0.394858808994    -0.897792003500
    H            0.999710900942     1.256348812288     2.356736834821
    C            1.261804062317     0.999065506284     0.261163944670
    C            1.505874914945     0.601872688671    -2.211537325560
    H            2.126391474851     1.634851117236     0.219660695181
    H            1.792150987432     1.638318841203    -2.341075168278
    H            0.879974682417     0.318051941020    -3.046974192467
    H            2.410138684214     0.004360118410    -2.256812227973

  Mulliken Charges: (a.u.)
   Center  Symbol    Alpha    Beta     Spin     Total
       1     H     0.38858  0.38858  0.00000  0.22284
       2     O     4.19237  4.19237  0.00000 -0.38474
       3     C     2.85691  2.85691  0.00000  0.28618
       4     C     3.12693  3.12693  0.00000 -0.25386
       5     C     3.14151  3.14151  0.00000 -0.28301
       6     H     0.41842  0.41842  0.00000  0.16317
       7     C     3.06102  3.06102  0.00000 -0.12205
       8     H     0.41977  0.41977  0.00000  0.16047
       9     C     2.94584  2.94584  0.00000  0.10832
      10     H     0.42227  0.42227  0.00000  0.15546
      11     C     3.10762  3.10762  0.00000 -0.21525
      12     C     3.14598  3.14598  0.00000 -0.29196
      13     H     0.42695  0.42695  0.00000  0.14611
      14     H     0.44856  0.44856  0.00000  0.10288
      15     H     0.45081  0.45081  0.00000  0.09839
      16     H     0.44648  0.44648  0.00000  0.10704

   Total alpha = 29.00000, Total beta = 29.00000, Total charge = -0.00000

*** Psi4 exiting successfully. Buy a developer a beer!
