                              Psi4 1.0.54 Driver

  ==> Input File <==

--------------------------------------------------------------------------
set {
	reference rhf
	basis cc-pvtz
}

set_num_threads( 4 )
memory 2 gb

molecule MOL {
0 1

H	 -3.258660	 -0.290394	 1.471450
C	 -3.307964	 -0.275695	 0.374072
C	 -2.653809	 0.914422	 -0.273689
O	 -3.855140	 -1.148880	 -0.205112
C	 -1.216901	 1.136108	 0.207794
H	 -2.700131	 0.790676	 -1.347875
H	 -3.256452	 1.781007	 -0.010713
C	 -0.247837	 0.040196	 -0.230469
H	 -0.872882	 2.093195	 -0.169002
H	 -1.209325	 1.218376	 1.291938
C	 1.181757	 0.280428	 0.247371
H	 -0.259600	 -0.030819	 -1.314870
H	 -0.591284	 -0.923375	 0.136958
C	 2.151032	 -0.811012	 -0.202643
H	 1.515939	 1.247397	 -0.115449
H	 1.191514	 0.341223	 1.333422
C	 3.580021	 -0.656538	 0.320835
H	 2.170545	 -0.847575	 -1.289412
H	 1.766632	 -1.772905	 0.124928
C	 3.683439	 -0.119556	 1.746331
H	 4.116498	 0.014473	 -0.342737
H	 4.090091	 -1.614272	 0.258542
H	 3.176030	 0.835263	 1.840418
H	 3.247052	 -0.798512	 2.469013
H	 4.719966	 0.029736	 2.026133

	symmetry c1
}
set optking {
	frozen_dihedral = ("
		20 17 14 18
	")
}

ee,wfn = optimize('scf', return_wfn=True)
oeprop( wfn, 'DIPOLE', 'QUADRUPOLE', 'MULLIKEN_CHARGES')
f=open( 'psi4out.xyz', 'w' )
f.write( "25  " )
f.write( str(ee) + "\n" )
f.write( MOL.save_string_xyz() )
f.close()
--------------------------------------------------------------------------

    Molecular point group: c1
  Charge       = 0
  Multiplicity = 1
  Basis Set: CC-PVTZ
  Basis Set:
  @DF-RHF Final Energy:  -387.25607278329937
    Total Energy =                       -387.2560727832993734
    Molecular point group: c1
  Basis Set: CC-PVTZ
  Basis Set:
  Basis Set: CC-PVTZ
  Basis Set:
  @DF-RHF Final Energy:  -387.25700110668089
    Total Energy =                       -387.2570011066816278
  Basis Set: CC-PVTZ
  Basis Set:
  Basis Set: CC-PVTZ
  Basis Set:
  @DF-RHF Final Energy:  -387.25770111433292
    Total Energy =                       -387.2577011143324626
  Basis Set: CC-PVTZ
  Basis Set:
  Basis Set: CC-PVTZ
  Basis Set:
  @DF-RHF Final Energy:  -387.25773802948885
    Total Energy =                       -387.2577380294887917
  Basis Set: CC-PVTZ
  Basis Set:
  Basis Set: CC-PVTZ
  Basis Set:
  @DF-RHF Final Energy:  -387.25773184415499
    Total Energy =                       -387.2577318441551597
  Basis Set: CC-PVTZ
  Basis Set:
  Basis Set: CC-PVTZ
  Basis Set:
  @DF-RHF Final Energy:  -387.25774637403850
    Total Energy =                       -387.2577463740378789
  Basis Set: CC-PVTZ
  Basis Set:
  Basis Set: CC-PVTZ
  Basis Set:
  @DF-RHF Final Energy:  -387.25774744518696
    Total Energy =                       -387.2577474451868511
  Basis Set: CC-PVTZ
  Basis Set:
  Charge       = 0
  Multiplicity = 1
  Basis Set: CC-PVTZ
  Basis Set:

    Orbital Energies (a.u.)
    -----------------------

    Doubly Occupied:

       1A    -20.551329     2A    -11.320934     3A    -11.233739
       4A    -11.232754     5A    -11.221548     6A    -11.217514
       7A    -11.216484     8A    -11.215292     9A    -11.208941
      10A     -1.406340    11A     -1.105187    12A     -1.070166
      13A     -1.013807    14A     -0.943210    15A     -0.878192
      16A     -0.822539    17A     -0.788573    18A     -0.776763
      19A     -0.667652    20A     -0.665301    21A     -0.637837
      22A     -0.623609    23A     -0.610256    24A     -0.589671
      25A     -0.569326    26A     -0.562790    27A     -0.528691
      28A     -0.526914    29A     -0.516234    30A     -0.497809
      31A     -0.490965    32A     -0.480167    33A     -0.460838
      34A     -0.458024    35A     -0.443357    36A     -0.411827

  @DF-RHF Final Energy:  -387.25774773292267

   => Energetics <=

    Nuclear Repulsion Energy =            440.9215940283846749
    One-Electron Energy =               -1398.4295225053317608
    Two-Electron Energy =                 570.2501807440243056
    DFT Exchange-Correlation Energy =       0.0000000000000000
    Empirical Dispersion Energy =           0.0000000000000000
    PCM Polarization Energy =               0.0000000000000000
    EFP Energy =                            0.0000000000000000
    Total Energy =                       -387.2577477329227804
    Molecular point group: c1
  Basis Set: CC-PVTZ
  Basis Set:

  -Total Gradient:
     Atom            X                  Y                   Z
    ------   -----------------  -----------------  -----------------
       1        0.000001089258     0.000000664153     0.000001479288
       2       -0.000001786073     0.000012306607     0.000017014468
       3       -0.000002696802    -0.000000588958    -0.000008088919
       4       -0.000004073373    -0.000009573971    -0.000008959735
       5       -0.000001918664    -0.000011859001     0.000030051581
       6        0.000002515997    -0.000006812242    -0.000005036959
       7        0.000008478751     0.000009654793    -0.000003509822
       8        0.000010052851     0.000002392081    -0.000021178721
       9       -0.000006691198     0.000002694367    -0.000001431895
      10       -0.000002417080    -0.000000833661     0.000003129788
      11       -0.000007026192     0.000019576849    -0.000000683902
      12        0.000005030502    -0.000012413386    -0.000006019402
      13       -0.000001291805     0.000003651766     0.000001761020
      14        0.000684581932    -0.004928270039    -0.000155972132
      15       -0.000006089724     0.000007169853     0.000000259988
      16       -0.000001243164    -0.000004897462     0.000000671504
      17       -0.000169805597    -0.004160209421     0.002263779002
      18       -0.000539154774     0.005379389941    -0.000455980770
      19        0.000002097598    -0.000014957347    -0.000006567479
      20        0.000016492157     0.003726850955    -0.001649802227
      21        0.000003728495    -0.000004469235    -0.000012259890
      22       -0.000006757772    -0.000012208962     0.000005174217
      23        0.000000053895     0.000011981530     0.000001423246
      24       -0.000003027679    -0.000005508552     0.000010783953
      25        0.000019858461    -0.000003730658    -0.000000036198

  **** Optimization is complete! (in 8 steps) ****
    Final optimized geometry and variables:
    Molecular point group: c1

    Geometry (in Angstrom), charge = 0, multiplicity = 1:

    H           -3.315396630788    -0.088855119244     1.026809957176
    C           -3.275762446794    -0.078650414119    -0.071025131177
    C           -2.518038093870     1.076591555723    -0.667078892517
    O           -3.814162785264    -0.929516642004    -0.690266433064
    C           -1.117080106774     1.237994124280    -0.069841551501
    H           -2.481747974282     0.947325434892    -1.741017575904
    H           -3.100991464482     1.970823717817    -0.457694918348
    C           -0.164961304953     0.097670611067    -0.424051676311
    H           -0.701105643787     2.176500637568    -0.419993135376
    H           -1.194827722377     1.327094714778     1.010956050209
    C            1.231984967975     0.281879193863     0.162889260060
    H           -0.096951270326     0.015382606073    -1.505463756182
    H           -0.576813389650    -0.846684716654    -0.076939705040
    C            2.175127893582    -0.868519915475    -0.192677409532
    H            1.650080852531     1.218519628650    -0.199702221436
    H            1.151070206978     0.380417025677     1.240518490650
    C            3.633947724497    -0.682153722876     0.250836315149
    H            2.163346873378    -0.961102955160    -1.274592879764
    H            1.777028079452    -1.792059921026     0.217252669093
    C            3.838525686615    -0.070598313404     1.635100100376
    H            4.136286515085    -0.045368630046    -0.472574043018
    H            4.136737213393    -1.642224272754     0.201856807058
    H            3.468851156739     0.945716663249     1.683949060789
    H            3.334068254909    -0.644607641062     2.406410938794
    H            4.893364236973    -0.046698814255     1.883594265069

  Mulliken Charges: (a.u.)
   Center  Symbol    Alpha    Beta     Spin     Total
       1     H     0.46420  0.46420  0.00000  0.07160
       2     C     2.90467  2.90467  0.00000  0.19066
       3     C     3.08916  3.08916  0.00000 -0.17831
       4     O     4.16633  4.16633  0.00000 -0.33266
       5     C     3.11586  3.11586  0.00000 -0.23171
       6     H     0.44294  0.44294  0.00000  0.11412
       7     H     0.44049  0.44049  0.00000  0.11901
       8     C     3.09162  3.09162  0.00000 -0.18325
       9     H     0.44327  0.44327  0.00000  0.11345
      10     H     0.44993  0.44993  0.00000  0.10014
      11     C     3.09346  3.09346  0.00000 -0.18692
      12     H     0.44947  0.44947  0.00000  0.10105
      13     H     0.44847  0.44847  0.00000  0.10306
      14     C     3.09565  3.09565  0.00000 -0.19129
      15     H     0.45282  0.45282  0.00000  0.09436
      16     H     0.45067  0.45067  0.00000  0.09867
      17     C     3.08938  3.08938  0.00000 -0.17876
      18     H     0.45072  0.45072  0.00000  0.09857
      19     H     0.45047  0.45047  0.00000  0.09905
      20     C     3.15699  3.15699  0.00000 -0.31399
      21     H     0.45423  0.45423  0.00000  0.09154
      22     H     0.44817  0.44817  0.00000  0.10365
      23     H     0.45230  0.45230  0.00000  0.09539
      24     H     0.45407  0.45407  0.00000  0.09186
      25     H     0.44465  0.44465  0.00000  0.11069

   Total alpha = 36.00000, Total beta = 36.00000, Total charge =  0.00000

*** Psi4 exiting successfully. Buy a developer a beer!
