  ==> Input File <==

--------------------------------------------------------------------------
set {
	reference rhf
	basis 6-31G*
}

set_num_threads( 4 )
memory 2 gb

molecule MOL {
0 1

H	 3.113390	 4.276226	 3.118651
C	 2.743629	 3.483506	 2.492827
C	 1.578989	 3.665557	 1.762335
C	 3.432943	 2.283353	 2.419259
H	 1.045361	 4.596820	 1.820292
C	 1.104172	 2.645816	 0.957872
H	 4.335568	 2.144055	 2.986243
C	 2.959518	 1.261180	 1.614645
H	 0.204708	 2.768977	 0.385625
C	 1.792568	 1.440509	 0.881275
H	 3.489727	 0.330800	 1.554706
C	 1.239129	 0.373821	 0.000060
O	 1.970282	 -0.730723	 0.000018
O	 0.242971	 0.491567	 -0.642329
C	 3.377318	 -0.566646	 -0.000065
H	 3.695437	 -0.028981	 -0.881264
H	 3.789299	 -1.563704	 0.000236
H	 3.695516	 -0.028316	 0.880770

	symmetry c1
}
set optking {
	frozen_dihedral = ("
		10 12 13 15
	")
}

ee = optimize('scf')
oeprop('DIPOLE', 'QUADRUPOLE', 'MULLIKEN_CHARGES')
f=open( 'psi4out.xyz', 'w' )
f.write( "18  " )
f.write( str(ee) + "\n" )
f.write( MOL.save_string_xyz() )
f.close()
--------------------------------------------------------------------------

    Molecular point group: c1
  Charge       = 0
  Multiplicity = 1
  Basis Set: 6-31G*
  Basis Set:
  @DF-RHF Final Energy:  -457.19085345644606
    Total Energy =                       -457.1908534564458932
    Molecular point group: c1
  Basis Set: 6-31G*
  Basis Set:
  Basis Set: 6-31G*
  Basis Set:
  @DF-RHF Final Energy:  -457.25817211439266
    Total Energy =                       -457.2581721143926643
  Basis Set: 6-31G*
  Basis Set:
  Basis Set: 6-31G*
  Basis Set:
  @DF-RHF Final Energy:  -457.28915228813895
    Total Energy =                       -457.2891522881391211
  Basis Set: 6-31G*
  Basis Set:
  Basis Set: 6-31G*
  Basis Set:
  @DF-RHF Final Energy:  -457.30794986201693
    Total Energy =                       -457.3079498620166987
  Basis Set: 6-31G*
  Basis Set:
  @DF-RHF Final Energy:  -457.31729518513163
    Total Energy =                       -457.3172951851317976
  @DF-RHF Final Energy:  -457.32319624511968
    Total Energy =                       -457.3231962451197887
  @DF-RHF Final Energy:  -457.32576234973192
    Total Energy =                       -457.3257623497320310
  @DF-RHF Final Energy:  -457.32764350793775
    Total Energy =                       -457.3276435079377507
  @DF-RHF Final Energy:  -457.32837924716245
    Total Energy =                       -457.3283792471623883
  @DF-RHF Final Energy:  -457.32857650125476
    Total Energy =                       -457.3285765012548154
  @DF-RHF Final Energy:  -457.32873155076277
    Total Energy =                       -457.3287315507629955
  @DF-RHF Final Energy:  -457.32874854364769
    Total Energy =                       -457.3287485436476345
  @DF-RHF Final Energy:  -457.32875535305175
    Total Energy =                       -457.3287553530517471
  @DF-RHF Final Energy:  -457.32876068350026
    Total Energy =                       -457.3287606835001498
  @DF-RHF Final Energy:  -457.32877319455832
    Total Energy =                       -457.3287731945586074
  @DF-RHF Final Energy:  -457.32878290944558
    Total Energy =                       -457.3287829094451808
  @DF-RHF Final Energy:  -457.32879769844220
    Total Energy =                       -457.3287976984429406
  @DF-RHF Final Energy:  -457.32881807670799
    Total Energy =                       -457.3288180767079893
  @DF-RHF Final Energy:  -457.32883232159134
    Total Energy =                       -457.3288323215913351
  Basis Set: 6-31G*
  Basis Set:
  @DF-RHF Final Energy:  -457.32884028979828
    Total Energy =                       -457.3288402897987908
  Basis Set: 6-31G*
  Basis Set:
  Basis Set: 6-31G*
  Basis Set:
  @DF-RHF Final Energy:  -457.32884598287399
    Total Energy =                       -457.3288459828745545
  Basis Set: 6-31G*
  Basis Set:
  Basis Set: 6-31G*
  Basis Set:
  @DF-RHF Final Energy:  -457.32884787745252
    Total Energy =                       -457.3288478774525174
  Basis Set: 6-31G*
  Basis Set:
  Charge       = 0
  Multiplicity = 1
  Basis Set: 6-31G*
  Basis Set:

    Orbital Energies (a.u.)
    -----------------------

    Doubly Occupied:

       1A    -20.598659     2A    -20.545347     3A    -11.379521
       4A    -11.293730     5A    -11.255035     6A    -11.253767
       7A    -11.250836     8A    -11.249024     9A    -11.246584
      10A    -11.244614    11A     -1.462252    12A     -1.366546
      13A     -1.172683    14A     -1.047240    15A     -1.032921
      16A     -0.983712    17A     -0.875714    18A     -0.844810
      19A     -0.783841    20A     -0.737306    21A     -0.688663
      22A     -0.675905    23A     -0.672091    24A     -0.639900
      25A     -0.628475    26A     -0.606101    27A     -0.599378
      28A     -0.565125    29A     -0.537438    30A     -0.516789
      31A     -0.511231    32A     -0.498240    33A     -0.453814
      34A     -0.440797    35A     -0.351343    36A     -0.348522

  @DF-RHF Final Energy:  -457.32884816465810

   => Energetics <=

    Nuclear Repulsion Energy =            497.9729765289134775
    One-Electron Energy =               -1609.8877468397336088
    Two-Electron Energy =                 654.5859221461624884
    DFT Exchange-Correlation Energy =       0.0000000000000000
    Empirical Dispersion Energy =           0.0000000000000000
    PCM Polarization Energy =               0.0000000000000000
    EFP Energy =                            0.0000000000000000
    Total Energy =                       -457.3288481646576429
    Molecular point group: c1
  Basis Set: 6-31G*
  Basis Set:

  -Total Gradient:
     Atom            X                  Y                   Z
    ------   -----------------  -----------------  -----------------
       1        0.000000698423     0.000000017102     0.000000015487
       2       -0.000015634541     0.000022268626    -0.000015269685
       3        0.000015528710     0.000011974355     0.000019596233
       4        0.000015091650    -0.000005940489     0.000025341663
       5       -0.000000522777    -0.000000543988     0.000001794838
       6        0.000010305803    -0.000044970434    -0.000003801576
       7        0.000001664092     0.000004943858    -0.000001668942
       8       -0.000008710807    -0.000012394295     0.000009896502
       9       -0.000001767006    -0.000000707183     0.000001589802
      10        0.000062188394     0.000150121932    -0.000214957584
      11       -0.000014620316     0.000008516912    -0.000021722546
      12       -0.000017450995    -0.000186454719     0.000449617543
      13       -0.000081742448     0.000075458293    -0.000508862071
      14       -0.000014325878    -0.000009766745     0.000005396928
      15        0.000050807444    -0.000029682431     0.000213943351
      16       -0.000000220341     0.000015238559    -0.000005517683
      17       -0.000003707467     0.000006116250    -0.000000484924
      18        0.000002418065    -0.000004195605     0.000045092666

  **** Optimization is complete! (in 23 steps) ****
    Final optimized geometry and variables:
    Molecular point group: c1

    Geometry (in Angstrom), charge = 0, multiplicity = 1:

    H            1.008094172128     3.193372402188     1.966453112797
    C            0.663870344999     2.324168704732     1.435230433288
    C           -0.338630087516     2.445214076093     0.484851863088
    C            1.216092813799     1.083180776160     1.708768434346
    H           -0.772971801805     3.406501683988     0.278406145519
    C           -0.789742538843     1.325265892359    -0.190184787584
    H            1.980294791015     0.985248720262     2.458357630295
    C            0.780356954706    -0.034732647446     1.017654027298
    H           -1.583040099854     1.401618055065    -0.909564204695
    C           -0.220298651382     0.082613542016     0.060996955093
    H            1.199869150880    -0.997422928338     1.243339552049
    C           -0.777312135130    -1.110320735302    -0.654734373015
    O            0.053956634574    -2.115850450825    -0.948658686553
    O           -1.926919611963    -1.197420393334    -0.926080498155
    C            1.376323299854    -1.900601848106    -1.401739864324
    H            1.527962219230    -0.883369791381    -1.734086881226
    H            1.530152806904    -2.574651714450    -2.231441607900
    H            2.085019089823    -2.132039551608    -0.618824726627

  Mulliken Charges: (a.u.)
   Center  Symbol    Alpha    Beta     Spin     Total
       1     H     0.39412  0.39412  0.00000  0.21176
       2     C     3.09271  3.09271  0.00000 -0.18541
       3     C     3.10426  3.10426  0.00000 -0.20851
       4     C     3.10387  3.10387  0.00000 -0.20774
       5     H     0.39360  0.39360  0.00000  0.21279
       6     C     3.08862  3.08862  0.00000 -0.17724
       7     H     0.39476  0.39476  0.00000  0.21048
       8     C     3.09704  3.09704  0.00000 -0.19407
       9     H     0.37873  0.37873  0.00000  0.24253
      10     C     3.07087  3.07087  0.00000 -0.14174
      11     H     0.38804  0.38804  0.00000  0.22392
      12     C     2.60234  2.60234  0.00000  0.79532
      13     O     4.30942  4.30942  0.00000 -0.61885
      14     O     4.26058  4.26058  0.00000 -0.52115
      15     C     3.09217  3.09217  0.00000 -0.18434
      16     H     0.41147  0.41147  0.00000  0.17706
      17     H     0.40180  0.40180  0.00000  0.19640
      18     H     0.41561  0.41561  0.00000  0.16878

   Total alpha = 36.00000, Total beta = 36.00000, Total charge =  0.00000
