  ==> Input File <==

--------------------------------------------------------------------------
set {
	reference rhf
	basis 6-31G*
}

set_num_threads( 4 )
memory 2 gb

molecule MOL {
0 1

H	 0.162380	 -3.071547	 4.309614
C	 0.507555	 -2.556172	 3.431938
C	 -0.054452	 -2.825695	 2.188664
C	 1.514580	 -1.617304	 3.520702
H	 -0.840500	 -3.554520	 2.100515
C	 0.385561	 -2.166844	 1.061055
H	 1.961035	 -1.395870	 4.473976
C	 1.969989	 -0.943647	 2.392320
H	 -0.039713	 -2.365376	 0.094845
C	 1.402947	 -1.219894	 1.158128
H	 2.754495	 -0.219141	 2.493854
O	 1.765256	 -0.628444	 0.000000
C	 2.778419	 0.335181	 0.000000
H	 2.731280	 0.961222	 -0.884976
H	 3.711703	 -0.207767	 0.000000
H	 2.731280	 0.961222	 0.884976

	symmetry c1
}
set optking {
	frozen_dihedral = ("
		10 12 13 14
	")
}

ee = optimize('scf')
oeprop('DIPOLE', 'QUADRUPOLE', 'MULLIKEN_CHARGES')
f=open( 'psi4out.xyz', 'w' )
f.write( "16  " )
f.write( str(ee) + "\n" )
f.write( MOL.save_string_xyz() )
f.close()
--------------------------------------------------------------------------

    Molecular point group: c1
  Charge       = 0
  Multiplicity = 1
  Basis Set: 6-31G*
  Basis Set:
  @DF-RHF Final Energy:  -344.57883487606017
    Total Energy =                       -344.5788348760602844
    Molecular point group: c1
  Basis Set: 6-31G*
  Basis Set:
  Basis Set: 6-31G*
  Basis Set:
  @DF-RHF Final Energy:  -344.58069219946287
    Total Energy =                       -344.5806921994627601
  Basis Set: 6-31G*
  Basis Set:
  Basis Set: 6-31G*
  Basis Set:
  @DF-RHF Final Energy:  -344.58182234095648
    Total Energy =                       -344.5818223409562506
  Basis Set: 6-31G*
  Basis Set:
  Basis Set: 6-31G*
  Basis Set:
  @DF-RHF Final Energy:  -344.58190089844362
    Total Energy =                       -344.5819008984435641
  Basis Set: 6-31G*
  Basis Set:
  Basis Set: 6-31G*
  Basis Set:
  @DF-RHF Final Energy:  -344.58191191257208
    Total Energy =                       -344.5819119125720249
  Basis Set: 6-31G*
  Basis Set:
  Basis Set: 6-31G*
  Basis Set:
  @DF-RHF Final Energy:  -344.58191317753926
    Total Energy =                       -344.5819131775394339
  Basis Set: 6-31G*
  Basis Set:
  Charge       = 0
  Multiplicity = 1
  Basis Set: 6-31G*
  Basis Set:

    Orbital Energies (a.u.)
    -----------------------

    Doubly Occupied:

       1A    -20.583613     2A    -11.293563     3A    -11.279609
       4A    -11.232903     5A    -11.231369     6A    -11.223878
       7A    -11.219574     8A    -11.219301     9A     -1.412591
      10A     -1.145780    11A     -1.021306    12A     -1.012729
      13A     -0.941055    14A     -0.830617    15A     -0.804641
      16A     -0.720804    17A     -0.663763    18A     -0.661818
      19A     -0.654752    20A     -0.616179    21A     -0.587161
      22A     -0.576949    23A     -0.523877    24A     -0.519067
      25A     -0.508318    26A     -0.476849    27A     -0.459454
      28A     -0.334525    29A     -0.305527

  @DF-RHF Final Energy:  -344.58191349045819

   => Energetics <=

    Nuclear Repulsion Energy =            348.0399751661756227
    One-Electron Energy =               -1157.1206375593296798
    Two-Electron Energy =                 464.4987489026958656
    DFT Exchange-Correlation Energy =       0.0000000000000000
    Empirical Dispersion Energy =           0.0000000000000000
    PCM Polarization Energy =               0.0000000000000000
    EFP Energy =                            0.0000000000000000
    Total Energy =                       -344.5819134904581915
    Molecular point group: c1
  Basis Set: 6-31G*
  Basis Set:

  -Total Gradient:
     Atom            X                  Y                   Z
    ------   -----------------  -----------------  -----------------
       1       -0.000005021236    -0.000011058577    -0.000005079454
       2        0.000048981244     0.000043312204     0.000039906066
       3       -0.000015305662     0.000012247745    -0.000078600912
       4       -0.000046562746    -0.000042391685     0.000026311451
       5       -0.000000041732    -0.000001335806     0.000008262572
       6       -0.000034554127    -0.000054383565     0.000036052360
       7        0.000005714152     0.000004107371    -0.000007201878
       8       -0.000011152213    -0.000001045716    -0.000081991884
       9        0.000001031672     0.000003342147    -0.000003450579
      10       -0.001663325402     0.001327294142     0.000042324162
      11        0.000007133828     0.000005170419     0.000002197695
      12        0.002140613226    -0.001633925827     0.000234170945
      13        0.001371051348    -0.000998981462    -0.000984245555
      14       -0.001808373179     0.001381749847     0.000780843080
      15        0.000001857590    -0.000015965693    -0.000003666751
      16        0.000007953239    -0.000018135547    -0.000005831312

  **** Optimization is complete! (in 7 steps) ****
    Final optimized geometry and variables:
    Molecular point group: c1

    Geometry (in Angstrom), charge = 0, multiplicity = 1:

    H           -1.272671484516    -1.579651244392     2.665980989848
    C           -0.884106896125    -1.103445330980     1.784273314679
    C           -1.454589173986    -1.350186032276     0.540496052455
    C            0.189482776494    -0.240240580658     1.868927665377
    H           -2.291181608079    -2.020994186831     0.456568214195
    C           -0.961259328765    -0.739014728082    -0.592605766019
    H            0.646967582878    -0.042147306712     2.822097327845
    C            0.700745607507     0.380644897406     0.734856065520
    H           -1.393957514702    -0.918317287320    -1.559263280966
    C            0.119612496907     0.134021018191    -0.499008273547
    H            1.545497022784     1.036091255440     0.826969633169
    O            0.547009924321     0.672980354624    -1.661117427249
    C            1.389722414121     1.790700185474    -1.643196069529
    H            1.310175448992     2.250381656945    -2.617491659000
    H            2.420040381033     1.507602722638    -1.455203962897
    H            1.074500245976     2.511542067879    -0.897040193851

  Mulliken Charges: (a.u.)
   Center  Symbol    Alpha    Beta     Spin     Total
       1     H     0.40120  0.40120  0.00000  0.19761
       2     C     3.11182  3.11182  0.00000 -0.22365
       3     C     3.09211  3.09211  0.00000 -0.18422
       4     C     3.09127  3.09127  0.00000 -0.18254
       5     H     0.39878  0.39878  0.00000  0.20244
       6     C     3.12533  3.12533  0.00000 -0.25066
       7     H     0.39960  0.39960  0.00000  0.20079
       8     C     3.14293  3.14293  0.00000 -0.28586
       9     H     0.39301  0.39301  0.00000  0.21399
      10     C     2.78371  2.78371  0.00000  0.43258
      11     H     0.39742  0.39742  0.00000  0.20517
      12     O     4.32701  4.32701  0.00000 -0.65402
      13     C     3.09111  3.09111  0.00000 -0.18222
      14     H     0.40578  0.40578  0.00000  0.18843
      15     H     0.41925  0.41925  0.00000  0.16150
      16     H     0.41967  0.41967  0.00000  0.16065

   Total alpha = 29.00000, Total beta = 29.00000, Total charge = -0.00000
