                              Psi4 1.0.54 Driver

  ==> Input File <==

--------------------------------------------------------------------------
set {
	reference rhf
	basis cc-pvtz
}

set_num_threads( 4 )
memory 2 gb

molecule MOL {
0 1

H	 2.606349	 -0.692043	 1.216423
O	 1.867289	 -1.025801	 0.730490
C	 0.900123	 -0.113344	 0.755643
C	 -0.318151	 -0.570512	 0.000144
O	 1.024428	 0.920240	 1.316197
C	 -1.454884	 0.441630	 -0.000560
H	 0.001142	 -0.805108	 -1.010256
H	 -0.630552	 -1.513526	 0.437215
C	 -2.822577	 -0.232186	 0.000063
H	 -1.359760	 1.084704	 -0.867077
H	 -1.359641	 1.085996	 0.864983
H	 -2.954352	 -0.858985	 -0.875745
H	 -3.615886	 0.505352	 0.000019
H	 -2.953878	 -0.858359	 0.876394

	symmetry c1
}
set optking {
	frozen_dihedral = ("
		7 4 6 10
	")
}

ee,wfn = optimize('scf', return_wfn=True)
oeprop( wfn, 'DIPOLE', 'QUADRUPOLE', 'MULLIKEN_CHARGES')
f=open( 'psi4out.xyz', 'w' )
f.write( "14  " )
f.write( str(ee) + "\n" )
f.write( MOL.save_string_xyz() )
f.close()
--------------------------------------------------------------------------

    Molecular point group: c1
  Charge       = 0
  Multiplicity = 1
  Basis Set: CC-PVTZ
  Basis Set:
  @DF-RHF Final Energy:  -305.99798773311954
    Total Energy =                       -305.9979877331194302
    Molecular point group: c1
  Basis Set: CC-PVTZ
  Basis Set:
  Basis Set: CC-PVTZ
  Basis Set:
  @DF-RHF Final Energy:  -305.99826251985689
    Total Energy =                       -305.9982625198566097
  Basis Set: CC-PVTZ
  Basis Set:
  Basis Set: CC-PVTZ
  Basis Set:
  @DF-RHF Final Energy:  -305.99810538903677
    Total Energy =                       -305.9981053890368230
  Basis Set: CC-PVTZ
  Basis Set:
  Basis Set: CC-PVTZ
  Basis Set:
  @DF-RHF Final Energy:  -305.99832501350659
    Total Energy =                       -305.9983250135064168
  Basis Set: CC-PVTZ
  Basis Set:
  Charge       = 0
  Multiplicity = 1
  Basis Set: CC-PVTZ
  Basis Set:

    Orbital Energies (a.u.)
    -----------------------

    Doubly Occupied:

       1A    -20.604393     2A    -20.541308     3A    -11.374222
       4A    -11.240096     5A    -11.223070     6A    -11.214867
       7A     -1.478189     8A     -1.369629     9A     -1.082698
      10A     -0.980998    11A     -0.858938    12A     -0.792207
      13A     -0.704555    14A     -0.692774    15A     -0.667710
      16A     -0.617779    17A     -0.597474    18A     -0.572454
      19A     -0.550957    20A     -0.501950    21A     -0.491787
      22A     -0.484825    23A     -0.481761    24A     -0.448065

  @DF-RHF Final Energy:  -305.99832582783017

   => Energetics <=

    Nuclear Repulsion Energy =            240.4654283308080096
    One-Electron Energy =                -893.7820902788254216
    Two-Electron Energy =                 347.3183361201870412
    DFT Exchange-Correlation Energy =       0.0000000000000000
    Empirical Dispersion Energy =           0.0000000000000000
    PCM Polarization Energy =               0.0000000000000000
    EFP Energy =                            0.0000000000000000
    Total Energy =                       -305.9983258278303992
    Molecular point group: c1
  Basis Set: CC-PVTZ
  Basis Set:

  -Total Gradient:
     Atom            X                  Y                   Z
    ------   -----------------  -----------------  -----------------
       1        0.000036158909    -0.000019798156     0.000008417671
       2        0.000028127978     0.000038044010     0.000014092921
       3       -0.000091646452    -0.000164179925    -0.000054207058
       4       -0.003622655886    -0.003994143451    -0.000599042088
       5        0.000013976172     0.000091220610     0.000029686951
       6        0.003198916553     0.003567025353     0.002446598671
       7        0.002502870307     0.002806075102     0.000110241893
       8        0.000000051483     0.000010960245    -0.000005011462
       9        0.000015672680     0.000030449261     0.000018750315
      10       -0.002071591190    -0.002366341449    -0.001974971207
      11        0.000005061664    -0.000002104554     0.000005821681
      12        0.000004303539     0.000011599801     0.000015884871
      13       -0.000018824430    -0.000010519476    -0.000001294942
      14       -0.000000421324     0.000001712631    -0.000014968216

  **** Optimization is complete! (in 5 steps) ****
    Final optimized geometry and variables:
    Molecular point group: c1

    Geometry (in Angstrom), charge = 0, multiplicity = 1:

    H            2.723952000883    -0.576461664218     0.686595007004
    O            1.971025124062    -0.913924066167     0.225141293982
    C            1.004451291966    -0.001224444507     0.272440058497
    C           -0.234063893426    -0.471750603617    -0.446601598387
    O            1.147923014193     1.036260382893     0.821061888755
    C           -1.376655619074     0.544274102833    -0.450166392606
    H            0.088275491579    -0.710385157441    -1.454191748495
    H           -0.527060280033    -1.408106672664     0.014897373437
    C           -2.745418826555    -0.130158056739    -0.502069935354
    H           -1.279988430485     1.185132554729    -1.318952212318
    H           -1.306052430110     1.174800919578     0.424207803622
    H           -2.840737638229    -0.766822052043    -1.375708380844
    H           -3.537932970622     0.607340404457    -0.544152926265
    H           -2.912462590943    -0.746240402465     0.375127805048

  Mulliken Charges: (a.u.)
   Center  Symbol    Alpha    Beta     Spin     Total
       1     H     0.38233  0.38233  0.00000  0.23533
       2     O     4.16065  4.16065  0.00000 -0.32131
       3     C     2.80294  2.80294  0.00000  0.39411
       4     C     3.10885  3.10885  0.00000 -0.21770
       5     O     4.19049  4.19049  0.00000 -0.38099
       6     C     3.08409  3.08409  0.00000 -0.16818
       7     H     0.43609  0.43609  0.00000  0.12782
       8     H     0.43863  0.43863  0.00000  0.12275
       9     C     3.14942  3.14942  0.00000 -0.29884
      10     H     0.45171  0.45171  0.00000  0.09657
      11     H     0.43785  0.43785  0.00000  0.12429
      12     H     0.45531  0.45531  0.00000  0.08937
      13     H     0.44645  0.44645  0.00000  0.10709
      14     H     0.45516  0.45516  0.00000  0.08968

   Total alpha = 24.00000, Total beta = 24.00000, Total charge =  0.00000

*** Psi4 exiting successfully. Buy a developer a beer!
