  ==> Input File <==

--------------------------------------------------------------------------
set {
	reference rhf
	basis 6-31G*
}

set_num_threads( 4 )
memory 2 gb

molecule MOL {
0 1

H	 1.606615	 -0.302170	 -1.719322
O	 0.789192	 -0.375654	 -1.248220
C	 0.702312	 0.627605	 -0.264544
C	 -0.714990	 0.596302	 0.266387
H	 0.907532	 1.604932	 -0.692997
H	 1.410322	 0.446023	 0.541232
O	 -1.405996	 -0.526611	 -0.195820
H	 -1.257453	 1.468809	 -0.075599
H	 -0.688972	 0.618407	 1.353696
H	 -0.890587	 -1.292708	 0.022039

	symmetry c1
}
set optking {
	frozen_dihedral = ("
		5 3 4 7
	")
}

ee = optimize('scf')
oeprop('DIPOLE', 'QUADRUPOLE', 'MULLIKEN_CHARGES')
f=open( 'psi4out.xyz', 'w' )
f.write( "10  " )
f.write( str(ee) + "\n" )
f.write( MOL.save_string_xyz() )
f.close()
--------------------------------------------------------------------------

    Molecular point group: c1
  Charge       = 0
  Multiplicity = 1
  Basis Set: 6-31G*
  Basis Set:
  @DF-RHF Final Energy:  -228.90897811928033
    Total Energy =                       -228.9089781192802207
    Molecular point group: c1
  Basis Set: 6-31G*
  Basis Set:
  Basis Set: 6-31G*
  Basis Set:
  @DF-RHF Final Energy:  -228.91007283745878
    Total Energy =                       -228.9100728374586993
  Basis Set: 6-31G*
  Basis Set:
  Basis Set: 6-31G*
  Basis Set:
  @DF-RHF Final Energy:  -228.91254700595019
    Total Energy =                       -228.9125470059500458
  Basis Set: 6-31G*
  Basis Set:
  Basis Set: 6-31G*
  Basis Set:
  @DF-RHF Final Energy:  -228.91360488126250
    Total Energy =                       -228.9136048812625859
  Basis Set: 6-31G*
  Basis Set:
  @DF-RHF Final Energy:  -228.91472750101426
    Total Energy =                       -228.9147275010143403
  @DF-RHF Final Energy:  -228.91524807751793
    Total Energy =                       -228.9152480775179299
  @DF-RHF Final Energy:  -228.91535348196490
    Total Energy =                       -228.9153534819648996
  Basis Set: 6-31G*
  Basis Set:
  @DF-RHF Final Energy:  -228.91538923746108
    Total Energy =                       -228.9153892374610564
  Basis Set: 6-31G*
  Basis Set:
  Basis Set: 6-31G*
  Basis Set:
  @DF-RHF Final Energy:  -228.91540868252588
    Total Energy =                       -228.9154086825258787
  Basis Set: 6-31G*
  Basis Set:
  Basis Set: 6-31G*
  Basis Set:
  @DF-RHF Final Energy:  -228.91540998684113
    Total Energy =                       -228.9154099868412686
  Basis Set: 6-31G*
  Basis Set:
  Charge       = 0
  Multiplicity = 1
  Basis Set: 6-31G*
  Basis Set:

    Orbital Energies (a.u.)
    -----------------------

    Doubly Occupied:

       1A    -20.576235     2A    -20.538013     3A    -11.283960
       4A    -11.268634     5A     -1.388901     6A     -1.342716
       7A     -0.997318     8A     -0.847107     9A     -0.727991
      10A     -0.678583    11A     -0.660590    12A     -0.588105
      13A     -0.576917    14A     -0.539976    15A     -0.480201
      16A     -0.466247    17A     -0.416581

  @DF-RHF Final Energy:  -228.91541023801395

   => Energetics <=

    Nuclear Repulsion Energy =            134.9556640207086673
    One-Electron Energy =                -580.9859970098865460
    Two-Electron Energy =                 217.1149227511639026
    DFT Exchange-Correlation Energy =       0.0000000000000000
    Empirical Dispersion Energy =           0.0000000000000000
    PCM Polarization Energy =               0.0000000000000000
    EFP Energy =                            0.0000000000000000
    Total Energy =                       -228.9154102380139477
    Molecular point group: c1
  Basis Set: 6-31G*
  Basis Set:

  -Total Gradient:
     Atom            X                  Y                   Z
    ------   -----------------  -----------------  -----------------
       1       -0.000018263018     0.000002915637     0.000009154034
       2        0.000026672697    -0.000016503356    -0.000027487149
       3        0.001513499534     0.003346103170     0.003730381770
       4        0.001644192406    -0.002552591377     0.003515768911
       5       -0.001658569982    -0.002272207639    -0.003970176138
       6       -0.000006127559     0.000008717495     0.000001797226
       7       -0.001528187154     0.001494089747    -0.003263497698
       8        0.000011132305    -0.000009223708     0.000004535465
       9        0.000004002476     0.000010234551     0.000012308557
      10        0.000011648290    -0.000011534517    -0.000012784976

  **** Optimization is complete! (in 11 steps) ****
    Final optimized geometry and variables:
    Molecular point group: c1

    Geometry (in Angstrom), charge = 0, multiplicity = 1:

    H            1.796524727546    -0.425943017903    -1.320727773998
    O            0.959564934964    -0.460463714340    -0.880802872493
    C            0.826609523285     0.634288367376    -0.004245943755
    C           -0.587543711858     0.578129867617     0.623818758292
    H            0.935532641022     1.552028689529    -0.573999381792
    H            1.596866769679     0.598875949233     0.759425452203
    O           -1.250918444745    -0.625092159970     0.388842201405
    H           -1.180526654767     1.399246340660     0.228957818587
    H           -0.518485731655     0.719734868166     1.695463608019
    H           -0.852435782363    -1.051439552945    -0.358494225560

  Mulliken Charges: (a.u.)
   Center  Symbol    Alpha    Beta     Spin     Total
       1     H     0.27393  0.27393  0.00000  0.45214
       2     O     4.38335  4.38335  0.00000 -0.76670
       3     C     3.01612  3.01612  0.00000 -0.03224
       4     C     2.99149  2.99149  0.00000  0.01702
       5     H     0.42395  0.42395  0.00000  0.15211
       6     H     0.42193  0.42193  0.00000  0.15614
       7     O     4.37990  4.37990  0.00000 -0.75980
       8     H     0.42756  0.42756  0.00000  0.14488
       9     H     0.42002  0.42002  0.00000  0.15995
      10     H     0.26175  0.26175  0.00000  0.47649

   Total alpha = 17.00000, Total beta = 17.00000, Total charge =  0.00000
