                              Psi4 1.0.54 Driver

  ==> Input File <==

--------------------------------------------------------------------------
set {
	reference rhf
	basis cc-pvtz
}

set_num_threads( 4 )
memory 2 gb

molecule MOL {
0 1

H	 -2.644180	 -0.653737	 1.272255
C	 -2.092774	 -0.380414	 0.391915
O	 -0.808934	 -0.154049	 0.752536
F	 -2.163230	 -1.351640	 -0.507133
F	 -2.627232	 0.691260	 -0.169301
C	 0.085006	 0.250800	 -0.215074
C	 1.378450	 0.645517	 0.493783
Cl	 -0.547965	 1.626837	 -1.137791
H	 0.314048	 -0.529942	 -0.919083
F	 2.278927	 1.028196	 -0.375540
F	 1.851182	 -0.398550	 1.132346
F	 1.195983	 1.605737	 1.358037

	symmetry c1
}
set optking {
	frozen_dihedral = ("
		9 6 3 2
	")
}

ee,wfn = optimize('scf', return_wfn=True)
oeprop( wfn, 'DIPOLE', 'QUADRUPOLE', 'MULLIKEN_CHARGES')
f=open( 'psi4out.xyz', 'w' )
f.write( "12  " )
f.write( str(ee) + "\n" )
f.write( MOL.save_string_xyz() )
f.close()
--------------------------------------------------------------------------

    Molecular point group: c1
  Charge       = 0
  Multiplicity = 1
  Basis Set: CC-PVTZ
  Basis Set:
  @DF-RHF Final Energy: -1146.60288297578859
    Total Energy =                      -1146.6028829757892709
    Molecular point group: c1
  Basis Set: CC-PVTZ
  Basis Set:
  Basis Set: CC-PVTZ
  Basis Set:
  @DF-RHF Final Energy: -1146.58224859742177
    Total Energy =                      -1146.5822485974222218
  Basis Set: CC-PVTZ
  Basis Set:
  Basis Set: CC-PVTZ
  Basis Set:
  @DF-RHF Final Energy: -1146.61280309194558
    Total Energy =                      -1146.6128030919462617
  Basis Set: CC-PVTZ
  Basis Set:
  Basis Set: CC-PVTZ
  Basis Set:
  @DF-RHF Final Energy: -1146.61472293295583
    Total Energy =                      -1146.6147229329558286
  Basis Set: CC-PVTZ
  Basis Set:
  @DF-RHF Final Energy: -1146.61532361449554
    Total Energy =                      -1146.6153236144957646
  @DF-RHF Final Energy: -1146.61594263135817
    Total Energy =                      -1146.6159426313570293
  @DF-RHF Final Energy: -1146.61605442045607
    Total Energy =                      -1146.6160544204553844
  @DF-RHF Final Energy: -1146.61606215860820
    Total Energy =                      -1146.6160621586088837
  @DF-RHF Final Energy: -1146.61606366663955
    Total Energy =                      -1146.6160636666404571
  @DF-RHF Final Energy: -1146.61606257243398
    Total Energy =                      -1146.6160625724339752
  @DF-RHF Final Energy: -1146.56756173955455
    Total Energy =                      -1146.5675617395540939
  @DF-RHF Final Energy: -1146.60346132254654
    Total Energy =                      -1146.6034613225469911
  @DF-RHF Final Energy: -1146.47602770404319
    Total Energy =                      -1146.4760277040425080
  @DF-RHF Final Energy: -1146.38886310538010
    Total Energy =                      -1146.3888631053805511
  @DF-RHF Final Energy: -1146.46701187769577
    Total Energy =                      -1146.4670118776953132
  @DF-RHF Final Energy: -1146.55112647979968
    Total Energy =                      -1146.5511264797996773
  @DF-RHF Final Energy: -1146.46213877127298
    Total Energy =                      -1146.4621387712732030
  @DF-RHF Final Energy: -1146.56044412432993
    Total Energy =                      -1146.5604441243299334
  @DF-RHF Final Energy: -1146.58423416436131
    Total Energy =                      -1146.5842341643606233
  @DF-RHF Final Energy: -1146.48853512221058
    Total Energy =                      -1146.4885351222101235
  @DF-RHF Final Energy: -1146.57761142616550
    Total Energy =                      -1146.5776114261661860
  @DF-RHF Final Energy: -1146.59398766874165
    Total Energy =                      -1146.5939876687416472
  @DF-RHF Final Energy: -1146.60501253550296
    Total Energy =                      -1146.6050125355020555
  @DF-RHF Final Energy: -1146.61123092690650
    Total Energy =                      -1146.6112309269065008
  @DF-RHF Final Energy: -1146.61551614872496
    Total Energy =                      -1146.6155161487245095
  Basis Set: CC-PVTZ
  Basis Set:
  @DF-RHF Final Energy: -1146.61600799741313
    Total Energy =                      -1146.6160079974135897
  Basis Set: CC-PVTZ
  Basis Set:
  Basis Set: CC-PVTZ
  Basis Set:
  @DF-RHF Final Energy: -1146.61606028628466
    Total Energy =                      -1146.6160602862853466
  Basis Set: CC-PVTZ
  Basis Set:
  Basis Set: CC-PVTZ
  Basis Set:
  @DF-RHF Final Energy: -1146.61606347875045
    Total Energy =                      -1146.6160634787515846
  Basis Set: CC-PVTZ
  Basis Set:
  Charge       = 0
  Multiplicity = 1
  Basis Set: CC-PVTZ
  Basis Set:

    Orbital Energies (a.u.)
    -----------------------

    Doubly Occupied:

       1A   -104.858627     2A    -26.354195     3A    -26.353047
       4A    -26.352388     5A    -26.343517     6A    -26.335385
       7A    -20.638666     8A    -11.519581     9A    -11.481980
      10A    -11.401286    11A    -10.584187    12A     -8.051000
      13A     -8.048987    14A     -8.048904    15A     -1.767188
      16A     -1.720987    17A     -1.662103    18A     -1.660447
      19A     -1.642513    20A     -1.482848    21A     -1.179240
      22A     -1.058776    23A     -0.987840    24A     -0.921689
      25A     -0.860549    26A     -0.855451    27A     -0.850906
      28A     -0.823829    29A     -0.815428    30A     -0.793306
      31A     -0.736467    32A     -0.731081    33A     -0.712752
      34A     -0.700078    35A     -0.685681    36A     -0.680104
      37A     -0.665195    38A     -0.663328    39A     -0.650489
      40A     -0.639495    41A     -0.598472    42A     -0.566247
      43A     -0.529732    44A     -0.478403    45A     -0.469802

  @DF-RHF Final Energy: -1146.61606399287757

   => Energetics <=

    Nuclear Repulsion Energy =            740.3044677719125275
    One-Electron Energy =               -3063.9167145255014475
    Two-Electron Energy =                1176.9961827607100986
    DFT Exchange-Correlation Energy =       0.0000000000000000
    Empirical Dispersion Energy =           0.0000000000000000
    PCM Polarization Energy =               0.0000000000000000
    EFP Energy =                            0.0000000000000000
    Total Energy =                      -1146.6160639928787077
    Molecular point group: c1
  Basis Set: CC-PVTZ
  Basis Set:

  -Total Gradient:
     Atom            X                  Y                   Z
    ------   -----------------  -----------------  -----------------
       1        0.000038338704     0.000018849427    -0.000015764349
       2        0.002127818246    -0.001803002074    -0.002859963986
       3       -0.003575706209     0.001924558941     0.005306150933
       4        0.000065347785    -0.000035814819     0.000013701389
       5        0.000010252802     0.000038325487     0.000058381510
       6        0.001867492618     0.002539104883    -0.006204155391
       7        0.000017071953     0.000059297771    -0.000001207523
       8       -0.000004545846     0.000006256188     0.000027563606
       9       -0.000521331857    -0.002717516028     0.003661263493
      10       -0.000003124273    -0.000029249751     0.000005722195
      11       -0.000030554637     0.000019459950     0.000044579682
      12        0.000008940699    -0.000020269981    -0.000036271595

  **** Optimization is complete! (in 29 steps) ****
    Final optimized geometry and variables:
    Molecular point group: c1

    Geometry (in Angstrom), charge = 0, multiplicity = 1:

    H            1.805067043053     2.163997633085     1.044486952972
    C            1.170003623347     1.804239629596     0.255025642428
    O            0.676148291269     0.602358693085     0.639136690953
    F            0.188478543029     2.667377842898     0.037353367972
    F            1.867738618652     1.710460689954    -0.858525074148
    C           -0.461044385102     0.059204117208     0.079433795797
    C           -0.581517448186    -1.337527570324     0.690091432532
    CL          -0.452971738015    -0.060377348234    -1.686986016235
    H           -1.341979110782     0.605220874336     0.372894225047
    F           -1.682199419470    -1.916453754986     0.280596289278
    F           -0.645273165422    -1.233780353264     1.996795898473
    F            0.430687490219    -2.102690131718     0.388458020235

  Mulliken Charges: (a.u.)
   Center  Symbol    Alpha    Beta     Spin     Total
       1     H     0.45140  0.45140  0.00000  0.09720
       2     C     2.74066  2.74066  0.00000  0.51867
       3     O     4.15768  4.15768  0.00000 -0.31536
       4     F     4.61968  4.61968  0.00000 -0.23935
       5     F     4.60941  4.60941  0.00000 -0.21881
       6     C     2.94570  2.94570  0.00000  0.10860
       7     C     2.66923  2.66923  0.00000  0.66154
       8    CL     8.57067  8.57067  0.00000 -0.14135
       9     H     0.42736  0.42736  0.00000  0.14529
      10     F     4.60266  4.60266  0.00000 -0.20532
      11     F     4.60517  4.60517  0.00000 -0.21033
      12     F     4.60039  4.60039  0.00000 -0.20077

   Total alpha = 45.00000, Total beta = 45.00000, Total charge = -0.00000

*** Psi4 exiting successfully. Buy a developer a beer!
