  ==> Input File <==

--------------------------------------------------------------------------
set {
	reference rhf
	basis 6-31G*
}

set_num_threads( 1 )
memory 2 gb

molecule MOL {
0 1

H	 2.168912	 2.716896	 -1.017497
O	 2.978105	 2.310723	 -1.291908
C	 3.416461	 1.413344	 -0.303673
C	 2.581531	 0.139384	 -0.235516
H	 4.438385	 1.167206	 -0.562059
H	 3.437818	 1.900150	 0.670669
C	 1.124054	 0.371452	 0.170408
H	 2.616805	 -0.348371	 -1.206194
H	 3.052006	 -0.536634	 0.476538
C	 0.326841	 -0.931130	 0.282431
H	 0.650610	 1.025197	 -0.556802
H	 1.093299	 0.892434	 1.127472
C	 -1.117096	 -0.762516	 0.769210
H	 0.324706	 -1.433699	 -0.683109
H	 0.846008	 -1.596669	 0.968889
C	 -2.037799	 -0.007733	 -0.193645
H	 -1.535792	 -1.751107	 0.945839
H	 -1.114369	 -0.259170	 1.734856
C	 -3.489788	 0.042957	 0.286558
H	 -2.000669	 -0.483194	 -1.172761
H	 -1.679079	 1.008967	 -0.334863
C	 -4.216917	 1.317354	 -0.141063
H	 -4.025645	 -0.823308	 -0.095450
H	 -3.513059	 -0.038752	 1.371301
H	 -4.239342	 1.411634	 -1.223113
H	 -5.243387	 1.322503	 0.212445
H	 -3.726170	 2.201406	 0.256408

	symmetry c1
}
set optking {
	frozen_dihedral = ("
		14 10 7 4,
		14 10 13 16,
		10 7 4 8,
		8 4 3 2,
		10 13 16 20,
		4 3 2 1
	")
}

ee = energy('scf')
oeprop('DIPOLE', 'QUADRUPOLE', 'MULLIKEN_CHARGES')
f=open( 'psi4out.xyz', 'w' )
f.write( "27  " )
f.write( str(ee) + "\n" )
f.write( MOL.save_string_xyz() )
f.close()
--------------------------------------------------------------------------

    Molecular point group: c1

    Geometry (in Angstrom), charge = 0, multiplicity = 1:

       Center              X                  Y                   Z               Mass
    ------------   -----------------  -----------------  -----------------  -----------------
           H          2.182998036998     2.237530943007    -0.924304108282     1.007825032070
           O          2.992191036998     1.831357943007    -1.198715108282    15.994914619560
           C          3.430547036998     0.933978943007    -0.210480108282    12.000000000000
           C          2.595617036998    -0.339981056993    -0.142323108282    12.000000000000
           H          4.452471036998     0.687840943007    -0.468866108282     1.007825032070
           H          3.451904036998     1.420784943007     0.763861891718     1.007825032070
           C          1.138140036998    -0.107913056993     0.263600891718    12.000000000000
           H          2.630891036998    -0.827736056993    -1.113001108282     1.007825032070
           H          3.066092036998    -1.015999056993     0.569730891718     1.007825032070
           C          0.340927036998    -1.410495056993     0.375623891718    12.000000000000
           H          0.664696036998     0.545831943007    -0.463609108282     1.007825032070
           H          1.107385036998     0.413068943007     1.220664891718     1.007825032070
           C         -1.103009963002    -1.241881056993     0.862402891718    12.000000000000
           H          0.338792036998    -1.913064056993    -0.589916108282     1.007825032070
           H          0.860094036998    -2.076034056993     1.062081891718     1.007825032070
           C         -2.023712963002    -0.487098056993    -0.100452108282    12.000000000000
           H         -1.521705963002    -2.230472056993     1.039031891718     1.007825032070
           H         -1.100282963002    -0.738535056993     1.828048891718     1.007825032070
           C         -3.475701963002    -0.436408056993     0.379750891718    12.000000000000
           H         -1.986582963002    -0.962559056993    -1.079568108282     1.007825032070
           H         -1.664992963002     0.529601943007    -0.241670108282     1.007825032070
           C         -4.202830963002     0.837988943007    -0.047870108282    12.000000000000
           H         -4.011558963002    -1.302673056993    -0.002257108282     1.007825032070
           H         -3.498972963002    -0.518117056993     1.464493891718     1.007825032070
           H         -4.225255963002     0.932268943007    -1.129920108282     1.007825032070
           H         -5.229300963002     0.843137943007     0.305637891718     1.007825032070
           H         -3.712083963002     1.722040943007     0.349600891718     1.007825032070

  Charge       = 0
  Multiplicity = 1
  Basis Set: 6-31G*
  Basis Set:

    Orbital Energies (a.u.)
    -----------------------

    Doubly Occupied:

       1A    -20.552253     2A    -11.267021     3A    -11.219749
       4A    -11.217048     5A    -11.215952     6A    -11.215253
       7A    -11.215182     8A    -11.213467     9A    -11.209748
      10A     -1.359000    11A     -1.095253    12A     -1.061568
      13A     -1.011410    14A     -0.948362    15A     -0.888181
      16A     -0.820506    17A     -0.801783    18A     -0.778125
      19A     -0.693684    20A     -0.650894    21A     -0.634162
      22A     -0.614485    23A     -0.605658    24A     -0.583425
      25A     -0.581311    26A     -0.550587    27A     -0.540643
      28A     -0.532739    29A     -0.503846    30A     -0.494340
      31A     -0.487396    32A     -0.473022    33A     -0.470432
      34A     -0.458853    35A     -0.451480    36A     -0.440685
      37A     -0.422859

  @DF-RHF Final Energy:  -388.27859026228771

   => Energetics <=

    Nuclear Repulsion Energy =            460.5818564138286320
    One-Electron Energy =               -1439.1605963415779570
    Two-Electron Energy =                 590.3001496654612765
    DFT Exchange-Correlation Energy =       0.0000000000000000
    Empirical Dispersion Energy =           0.0000000000000000
    PCM Polarization Energy =               0.0000000000000000
    EFP Energy =                            0.0000000000000000
    Total Energy =                       -388.2785902622880485

  Mulliken Charges: (a.u.)
   Center  Symbol    Alpha    Beta     Spin     Total
       1     H     0.27990  0.27990  0.00000  0.44020
       2     O     4.37094  4.37094  0.00000 -0.74189
       3     C     2.99736  2.99736  0.00000  0.00528
       4     C     3.16088  3.16088  0.00000 -0.32177
       5     H     0.41445  0.41445  0.00000  0.17110
       6     H     0.43207  0.43207  0.00000  0.13587
       7     C     3.16327  3.16327  0.00000 -0.32654
       8     H     0.41497  0.41497  0.00000  0.17006
       9     H     0.42434  0.42434  0.00000  0.15132
      10     C     3.15245  3.15245  0.00000 -0.30489
      11     H     0.42276  0.42276  0.00000  0.15448
      12     H     0.42554  0.42554  0.00000  0.14891
      13     C     3.15531  3.15531  0.00000 -0.31063
      14     H     0.42165  0.42165  0.00000  0.15669
      15     H     0.42158  0.42158  0.00000  0.15684
      16     C     3.15401  3.15401  0.00000 -0.30802
      17     H     0.42084  0.42084  0.00000  0.15832
      18     H     0.42399  0.42399  0.00000  0.15202
      19     C     3.15258  3.15258  0.00000 -0.30516
      20     H     0.42174  0.42174  0.00000  0.15653
      21     H     0.42272  0.42272  0.00000  0.15456
      22     C     3.24010  3.24010  0.00000 -0.48021
      23     H     0.42096  0.42096  0.00000  0.15808
      24     H     0.42188  0.42188  0.00000  0.15624
      25     H     0.42138  0.42138  0.00000  0.15725
      26     H     0.41987  0.41987  0.00000  0.16027
      27     H     0.42245  0.42245  0.00000  0.15509

   Total alpha = 37.00000, Total beta = 37.00000, Total charge =  0.00000
