  ==> Input File <==

--------------------------------------------------------------------------
set {
	reference rhf
	basis 6-31G*
}

set_num_threads( 4 )
memory 2 gb

molecule MOL {
0 1

H	 2.655490	 0.019172	 0.945143
O	 1.807304	 -0.410982	 0.993451
C	 1.050492	 0.053836	 0.000068
C	 -0.318135	 -0.576402	 0.000164
O	 1.447057	 0.866821	 -0.769860
C	 -1.454360	 0.441875	 -0.000474
H	 -0.374042	 -1.230163	 -0.866135
H	 -0.374274	 -1.229227	 0.867154
C	 -2.826123	 -0.230780	 0.000056
H	 -1.357605	 1.085198	 -0.868380
H	 -1.357504	 1.086451	 0.866496
H	 -2.959731	 -0.858053	 -0.876869
H	 -3.619374	 0.509403	 -0.000080
H	 -2.959371	 -0.857318	 0.877556

	symmetry c1
}
set optking {
	frozen_dihedral = ("
		2 3 4 7
	")
}

ee = optimize('scf')
oeprop('DIPOLE', 'QUADRUPOLE', 'MULLIKEN_CHARGES')
f=open( 'psi4out.xyz', 'w' )
f.write( "14  " )
f.write( str(ee) + "\n" )
f.write( MOL.save_string_xyz() )
f.close()
--------------------------------------------------------------------------

    Molecular point group: c1
  Charge       = 0
  Multiplicity = 1
  Basis Set: 6-31G*
  Basis Set:
  @DF-RHF Final Energy:  -305.87877311880828
    Total Energy =                       -305.8787731188083967
    Molecular point group: c1
  Basis Set: 6-31G*
  Basis Set:
  Basis Set: 6-31G*
  Basis Set:
  @DF-RHF Final Energy:  -305.87938664709282
    Total Energy =                       -305.8793866470928720
  Basis Set: 6-31G*
  Basis Set:
  Basis Set: 6-31G*
  Basis Set:
  @DF-RHF Final Energy:  -305.87940943558272
    Total Energy =                       -305.8794094355826019
  Basis Set: 6-31G*
  Basis Set:
  Basis Set: 6-31G*
  Basis Set:
  @DF-RHF Final Energy:  -305.87940185314125
    Total Energy =                       -305.8794018531413030
  Basis Set: 6-31G*
  Basis Set:
  Basis Set: 6-31G*
  Basis Set:
  @DF-RHF Final Energy:  -305.87941296044528
    Total Energy =                       -305.8794129604453929
  Basis Set: 6-31G*
  Basis Set:
  Charge       = 0
  Multiplicity = 1
  Basis Set: 6-31G*
  Basis Set:

    Orbital Energies (a.u.)
    -----------------------

    Doubly Occupied:

       1A    -20.615299     2A    -20.549354     3A    -11.381448
       4A    -11.240166     5A    -11.230755     6A    -11.218897
       7A     -1.475646     8A     -1.365280     9A     -1.084063
      10A     -0.979103    11A     -0.855914    12A     -0.799239
      13A     -0.702091    14A     -0.688029    15A     -0.654322
      16A     -0.625022    17A     -0.593576    18A     -0.571285
      19A     -0.549714    20A     -0.510334    21A     -0.493825
      22A     -0.486616    23A     -0.472130    24A     -0.441866

  @DF-RHF Final Energy:  -305.87941303913050

   => Energetics <=

    Nuclear Repulsion Energy =            239.9901671404726926
    One-Electron Energy =                -892.5712125254201510
    Two-Electron Energy =                 346.7016323458166767
    DFT Exchange-Correlation Energy =       0.0000000000000000
    Empirical Dispersion Energy =           0.0000000000000000
    PCM Polarization Energy =               0.0000000000000000
    EFP Energy =                            0.0000000000000000
    Total Energy =                       -305.8794130391307249
    Molecular point group: c1
  Basis Set: 6-31G*
  Basis Set:

  -Total Gradient:
     Atom            X                  Y                   Z
    ------   -----------------  -----------------  -----------------
       1       -0.000011614776     0.000005453117    -0.000002207102
       2       -0.000226357161     0.000463271347     0.000443322013
       3        0.000224169053    -0.000481323002    -0.000690628588
       4        0.000303918405    -0.000604021990     0.000689604726
       5        0.000014248107    -0.000001629843    -0.000010470746
       6       -0.000000120773     0.000008518160    -0.000025403110
       7       -0.000314408695     0.000642535960    -0.000407573777
       8       -0.000006251573    -0.000025577892     0.000010508053
       9        0.000008970013    -0.000005598291     0.000006351811
      10       -0.000005240378     0.000006509234    -0.000007671162
      11        0.000004317207    -0.000015396465    -0.000006541506
      12       -0.000000044286     0.000005089758    -0.000000200347
      13        0.000001958236     0.000005847908     0.000004102850
      14        0.000006456615    -0.000003678002    -0.000003193119

  **** Optimization is complete! (in 6 steps) ****
    Final optimized geometry and variables:
    Molecular point group: c1

    Geometry (in Angstrom), charge = 0, multiplicity = 1:

    H            2.709818626030     0.016017064439     0.813727962787
    O            1.873854831499    -0.431317848557     0.906224307407
    C            1.055594287464     0.026092374961    -0.037821599807
    C           -0.304376757220    -0.625585571308    -0.005821023580
    O            1.390661682202     0.861847688484    -0.814171047013
    C           -1.433813423455     0.410034368919    -0.038286903150
    H           -0.368662558727    -1.255734481169    -0.888938740041
    H           -0.380674669269    -1.265697236188     0.863779807569
    C           -2.812277735331    -0.246197783952    -0.078835434796
    H           -1.297905243897     1.049052361483    -0.902791226749
    H           -1.360754935629     1.049237069815     0.837624572869
    H           -2.926130881377    -0.865997739062    -0.963584763709
    H           -3.596373884543     0.503508392332    -0.097308087164
    H           -2.976700960084    -0.875917782481     0.790739283500

  Mulliken Charges: (a.u.)
   Center  Symbol    Alpha    Beta     Spin     Total
       1     H     0.26828  0.26828  0.00000  0.46343
       2     O     4.34832  4.34832  0.00000 -0.69665
       3     C     2.62446  2.62446  0.00000  0.75109
       4     C     3.20745  3.20745  0.00000 -0.41490
       5     O     4.28026  4.28026  0.00000 -0.56051
       6     C     3.16047  3.16047  0.00000 -0.32093
       7     H     0.39895  0.39895  0.00000  0.20210
       8     H     0.39898  0.39898  0.00000  0.20205
       9     C     3.24192  3.24192  0.00000 -0.48385
      10     H     0.40192  0.40192  0.00000  0.19615
      11     H     0.41543  0.41543  0.00000  0.16915
      12     H     0.41926  0.41926  0.00000  0.16147
      13     H     0.41441  0.41441  0.00000  0.17118
      14     H     0.41989  0.41989  0.00000  0.16021

   Total alpha = 24.00000, Total beta = 24.00000, Total charge = -0.00000
