  ==> Input File <==

--------------------------------------------------------------------------
set {
	reference rhf
	basis 6-31G*
}

set_num_threads( 1 )
memory 2 gb

molecule MOL {
0 1

H	 -2.660788	 -1.086765	 1.493186
O	 -1.827850	 -0.782917	 1.162029
C	 -2.026376	 0.340750	 0.341611
C	 -0.673256	 0.843270	 -0.132153
H	 -2.641978	 0.079201	 -0.517204
H	 -2.544132	 1.127212	 0.889388
C	 0.486613	 -0.083066	 0.235839
H	 -0.715586	 0.970948	 -1.210718
H	 -0.508072	 1.829858	 0.297090
C	 1.840406	 0.433480	 -0.254303
H	 0.300215	 -1.068318	 -0.178947
H	 0.519509	 -0.203625	 1.318070
C	 3.000220	 -0.489290	 0.118523
H	 1.809207	 0.553576	 -1.335192
H	 2.021860	 1.424500	 0.157276
H	 2.864959	 -1.479103	 -0.307933
H	 3.946603	 -0.099227	 -0.243630
H	 3.080049	 -0.602997	 1.196117

	symmetry c1
}
set optking {
	frozen_dihedral = ("
		14 10 7 11,
		10 7 4 8,
		1 2 3 4
	")
}

ee = energy('scf')
oeprop('DIPOLE', 'QUADRUPOLE', 'MULLIKEN_CHARGES')
f=open( 'psi4out.xyz', 'w' )
f.write( "18  " )
f.write( str(ee) + "\n" )
f.write( MOL.save_string_xyz() )
f.close()
--------------------------------------------------------------------------

    Molecular point group: c1

    Geometry (in Angstrom), charge = 0, multiplicity = 1:

       Center              X                  Y                   Z               Mass
    ------------   -----------------  -----------------  -----------------  -----------------
           H         -2.749444462034    -1.103516350743     1.222204387293     1.007825032070
           O         -1.916506462034    -0.799668350743     0.891047387293    15.994914619560
           C         -2.115032462034     0.323998649257     0.070629387293    12.000000000000
           C         -0.761912462034     0.826518649257    -0.403134612707    12.000000000000
           H         -2.730634462034     0.062449649257    -0.788185612707     1.007825032070
           H         -2.632788462034     1.110460649257     0.618406387293     1.007825032070
           C          0.397956537966    -0.099817350743    -0.035142612707    12.000000000000
           H         -0.804242462034     0.954196649257    -1.481699612707     1.007825032070
           H         -0.596728462034     1.813106649257     0.026108387293     1.007825032070
           C          1.751749537966     0.416728649257    -0.525284612707    12.000000000000
           H          0.211558537966    -1.085069350743    -0.449928612707     1.007825032070
           H          0.430852537966    -0.220376350743     1.047088387293     1.007825032070
           C          2.911563537966    -0.506041350743    -0.152458612707    12.000000000000
           H          1.720550537966     0.536824649257    -1.606173612707     1.007825032070
           H          1.933203537966     1.407748649257    -0.113705612707     1.007825032070
           H          2.776302537966    -1.495854350743    -0.578914612707     1.007825032070
           H          3.857946537966    -0.115978350743    -0.514611612707     1.007825032070
           H          2.991392537966    -0.619748350743     0.925135387293     1.007825032070

  Charge       = 0
  Multiplicity = 1
  Basis Set: 6-31G*
  Basis Set:

    Orbital Energies (a.u.)
    -----------------------

    Doubly Occupied:

       1A    -20.552300     2A    -11.267028     3A    -11.209872
       4A    -11.206642     5A    -11.201593     6A    -11.201041
       7A     -1.360396     8A     -1.070545     9A     -1.006705
      10A     -0.912356    11A     -0.815803    12A     -0.779183
      13A     -0.696067    14A     -0.659082    15A     -0.614616
      16A     -0.580835    17A     -0.570086    18A     -0.549395
      19A     -0.513131    20A     -0.500036    21A     -0.495162
      22A     -0.461433    23A     -0.455399    24A     -0.443802
      25A     -0.421553

  @DF-RHF Final Energy:  -271.17017259380509

   => Energetics <=

    Nuclear Repulsion Energy =            251.4826411795244496
    One-Electron Energy =                -866.2173971399321317
    Two-Electron Energy =                 343.5645833666027897
    DFT Exchange-Correlation Energy =       0.0000000000000000
    Empirical Dispersion Energy =           0.0000000000000000
    PCM Polarization Energy =               0.0000000000000000
    EFP Energy =                            0.0000000000000000
    Total Energy =                       -271.1701725938049208

  Mulliken Charges: (a.u.)
   Center  Symbol    Alpha    Beta     Spin     Total
       1     H     0.28074  0.28074  0.00000  0.43853
       2     O     4.37218  4.37218  0.00000 -0.74435
       3     C     2.98903  2.98903  0.00000  0.02194
       4     C     3.17741  3.17741  0.00000 -0.35482
       5     H     0.43056  0.43056  0.00000  0.13888
       6     H     0.42996  0.42996  0.00000  0.14008
       7     C     3.14147  3.14147  0.00000 -0.28294
       8     H     0.42060  0.42060  0.00000  0.15881
       9     H     0.42052  0.42052  0.00000  0.15896
      10     C     3.15202  3.15202  0.00000 -0.30404
      11     H     0.41717  0.41717  0.00000  0.16566
      12     H     0.41286  0.41286  0.00000  0.17428
      13     C     3.23833  3.23833  0.00000 -0.47667
      14     H     0.42632  0.42632  0.00000  0.14736
      15     H     0.42571  0.42571  0.00000  0.14859
      16     H     0.42201  0.42201  0.00000  0.15598
      17     H     0.42133  0.42133  0.00000  0.15733
      18     H     0.42178  0.42178  0.00000  0.15644

   Total alpha = 25.00000, Total beta = 25.00000, Total charge =  0.00000
