                              Psi4 1.0.54 Driver

  ==> Input File <==

--------------------------------------------------------------------------
set {
	reference rhf
	basis cc-pvtz
}

set_num_threads( 4 )
memory 2 gb

molecule MOL {
0 1

H	 3.036153	 1.018802	 1.227300
C	 2.353816	 0.297517	 0.790321
C	 0.976173	 0.919959	 0.608193
H	 2.293480	 -0.561086	 1.447650
H	 2.782927	 -0.031313	 -0.148012
N	 0.000297	 0.000045	 0.046090
H	 0.623306	 1.241179	 1.578460
H	 1.055161	 1.825579	 0.000292
C	 -1.359159	 0.315706	 0.454404
C	 0.129535	 -0.133068	 -1.396166
C	 -2.416729	 -0.286720	 -0.460525
H	 -1.478729	 1.390261	 0.442008
H	 -1.539692	 0.003361	 1.486761
C	 -0.342342	 -1.482734	 -1.919781
H	 1.172348	 -0.018536	 -1.657858
H	 -0.401712	 0.671642	 -1.912045
H	 -2.285276	 0.073129	 -1.473515
H	 -2.371743	 -1.368476	 -0.483209
H	 -3.408658	 -0.007405	 -0.121593
H	 0.228031	 -2.282289	 -1.463389
H	 -1.390056	 -1.660343	 -1.711148
H	 -0.209344	 -1.534867	 -2.995144

	symmetry c1
}
set optking {
	frozen_dihedral = ("
		3 6 9 11
	")
}

ee,wfn = optimize('scf', return_wfn=True)
oeprop( wfn, 'DIPOLE', 'QUADRUPOLE', 'MULLIKEN_CHARGES')
f=open( 'psi4out.xyz', 'w' )
f.write( "22  " )
f.write( str(ee) + "\n" )
f.write( MOL.save_string_xyz() )
f.close()
--------------------------------------------------------------------------

    Molecular point group: c1
  Charge       = 0
  Multiplicity = 1
  Basis Set: CC-PVTZ
  Basis Set:
  @DF-RHF Final Energy:  -290.45241014859829
    Total Energy =                       -290.4524101485982328
    Molecular point group: c1
  Basis Set: CC-PVTZ
  Basis Set:
  Basis Set: CC-PVTZ
  Basis Set:
  @DF-RHF Final Energy:  -290.46557725825454
    Total Energy =                       -290.4655772582545978
  Basis Set: CC-PVTZ
  Basis Set:
  Basis Set: CC-PVTZ
  Basis Set:
  @DF-RHF Final Energy:  -290.46797315831600
    Total Energy =                       -290.4679731583157150
  Basis Set: CC-PVTZ
  Basis Set:
  Basis Set: CC-PVTZ
  Basis Set:
  @DF-RHF Final Energy:  -290.46842883956344
    Total Energy =                       -290.4684288395634439
  Basis Set: CC-PVTZ
  Basis Set:
  @DF-RHF Final Energy:  -290.46866559544713
    Total Energy =                       -290.4686655954471917
  Basis Set: CC-PVTZ
  Basis Set:
  @DF-RHF Final Energy:  -290.46874991376086
    Total Energy =                       -290.4687499137608029
  Basis Set: CC-PVTZ
  Basis Set:
  Basis Set: CC-PVTZ
  Basis Set:
  @DF-RHF Final Energy:  -290.46878327066349
    Total Energy =                       -290.4687832706634367
  Basis Set: CC-PVTZ
  Basis Set:
  Basis Set: CC-PVTZ
  Basis Set:
  @DF-RHF Final Energy:  -290.46878661751219
    Total Energy =                       -290.4687866175124782
  Basis Set: CC-PVTZ
  Basis Set:
  Charge       = 0
  Multiplicity = 1
  Basis Set: CC-PVTZ
  Basis Set:

    Orbital Energies (a.u.)
    -----------------------

    Doubly Occupied:

       1A    -15.533735     2A    -11.240443     3A    -11.238589
       4A    -11.236944     5A    -11.208767     6A    -11.203632
       7A    -11.200587     8A     -1.222352     9A     -1.027623
      10A     -1.019320    11A     -0.961723    12A     -0.858928
      13A     -0.830756    14A     -0.772366    15A     -0.661625
      16A     -0.637481    17A     -0.620461    18A     -0.595321
      19A     -0.571664    20A     -0.555287    21A     -0.540397
      22A     -0.533453    23A     -0.513300    24A     -0.500275
      25A     -0.486121    26A     -0.478929    27A     -0.466127
      28A     -0.462314    29A     -0.343014

  @DF-RHF Final Energy:  -290.46878676088505

   => Energetics <=

    Nuclear Repulsion Energy =            338.8789273861966080
    One-Electron Energy =               -1063.6523600741709288
    Two-Electron Energy =                 434.3046459270889841
    DFT Exchange-Correlation Energy =       0.0000000000000000
    Empirical Dispersion Energy =           0.0000000000000000
    PCM Polarization Energy =               0.0000000000000000
    EFP Energy =                            0.0000000000000000
    Total Energy =                       -290.4687867608852798
    Molecular point group: c1
  Basis Set: CC-PVTZ
  Basis Set:

  -Total Gradient:
     Atom            X                  Y                   Z
    ------   -----------------  -----------------  -----------------
       1        0.000015591576     0.000007612385     0.000000129443
       2       -0.000008488083     0.000006337432    -0.000003505133
       3       -0.000508782404     0.003642926605    -0.005282532643
       4       -0.000002593093    -0.000001058614     0.000001884329
       5       -0.000009268878    -0.000003022474    -0.000024040150
       6        0.000828528833    -0.002306846643     0.005095083293
       7        0.000034730411     0.000016229894    -0.000001419369
       8        0.000004073372    -0.000003907610     0.000006007004
       9       -0.000755875922    -0.006599548979     0.004170096908
      10       -0.000069842097    -0.000020488637     0.000028818001
      11        0.000472023329     0.005257517507    -0.004010941716
      12       -0.000014329294    -0.000030300674    -0.000013454004
      13        0.000021377617     0.000004077759     0.000021724995
      14        0.000008802466     0.000034845191     0.000014343667
      15        0.000071514173     0.000012053147     0.000031606267
      16       -0.000061795869     0.000045797523    -0.000005704875
      17        0.000017939976     0.000019521924    -0.000036127954
      18       -0.000009228410    -0.000025872295     0.000010430193
      19       -0.000019936791     0.000012701406     0.000010168322
      20        0.000023129014    -0.000028118882    -0.000000964449
      21       -0.000056349894    -0.000025484945     0.000004904715
      22        0.000018779969    -0.000014971021    -0.000016506846

  **** Optimization is complete! (in 9 steps) ****
    Final optimized geometry and variables:
    Molecular point group: c1

    Geometry (in Angstrom), charge = 0, multiplicity = 1:

    H            3.054825472157     1.126903481361     1.501067889072
    C            2.400359491288     0.390323676712     1.047305322753
    C            1.005635611693     0.973448937873     0.865403344382
    H            2.360641751311    -0.477723001448     1.693804762952
    H            2.851246671060     0.087681929341     0.110590070019
    N            0.046034779443     0.030239342198     0.307153227504
    H            0.645670626289     1.273141472161     1.842471262651
    H            1.053426885370     1.885741684856     0.264903986183
    C           -1.304827095544     0.433420107095     0.704115779301
    C            0.260968376315    -0.141064105448    -1.127823840580
    C           -2.472427325848    -0.099808760843    -0.115320606166
    H           -1.382422339267     1.524097707161     0.676125456232
    H           -1.442011026295     0.145529372137     1.740189409778
    C            0.072478326523    -1.572053594226    -1.616042219137
    H            1.280786664184     0.140720694037    -1.347456993454
    H           -0.356235688236     0.541570310729    -1.710227039441
    H           -2.427816176692     0.199650710638    -1.152661345950
    H           -2.543331762031    -1.179315109339    -0.071866012229
    H           -3.388640429721     0.304093085831     0.300047411140
    H            0.732557248073    -2.238192282531    -1.073813920532
    H           -0.939181315646    -1.927053484814    -1.482176001509
    H            0.311088405033    -1.639663649624    -2.672928037542

  Mulliken Charges: (a.u.)
   Center  Symbol    Alpha    Beta     Spin     Total
       1     H     0.45241  0.45241  0.00000  0.09518
       2     C     3.14386  3.14386  0.00000 -0.28771
       3     C     3.03686  3.03686  0.00000 -0.07372
       4     H     0.45135  0.45135  0.00000  0.09730
       5     H     0.45624  0.45624  0.00000  0.08753
       6     N     3.62324  3.62324  0.00000 -0.24649
       7     H     0.45294  0.45294  0.00000  0.09411
       8     H     0.46628  0.46628  0.00000  0.06744
       9     C     3.02563  3.02563  0.00000 -0.05127
      10     C     3.05838  3.05838  0.00000 -0.11677
      11     C     3.16441  3.16441  0.00000 -0.32882
      12     H     0.47174  0.47174  0.00000  0.05653
      13     H     0.45505  0.45505  0.00000  0.08990
      14     C     3.13725  3.13725  0.00000 -0.27450
      15     H     0.44405  0.44405  0.00000  0.11191
      16     H     0.45669  0.45669  0.00000  0.08662
      17     H     0.45009  0.45009  0.00000  0.09982
      18     H     0.44982  0.44982  0.00000  0.10037
      19     H     0.44301  0.44301  0.00000  0.11397
      20     H     0.45156  0.45156  0.00000  0.09687
      21     H     0.45263  0.45263  0.00000  0.09474
      22     H     0.45650  0.45650  0.00000  0.08700

   Total alpha = 29.00000, Total beta = 29.00000, Total charge = -0.00000

*** Psi4 exiting successfully. Buy a developer a beer!
