  ==> Input File <==

--------------------------------------------------------------------------
set {
	reference rhf
	basis 6-31G*
}

set_num_threads( 1 )
memory 2 gb

molecule MOL {
0 1

H	 -3.010134	 -2.305157	 2.533271
C	 -2.761338	 -1.643718	 1.726265
C	 -1.552160	 -1.661468	 1.214822
H	 -3.518275	 -0.978292	 1.355907
O	 -1.180634	 -0.819263	 0.215062
H	 -0.782075	 -2.325126	 1.566565
C	 0.051604	 -1.018856	 -0.387932
C	 1.043764	 0.054862	 -0.001873
H	 -0.017620	 -1.041351	 -1.469781
H	 0.437898	 -1.966374	 -0.042284
F	 2.212596	 -0.199467	 -0.571921
F	 0.652529	 1.252447	 -0.405055
F	 1.230877	 0.110694	 1.300533

	symmetry c1
}
set optking {
	frozen_dihedral = ("
		11 8 7 9,
		6 3 2 1,
		6 3 5 7
	")
}

ee = energy('scf')
oeprop('DIPOLE', 'QUADRUPOLE', 'MULLIKEN_CHARGES')
f=open( 'psi4out.xyz', 'w' )
f.write( "13  " )
f.write( str(ee) + "\n" )
f.write( MOL.save_string_xyz() )
f.close()
--------------------------------------------------------------------------

    Molecular point group: c1

    Geometry (in Angstrom), charge = 0, multiplicity = 1:

       Center              X                  Y                   Z               Mass
    ------------   -----------------  -----------------  -----------------  -----------------
           H         -3.116233778826    -1.901203339180     2.182742164204     1.007825032070
           C         -2.867437778826    -1.239764339180     1.375736164204    12.000000000000
           C         -1.658259778826    -1.257514339180     0.864293164204    12.000000000000
           H         -3.624374778826    -0.574338339180     1.005378164204     1.007825032070
           O         -1.286733778826    -0.415309339180    -0.135466835796    15.994914619560
           H         -0.888174778826    -1.921172339180     1.216036164204     1.007825032070
           C         -0.054495778826    -0.614902339180    -0.738460835796    12.000000000000
           C          0.937664221174     0.458815660820    -0.352401835796    12.000000000000
           H         -0.123719778826    -0.637397339180    -1.820309835796     1.007825032070
           H          0.331798221174    -1.562420339180    -0.392812835796     1.007825032070
           F          2.106496221174     0.204486660820    -0.922449835796    18.998403224000
           F          0.546429221174     1.656400660820    -0.755583835796    18.998403224000
           F          1.124777221174     0.514647660820     0.950004164204    18.998403224000

  Charge       = 0
  Multiplicity = 1
  Basis Set: 6-31G*
  Basis Set:

    Orbital Energies (a.u.)
    -----------------------

    Doubly Occupied:

       1A    -26.344527     2A    -26.343393     3A    -26.337644
       4A    -20.608008     5A    -11.503150     6A    -11.319333
       7A    -11.302223     8A    -11.217712     9A     -1.740719
      10A     -1.640378    11A     -1.635320    12A     -1.438480
      13A     -1.085252    14A     -1.016877    15A     -0.924401
      16A     -0.836168    17A     -0.830691    18A     -0.815559
      19A     -0.798459    20A     -0.723290    21A     -0.710803
      22A     -0.697949    23A     -0.676751    24A     -0.658771
      25A     -0.653749    26A     -0.641773    27A     -0.630860
      28A     -0.588602    29A     -0.560829    30A     -0.526287
      31A     -0.513728    32A     -0.352940

  @DF-RHF Final Energy:  -527.53349409884879

   => Energetics <=

    Nuclear Repulsion Energy =            409.5143680910022113
    One-Electron Energy =               -1542.7464791917370803
    Two-Electron Energy =                 605.6986170018863049
    DFT Exchange-Correlation Energy =       0.0000000000000000
    Empirical Dispersion Energy =           0.0000000000000000
    PCM Polarization Energy =               0.0000000000000000
    EFP Energy =                            0.0000000000000000
    Total Energy =                       -527.5334940988486778

  Mulliken Charges: (a.u.)
   Center  Symbol    Alpha    Beta     Spin     Total
       1     H     0.40681  0.40681  0.00000  0.18637
       2     C     3.23558  3.23558  0.00000 -0.47116
       3     C     2.89641  2.89641  0.00000  0.20719
       4     H     0.40104  0.40104  0.00000  0.19791
       5     O     4.30271  4.30271  0.00000 -0.60542
       6     H     0.40624  0.40624  0.00000  0.18752
       7     C     3.05701  3.05701  0.00000 -0.11402
       8     C     2.45456  2.45456  0.00000  1.09088
       9     H     0.39316  0.39316  0.00000  0.21367
      10     H     0.40914  0.40914  0.00000  0.18172
      11     F     4.68278  4.68278  0.00000 -0.36555
      12     F     4.67759  4.67759  0.00000 -0.35517
      13     F     4.67698  4.67698  0.00000 -0.35395

   Total alpha = 32.00000, Total beta = 32.00000, Total charge = -0.00000
