                              Psi4 1.0.54 Driver

  ==> Input File <==

--------------------------------------------------------------------------
set {
	reference rhf
	basis cc-pvtz
}

set_num_threads( 4 )
memory 2 gb

molecule MOL {
0 1

O	 0.749630	 1.305591	 -0.000460
C	 0.576499	 0.134701	 -0.003900
C	 -0.765656	 -0.550508	 -0.002152
O	 1.564816	 -0.744612	 -0.000631
C	 -1.945526	 0.411052	 0.000603
H	 -0.794329	 -1.203792	 -0.868145
H	 -0.791555	 -1.205429	 0.862701
C	 -2.746373	 0.340795	 -1.295017
H	 -1.583801	 1.420013	 0.157277
H	 -2.587090	 0.186904	 0.844127
H	 -2.131908	 0.592790	 -2.153063
H	 -3.579819	 1.032386	 -1.271965
H	 -3.147412	 -0.654180	 -1.457869
C	 2.884339	 -0.237801	 0.002883
H	 3.064150	 0.362814	 -0.876312
H	 3.533055	 -1.098529	 0.004958
H	 3.059365	 0.363432	 0.882614

	symmetry c1
}
set optking {
	frozen_dihedral = ("
		9 5 3 6
	")
}

ee,wfn = optimize('scf', return_wfn=True)
oeprop( wfn, 'DIPOLE', 'QUADRUPOLE', 'MULLIKEN_CHARGES')
f=open( 'psi4out.xyz', 'w' )
f.write( "17  " )
f.write( str(ee) + "\n" )
f.write( MOL.save_string_xyz() )
f.close()
--------------------------------------------------------------------------

    Molecular point group: c1
  Charge       = 0
  Multiplicity = 1
  Basis Set: CC-PVTZ
  Basis Set:
  @DF-RHF Final Energy:  -345.03047212823822
    Total Energy =                       -345.0304721282383298
    Molecular point group: c1
  Basis Set: CC-PVTZ
  Basis Set:
  Basis Set: CC-PVTZ
  Basis Set:
  @DF-RHF Final Energy:  -345.03056774040959
    Total Energy =                       -345.0305677404102198
  Basis Set: CC-PVTZ
  Basis Set:
  Basis Set: CC-PVTZ
  Basis Set:
  @DF-RHF Final Energy:  -345.02866015287140
    Total Energy =                       -345.0286601528717370
  Basis Set: CC-PVTZ
  Basis Set:
  Basis Set: CC-PVTZ
  Basis Set:
  @DF-RHF Final Energy:  -345.03089902221973
    Total Energy =                       -345.0308990222194439
  Basis Set: CC-PVTZ
  Basis Set:
  Basis Set: CC-PVTZ
  Basis Set:
  @DF-RHF Final Energy:  -345.03092321197204
    Total Energy =                       -345.0309232119723788
  Basis Set: CC-PVTZ
  Basis Set:
  Basis Set: CC-PVTZ
  Basis Set:
  @DF-RHF Final Energy:  -345.03092629600371
    Total Energy =                       -345.0309262960038268
  Basis Set: CC-PVTZ
  Basis Set:
  Basis Set: CC-PVTZ
  Basis Set:
  @DF-RHF Final Energy:  -345.03092976720984
    Total Energy =                       -345.0309297672098978
  Basis Set: CC-PVTZ
  Basis Set:
  Charge       = 0
  Multiplicity = 1
  Basis Set: CC-PVTZ
  Basis Set:

    Orbital Energies (a.u.)
    -----------------------

    Doubly Occupied:

       1A    -20.597008     2A    -20.535370     3A    -11.365827
       4A    -11.279020     5A    -11.234352     6A    -11.218415
       7A    -11.210446     8A     -1.473336     9A     -1.366844
      10A     -1.078539    11A     -1.002150    12A     -0.939249
      13A     -0.829105    14A     -0.768749    15A     -0.704337
      16A     -0.685237    17A     -0.676620    18A     -0.626307
      19A     -0.606399    20A     -0.571856    21A     -0.570571
      22A     -0.533792    23A     -0.526063    24A     -0.488725
      25A     -0.484568    26A     -0.477331    27A     -0.461812
      28A     -0.443311

  @DF-RHF Final Energy:  -345.03093020269233

   => Energetics <=

    Nuclear Repulsion Energy =            314.7452760917427099
    One-Electron Energy =               -1094.0417333992484146
    Two-Electron Energy =                 434.2655271048131453
    DFT Exchange-Correlation Energy =       0.0000000000000000
    Empirical Dispersion Energy =           0.0000000000000000
    PCM Polarization Energy =               0.0000000000000000
    EFP Energy =                            0.0000000000000000
    Total Energy =                       -345.0309302026926161
    Molecular point group: c1
  Basis Set: CC-PVTZ
  Basis Set:

  -Total Gradient:
     Atom            X                  Y                   Z
    ------   -----------------  -----------------  -----------------
       1        0.000030796037    -0.000097606617     0.000006366981
       2        0.000006094912     0.000113633257    -0.000006074513
       3       -0.001286299805    -0.001634850462     0.000799781456
       4        0.000054517131     0.000027917986    -0.000003895725
       5        0.000056001441     0.000029040584     0.002072173144
       6        0.001029763883     0.001312472436    -0.000978757621
       7        0.000006922153     0.000014704378    -0.000001025942
       8       -0.000012740642    -0.000001222623    -0.000005440281
       9        0.000186253526     0.000255676505    -0.001875808014
      10       -0.000008251832    -0.000001807562    -0.000011172706
      11        0.000003454059    -0.000003288132     0.000004288552
      12        0.000003555640     0.000003308340     0.000002495382
      13       -0.000006585745    -0.000003912028    -0.000004325105
      14       -0.000086108605    -0.000054645558    -0.000002194831
      15        0.000006445664     0.000013422335    -0.000004012806
      16        0.000006490982     0.000012035663     0.000001450068
      17        0.000009691204     0.000015121498     0.000006151960

  **** Optimization is complete! (in 8 steps) ****
    Final optimized geometry and variables:
    Molecular point group: c1

    Geometry (in Angstrom), charge = 0, multiplicity = 1:

    O            0.680343304307     1.209213627079     0.101935557206
    C            0.502463532198     0.041599077596     0.178293735336
    C           -0.838341071237    -0.654222595229     0.204291854753
    O            1.490158909324    -0.836269160029     0.240529053730
    C           -2.046732180954     0.291620735307     0.208579115505
    H           -0.845129634097    -1.299960806959    -0.667500376764
    H           -0.832242886466    -1.314176625499     1.062605823267
    C           -2.836746938750     0.256167440821    -1.097212076293
    H           -1.701682618062     1.301248053693     0.378369851676
    H           -2.702613570856     0.032371655820     1.030991757230
    H           -2.211241446778     0.542361637265    -1.936019168508
    H           -3.674986240266     0.941992739618    -1.061684114372
    H           -3.228085656151    -0.736079019460    -1.296905169137
    C            2.810079218718    -0.332353595230     0.208097985232
    H            2.990187900410     0.206501204020    -0.710308760564
    H            3.458184943108    -1.191512140040     0.268567679399
    H            2.987017714052     0.327614595092     1.044352870941

  Mulliken Charges: (a.u.)
   Center  Symbol    Alpha    Beta     Spin     Total
       1     O     4.19682  4.19682  0.00000 -0.39364
       2     C     2.80255  2.80255  0.00000  0.39490
       3     C     3.10620  3.10620  0.00000 -0.21240
       4     O     4.14729  4.14729  0.00000 -0.29458
       5     C     3.08955  3.08955  0.00000 -0.17910
       6     H     0.44024  0.44024  0.00000  0.11952
       7     H     0.43267  0.43267  0.00000  0.13466
       8     C     3.14866  3.14866  0.00000 -0.29733
       9     H     0.43778  0.43778  0.00000  0.12443
      10     H     0.45008  0.45008  0.00000  0.09984
      11     H     0.45256  0.45256  0.00000  0.09487
      12     H     0.44843  0.44843  0.00000  0.10314
      13     H     0.45679  0.45679  0.00000  0.08641
      14     C     3.03622  3.03622  0.00000 -0.07244
      15     H     0.45448  0.45448  0.00000  0.09104
      16     H     0.44545  0.44545  0.00000  0.10910
      17     H     0.45421  0.45421  0.00000  0.09158

   Total alpha = 28.00000, Total beta = 28.00000, Total charge =  0.00000

*** Psi4 exiting successfully. Buy a developer a beer!
