  ==> Input File <==

--------------------------------------------------------------------------
set {
	reference rhf
	basis 6-31G*
}

set_num_threads( 4 )
memory 2 gb

molecule MOL {
0 1

H	 -2.798360	 -0.862255	 -0.071053
N	 -1.863561	 -0.715187	 0.256814
C	 -1.344686	 0.554728	 -0.219830
H	 -1.300452	 -1.461917	 -0.101532
C	 -2.141004	 1.020641	 -1.420637
H	 -1.361191	 1.345450	 0.531495
H	 -0.311613	 0.415457	 -0.523383
O	 -3.452849	 1.273487	 -1.005645
H	 -1.699246	 1.925501	 -1.837430
H	 -2.130007	 0.249905	 -2.188153
C	 -4.321518	 1.630228	 -2.033128
H	 -5.295569	 1.800378	 -1.594985
H	 -3.996100	 2.542012	 -2.530859
H	 -4.402373	 0.840776	 -2.777465

	symmetry c1
}
set optking {
	frozen_dihedral = ("
		6 3 2 4
	")
}

ee = optimize('scf')
oeprop('DIPOLE', 'QUADRUPOLE', 'MULLIKEN_CHARGES')
f=open( 'psi4out.xyz', 'w' )
f.write( "14  " )
f.write( str(ee) + "\n" )
f.write( MOL.save_string_xyz() )
f.close()
--------------------------------------------------------------------------

    Molecular point group: c1
  Charge       = 0
  Multiplicity = 1
  Basis Set: 6-31G*
  Basis Set:
  @DF-RHF Final Energy:  -248.11909226173032
    Total Energy =                       -248.1190922617303158
    Molecular point group: c1
  Basis Set: 6-31G*
  Basis Set:
  Basis Set: 6-31G*
  Basis Set:
  @DF-RHF Final Energy:  -248.12137371620295
    Total Energy =                       -248.1213737162029247
  Basis Set: 6-31G*
  Basis Set:
  Basis Set: 6-31G*
  Basis Set:
  @DF-RHF Final Energy:  -248.12173072573717
    Total Energy =                       -248.1217307257372795
  Basis Set: 6-31G*
  Basis Set:
  Basis Set: 6-31G*
  Basis Set:
  @DF-RHF Final Energy:  -248.12174456997462
    Total Energy =                       -248.1217445699745667
  Basis Set: 6-31G*
  Basis Set:
  Basis Set: 6-31G*
  Basis Set:
  @DF-RHF Final Energy:  -248.12174616559852
    Total Energy =                       -248.1217461655987222
  Basis Set: 6-31G*
  Basis Set:
  Charge       = 0
  Multiplicity = 1
  Basis Set: 6-31G*
  Basis Set:

    Orbital Energies (a.u.)
    -----------------------

    Doubly Occupied:

       1A    -20.561067     2A    -15.524679     3A    -11.269604
       4A    -11.269472     5A    -11.240954     6A     -1.385372
       7A     -1.170175     8A     -0.999965     9A     -0.910111
      10A     -0.821847    11A     -0.685225    12A     -0.674778
      13A     -0.648636    14A     -0.624851    15A     -0.588533
      16A     -0.559296    17A     -0.518595    18A     -0.500287
      19A     -0.481874    20A     -0.421058    21A     -0.370977

  @DF-RHF Final Energy:  -248.12174629960856

   => Energetics <=

    Nuclear Repulsion Energy =            194.3242473082822812
    One-Electron Energy =                -722.4372748018042785
    Two-Electron Energy =                 279.9912811939133803
    DFT Exchange-Correlation Energy =       0.0000000000000000
    Empirical Dispersion Energy =           0.0000000000000000
    PCM Polarization Energy =               0.0000000000000000
    EFP Energy =                            0.0000000000000000
    Total Energy =                       -248.1217462996085601
    Molecular point group: c1
  Basis Set: 6-31G*
  Basis Set:

  -Total Gradient:
     Atom            X                  Y                   Z
    ------   -----------------  -----------------  -----------------
       1       -0.000007354405    -0.000014282600     0.000007025916
       2       -0.002959411838    -0.000738826129    -0.004178083971
       3       -0.004137515047     0.001466899128    -0.000261858165
       4        0.003108015269     0.000386886552     0.003483599585
       5       -0.000024188655     0.000025326372     0.000008762149
       6        0.003963801905    -0.001115069265     0.000930106592
       7        0.000016280450     0.000017697418    -0.000014053936
       8       -0.000027765694    -0.000009660353     0.000021783981
       9        0.000036192623     0.000001338592    -0.000009155651
      10        0.000023513004    -0.000010035060     0.000008339870
      11        0.000002080017    -0.000007702622     0.000000044315
      12        0.000003610739    -0.000002880554     0.000001382051
      13        0.000004771333    -0.000000144166     0.000002970795
      14       -0.000002029697     0.000000452685    -0.000000863528

  **** Optimization is complete! (in 6 steps) ****
    Final optimized geometry and variables:
    Molecular point group: c1

    Geometry (in Angstrom), charge = 0, multiplicity = 1:

    H           -0.166370326014    -1.554724568356     1.085807428351
    N            0.816850095533    -1.440813232740     1.221444034287
    C            1.300759829970    -0.196052391694     0.653895969379
    H            1.306710663206    -2.236865710329     0.871061778774
    C            0.498338485588     0.309173468244    -0.532513331536
    H            1.333435864911     0.566413679554     1.425995105143
    H            2.329241470736    -0.334856516415     0.332225978160
    O           -0.829801255603     0.474643776806    -0.131938326749
    H            0.907213782816     1.254871749677    -0.888835391341
    H            0.552776388435    -0.406632218424    -1.353854331848
    C           -1.686792192124     0.905820561516    -1.140782998045
    H           -2.676552148295     0.993862892030    -0.714330337424
    H           -1.384209704602     1.875286196240    -1.531642342840
    H           -1.719509008759     0.196503521405    -1.965816692715

  Mulliken Charges: (a.u.)
   Center  Symbol    Alpha    Beta     Spin     Total
       1     H     0.32065  0.32065  0.00000  0.35871
       2     N     3.93199  3.93199  0.00000 -0.86397
       3     C     3.06090  3.06090  0.00000 -0.12180
       4     H     0.33245  0.33245  0.00000  0.33510
       5     C     2.99727  2.99727  0.00000  0.00545
       6     H     0.41298  0.41298  0.00000  0.17404
       7     H     0.42391  0.42391  0.00000  0.15219
       8     O     4.30608  4.30608  0.00000 -0.61217
       9     H     0.43065  0.43065  0.00000  0.13870
      10     H     0.43455  0.43455  0.00000  0.13090
      11     C     3.07934  3.07934  0.00000 -0.15868
      12     H     0.41089  0.41089  0.00000  0.17822
      13     H     0.42858  0.42858  0.00000  0.14283
      14     H     0.42977  0.42977  0.00000  0.14047

   Total alpha = 21.00000, Total beta = 21.00000, Total charge =  0.00000
