  ==> Input File <==

--------------------------------------------------------------------------
set {
	reference rhf
	basis 6-31G*
}

set_num_threads( 4 )
memory 2 gb

molecule MOL {
0 1

H	 -3.301617	 0.570527	 0.000000
C	 -2.250981	 0.344174	 0.000000
C	 -1.813665	 -0.976045	 0.000000
C	 -1.315303	 1.358057	 0.000000
H	 -2.528860	 -1.779366	 0.000000
C	 -0.467298	 -1.270142	 0.000000
H	 -1.635074	 2.385107	 0.000000
C	 0.047081	 1.078114	 0.000000
H	 -0.115948	 -2.285222	 0.000000
C	 0.472063	 -0.241155	 0.000000
H	 0.749976	 1.888426	 0.000000
O	 1.765256	 -0.628444	 0.000000
C	 2.731766	 0.179401	 -0.606893
H	 2.535148	 0.306320	 -1.666405
H	 3.674750	 -0.331157	 -0.480708
H	 2.789042	 1.154094	 -0.133581

	symmetry c1
}
set optking {
	frozen_dihedral = ("
		13 12 10 8
	")
}

ee = optimize('scf')
oeprop('DIPOLE', 'QUADRUPOLE', 'MULLIKEN_CHARGES')
f=open( 'psi4out.xyz', 'w' )
f.write( "16  " )
f.write( str(ee) + "\n" )
f.write( MOL.save_string_xyz() )
f.close()
--------------------------------------------------------------------------

    Molecular point group: c1
  Charge       = 0
  Multiplicity = 1
  Basis Set: 6-31G*
  Basis Set:
  @DF-RHF Final Energy:  -344.58084616744350
    Total Energy =                       -344.5808461674436671
    Molecular point group: c1
  Basis Set: 6-31G*
  Basis Set:
  Basis Set: 6-31G*
  Basis Set:
  @DF-RHF Final Energy:  -344.58147259310743
    Total Energy =                       -344.5814725931074349
  Basis Set: 6-31G*
  Basis Set:
  Basis Set: 6-31G*
  Basis Set:
  @DF-RHF Final Energy:  -344.58163788102627
    Total Energy =                       -344.5816378810260403
  Basis Set: 6-31G*
  Basis Set:
  Basis Set: 6-31G*
  Basis Set:
  @DF-RHF Final Energy:  -344.58164785248039
    Total Energy =                       -344.5816478524805007
  Basis Set: 6-31G*
  Basis Set:
  Basis Set: 6-31G*
  Basis Set:
  @DF-RHF Final Energy:  -344.58164897872871
    Total Energy =                       -344.5816489787289356
  Basis Set: 6-31G*
  Basis Set:
  Charge       = 0
  Multiplicity = 1
  Basis Set: 6-31G*
  Basis Set:

    Orbital Energies (a.u.)
    -----------------------

    Doubly Occupied:

       1A    -20.581278     2A    -11.291961     3A    -11.278920
       4A    -11.233127     5A    -11.231607     6A    -11.224540
       7A    -11.220834     8A    -11.220054     9A     -1.410062
      10A     -1.146145    11A     -1.020516    12A     -1.013086
      13A     -0.939606    14A     -0.831226    15A     -0.804975
      16A     -0.719305    17A     -0.664668    18A     -0.661665
      19A     -0.651674    20A     -0.615596    21A     -0.588361
      22A     -0.578397    23A     -0.526717    24A     -0.515561
      25A     -0.507026    26A     -0.479135    27A     -0.454530
      28A     -0.334605    29A     -0.307953

  @DF-RHF Final Energy:  -344.58164894830156

   => Energetics <=

    Nuclear Repulsion Energy =            348.0050578697106403
    One-Electron Energy =               -1157.0671544687688765
    Two-Electron Energy =                 464.4804476507563322
    DFT Exchange-Correlation Energy =       0.0000000000000000
    Empirical Dispersion Energy =           0.0000000000000000
    PCM Polarization Energy =               0.0000000000000000
    EFP Energy =                            0.0000000000000000
    Total Energy =                       -344.5816489483019041
    Molecular point group: c1
  Basis Set: 6-31G*
  Basis Set:

  -Total Gradient:
     Atom            X                  Y                   Z
    ------   -----------------  -----------------  -----------------
       1       -0.000004595449    -0.000011438741    -0.000006892336
       2        0.000017901043     0.000021720874    -0.000044291992
       3        0.000021689517     0.000000957364     0.000058277674
       4       -0.000031609902    -0.000006112733     0.000044198808
       5       -0.000010529528     0.000006232930    -0.000006921610
       6       -0.000004911388    -0.000029776283    -0.000113411276
       7       -0.000002814019    -0.000006382402    -0.000000003569
       8       -0.000036924622     0.000045676234     0.001596837323
       9       -0.000005304401     0.000004110976     0.000001517726
      10       -0.000052940257    -0.000410364718    -0.003133222183
      11        0.000009028443    -0.000021768105     0.000013875051
      12        0.000238292200     0.001183681438     0.003007089529
      13       -0.000134210258    -0.000776282201    -0.001444605391
      14        0.000006466717    -0.000030891090     0.000024996720
      15       -0.000002921830    -0.000002756368    -0.000014053294
      16       -0.000006616275     0.000033392827     0.000016608819

  **** Optimization is complete! (in 6 steps) ****
    Final optimized geometry and variables:
    Molecular point group: c1

    Geometry (in Angstrom), charge = 0, multiplicity = 1:

    H           -3.293561306162     0.592120996146     0.081454599761
    C           -2.243332665514     0.363436965846     0.080432475635
    C           -1.810607085966    -0.956138992100     0.113458345382
    C           -1.305576516073     1.377523810238     0.047872463123
    H           -2.528353663645    -1.756777754672     0.139712280517
    C           -0.462763564950    -1.253832417162     0.106906400957
    H           -1.624298161548     2.404647735455     0.027255014593
    C            0.053799282505     1.092479692256     0.047807370893
    H           -0.113715356839    -2.269423986600     0.130372835395
    C            0.475530900416    -0.228023941243     0.070823021638
    H            0.765189758346     1.896251661601     0.033082008422
    O            1.775783332195    -0.600456048259     0.108492081320
    C            2.739394421023     0.224885867657    -0.485514148944
    H            2.431937205452     0.536125647529    -1.478086046463
    H            3.642863471665    -0.362816300678    -0.556751991266
    H            2.941712557395     1.103370455876     0.117985064536

  Mulliken Charges: (a.u.)
   Center  Symbol    Alpha    Beta     Spin     Total
       1     H     0.40094  0.40094  0.00000  0.19812
       2     C     3.11067  3.11067  0.00000 -0.22135
       3     C     3.09302  3.09302  0.00000 -0.18603
       4     C     3.09232  3.09232  0.00000 -0.18465
       5     H     0.39868  0.39868  0.00000  0.20264
       6     C     3.12463  3.12463  0.00000 -0.24925
       7     H     0.39936  0.39936  0.00000  0.20128
       8     C     3.13837  3.13837  0.00000 -0.27674
       9     H     0.39299  0.39299  0.00000  0.21402
      10     C     2.78677  2.78677  0.00000  0.42647
      11     H     0.39748  0.39748  0.00000  0.20504
      12     O     4.32780  4.32780  0.00000 -0.65559
      13     C     3.09021  3.09021  0.00000 -0.18041
      14     H     0.41910  0.41910  0.00000  0.16180
      15     H     0.40624  0.40624  0.00000  0.18753
      16     H     0.42143  0.42143  0.00000  0.15713

   Total alpha = 29.00000, Total beta = 29.00000, Total charge =  0.00000
