                              Psi4 1.0.54 Driver

  ==> Input File <==

--------------------------------------------------------------------------
set {
	reference rhf
	basis cc-pvtz
}

set_num_threads( 4 )
memory 2 gb

molecule MOL {
0 1

H	 -3.408124	 0.224699	 1.680340
C	 -3.425806	 -0.026452	 0.610997
C	 -2.653809	 0.914422	 -0.273689
O	 -4.030196	 -0.970214	 0.235053
C	 -1.216901	 1.136108	 0.207794
H	 -2.681110	 0.534937	 -1.286892
H	 -3.186392	 1.862787	 -0.257447
C	 -0.247837	 0.040196	 -0.230469
H	 -0.872882	 2.093195	 -0.169002
H	 -1.209325	 1.218376	 1.291938
C	 1.181757	 0.280428	 0.247371
H	 -0.259600	 -0.030819	 -1.314870
H	 -0.591284	 -0.923375	 0.136958
C	 2.151032	 -0.811012	 -0.202643
H	 1.515939	 1.247397	 -0.115449
H	 1.191514	 0.341223	 1.333422
C	 3.580021	 -0.656538	 0.320835
H	 2.170545	 -0.847575	 -1.289412
H	 1.766632	 -1.772905	 0.124928
C	 4.327657	 0.562694	 -0.213579
H	 4.138806	 -1.549270	 0.057813
H	 3.561991	 -0.620783	 1.406976
H	 4.355973	 0.557257	 -1.298551
H	 3.867136	 1.491650	 0.100501
H	 5.351524	 0.571613	 0.142204

	symmetry c1
}
set optking {
	frozen_dihedral = ("
		6 3 5 8
	")
}

ee,wfn = optimize('scf', return_wfn=True)
oeprop( wfn, 'DIPOLE', 'QUADRUPOLE', 'MULLIKEN_CHARGES')
f=open( 'psi4out.xyz', 'w' )
f.write( "25  " )
f.write( str(ee) + "\n" )
f.write( MOL.save_string_xyz() )
f.close()
--------------------------------------------------------------------------

    Molecular point group: c1
  Charge       = 0
  Multiplicity = 1
  Basis Set: CC-PVTZ
  Basis Set:
  @DF-RHF Final Energy:  -387.25956748459862
    Total Energy =                       -387.2595674845980511
    Molecular point group: c1
  Basis Set: CC-PVTZ
  Basis Set:
  Basis Set: CC-PVTZ
  Basis Set:
  @DF-RHF Final Energy:  -387.25963327163413
    Total Energy =                       -387.2596332716340157
  Basis Set: CC-PVTZ
  Basis Set:
  Basis Set: CC-PVTZ
  Basis Set:
  @DF-RHF Final Energy:  -387.25940897144051
    Total Energy =                       -387.2594089714405072
  Basis Set: CC-PVTZ
  Basis Set:
  Basis Set: CC-PVTZ
  Basis Set:
  @DF-RHF Final Energy:  -387.25968440297703
    Total Energy =                       -387.2596844029773138
  Basis Set: CC-PVTZ
  Basis Set:
  Basis Set: CC-PVTZ
  Basis Set:
  @DF-RHF Final Energy:  -387.25969255162488
    Total Energy =                       -387.2596925516247666
  Basis Set: CC-PVTZ
  Basis Set:
  Basis Set: CC-PVTZ
  Basis Set:
  @DF-RHF Final Energy:  -387.25969489819568
    Total Energy =                       -387.2596948981957894
  Basis Set: CC-PVTZ
  Basis Set:
  Basis Set: CC-PVTZ
  Basis Set:
  @DF-RHF Final Energy:  -387.25969643063871
    Total Energy =                       -387.2596964306387690
  Basis Set: CC-PVTZ
  Basis Set:
  Charge       = 0
  Multiplicity = 1
  Basis Set: CC-PVTZ
  Basis Set:

    Orbital Energies (a.u.)
    -----------------------

    Doubly Occupied:

       1A    -20.551796     2A    -11.320863     3A    -11.233772
       4A    -11.232948     5A    -11.221071     6A    -11.217201
       7A    -11.215976     8A    -11.214711     9A    -11.208673
      10A     -1.406712    11A     -1.104734    12A     -1.070574
      13A     -1.014433    14A     -0.943677    15A     -0.875508
      16A     -0.817679    17A     -0.791612    18A     -0.781142
      19A     -0.669398    20A     -0.663910    21A     -0.634875
      22A     -0.625993    23A     -0.604248    24A     -0.591963
      25A     -0.577254    26A     -0.552495    27A     -0.533477
      28A     -0.527631    29A     -0.511645    30A     -0.497138
      31A     -0.490043    32A     -0.480496    33A     -0.464918
      34A     -0.459007    35A     -0.442473    36A     -0.411856

  @DF-RHF Final Energy:  -387.25969677445812

   => Energetics <=

    Nuclear Repulsion Energy =            438.9673664968865978
    One-Electron Energy =               -1394.5303242876168497
    Two-Electron Energy =                 568.3032610162722449
    DFT Exchange-Correlation Energy =       0.0000000000000000
    Empirical Dispersion Energy =           0.0000000000000000
    PCM Polarization Energy =               0.0000000000000000
    EFP Energy =                            0.0000000000000000
    Total Energy =                       -387.2596967744580070
    Molecular point group: c1
  Basis Set: CC-PVTZ
  Basis Set:

  -Total Gradient:
     Atom            X                  Y                   Z
    ------   -----------------  -----------------  -----------------
       1        0.000022891306    -0.000003138940    -0.000019093923
       2       -0.000034194328    -0.000045440521     0.000009171946
       3        0.000012974346     0.003482687894    -0.001916213743
       4        0.000004875765     0.000034224996     0.000009646463
       5       -0.000465861041    -0.001932152848     0.002542411473
       6        0.000107945314    -0.002471448014     0.001009975006
       7       -0.000008207988     0.000001518234    -0.000007566672
       8        0.000373586062     0.000926079693    -0.001636816247
       9        0.000006503326     0.000002574144    -0.000002734781
      10       -0.000004259186    -0.000002196340     0.000010894599
      11       -0.000002850206     0.000015876952    -0.000016014425
      12        0.000001603248    -0.000006475369    -0.000000580730
      13       -0.000008324937    -0.000000422760     0.000007090923
      14       -0.000006757340    -0.000006284117     0.000010464409
      15        0.000005375039     0.000013265714     0.000005852072
      16        0.000004580746    -0.000009207144    -0.000005271010
      17        0.000002782675    -0.000002590269    -0.000007036218
      18       -0.000002397395     0.000010037873     0.000004009172
      19        0.000003197688    -0.000010735946    -0.000003429101
      20       -0.000006520784     0.000000150300     0.000000008618
      21       -0.000002358805    -0.000005491617     0.000005794448
      22       -0.000002516228     0.000006156424    -0.000001868488
      23       -0.000002210373     0.000000171959     0.000000494746
      24       -0.000001000246     0.000005217076     0.000000662234
      25        0.000001143333    -0.000002377375     0.000000149229

  **** Optimization is complete! (in 8 steps) ****
    Final optimized geometry and variables:
    Molecular point group: c1

    Geometry (in Angstrom), charge = 0, multiplicity = 1:

    H           -3.385527774380     0.209666209809     1.602976203813
    C           -3.367063939580    -0.083385871406     0.544527368362
    C           -2.640654926563     0.871177185861    -0.365835910652
    O           -3.894790363686    -1.082887954719     0.198329595308
    C           -1.197394172788     1.118974426332     0.093071190574
    H           -2.673948830233     0.459408984858    -1.365895270794
    H           -3.197202802725     1.804400329938    -0.353292853197
    C           -0.232158667181     0.011909509668    -0.325062729076
    H           -0.855860895124     2.060032980484    -0.324182367056
    H           -1.174797668954     1.244527707401     1.172769119687
    C            1.195384612720     0.246886328663     0.160942261829
    H           -0.236985315952    -0.066505458426    -1.408736045310
    H           -0.587070877981    -0.945345528941     0.048066592133
    C            2.162133974558    -0.849810249010    -0.281720202847
    H            1.536478915164     1.211878451849    -0.201088230846
    H            1.199038242548     0.308885605211     1.246910404598
    C            3.587762910618    -0.703195685486     0.252899968217
    H            2.190102794123    -0.886119359262    -1.368348517279
    H            1.769811520102    -1.809586623333     0.042587000034
    C            4.345810751106     0.512407126090    -0.275079050235
    H            4.143891825233    -1.598769207622    -0.006111356166
    H            3.561343758920    -0.667769671368     1.338857545910
    H            4.381651161769     0.507815603907    -1.359844722453
    H            3.888224220692     1.443609407223     0.036674136246
    H            5.367220196326     0.515349255679     0.087823472136

  Mulliken Charges: (a.u.)
   Center  Symbol    Alpha    Beta     Spin     Total
       1     H     0.46600  0.46600  0.00000  0.06799
       2     C     2.90395  2.90395  0.00000  0.19209
       3     C     3.08864  3.08864  0.00000 -0.17728
       4     O     4.16552  4.16552  0.00000 -0.33104
       5     C     3.11517  3.11517  0.00000 -0.23034
       6     H     0.44403  0.44403  0.00000  0.11194
       7     H     0.43959  0.43959  0.00000  0.12083
       8     C     3.08823  3.08823  0.00000 -0.17646
       9     H     0.44368  0.44368  0.00000  0.11264
      10     H     0.45094  0.45094  0.00000  0.09813
      11     C     3.09296  3.09296  0.00000 -0.18593
      12     H     0.45073  0.45073  0.00000  0.09853
      13     H     0.44729  0.44729  0.00000  0.10542
      14     C     3.09566  3.09566  0.00000 -0.19132
      15     H     0.45210  0.45210  0.00000  0.09579
      16     H     0.45405  0.45405  0.00000  0.09189
      17     C     3.09062  3.09062  0.00000 -0.18125
      18     H     0.45326  0.45326  0.00000  0.09347
      19     H     0.44766  0.44766  0.00000  0.10468
      20     C     3.15269  3.15269  0.00000 -0.30539
      21     H     0.44768  0.44768  0.00000  0.10464
      22     H     0.45462  0.45462  0.00000  0.09077
      23     H     0.45464  0.45464  0.00000  0.09072
      24     H     0.45438  0.45438  0.00000  0.09124
      25     H     0.44589  0.44589  0.00000  0.10821

   Total alpha = 36.00000, Total beta = 36.00000, Total charge = -0.00000

*** Psi4 exiting successfully. Buy a developer a beer!
