                              Psi4 1.0.54 Driver

  ==> Input File <==

--------------------------------------------------------------------------
set {
	reference rhf
	basis cc-pvtz
}

set_num_threads( 4 )
memory 2 gb

molecule MOL {
0 1

O	 -1.850696	 -2.124059	 -0.801160
C	 -0.825565	 -1.667108	 -0.424131
C	 0.486167	 -2.408384	 -0.363062
O	 -0.695554	 -0.422406	 0.000602
C	 0.390112	 -3.847779	 -0.842529
H	 0.836916	 -2.356077	 0.661725
H	 1.201705	 -1.843460	 -0.950260
H	 -0.312351	 -4.411753	 -0.243617
H	 1.359062	 -4.327393	 -0.775781
H	 0.055744	 -3.894495	 -1.870266
C	 -1.852370	 0.402254	 0.000718
C	 -3.063338	 -0.501097	 -0.000437
H	 -1.831732	 1.039442	 -0.872158
H	 -1.832493	 1.038301	 0.874430
H	 -3.071944	 -1.133732	 -0.879113
H	 -3.966302	 0.097976	 -0.000483
H	 -3.072764	 -1.134834	 0.877435

	symmetry c1
}
set optking {
	frozen_dihedral = ("
		2 4 11 13
	")
}

ee,wfn = optimize('scf', return_wfn=True)
oeprop( wfn, 'DIPOLE', 'QUADRUPOLE', 'MULLIKEN_CHARGES')
f=open( 'psi4out.xyz', 'w' )
f.write( "17  " )
f.write( str(ee) + "\n" )
f.write( MOL.save_string_xyz() )
f.close()
--------------------------------------------------------------------------

    Molecular point group: c1
  Charge       = 0
  Multiplicity = 1
  Basis Set: CC-PVTZ
  Basis Set:
  @DF-RHF Final Energy:  -344.97437808710129
    Total Energy =                       -344.9743780871017407
    Molecular point group: c1
  Basis Set: CC-PVTZ
  Basis Set:
  Basis Set: CC-PVTZ
  Basis Set:
  @DF-RHF Final Energy:  -345.01571929402331
    Total Energy =                       -345.0157192940231425
  Basis Set: CC-PVTZ
  Basis Set:
  Basis Set: CC-PVTZ
  Basis Set:
  @DF-RHF Final Energy:  -345.02489328166166
    Total Energy =                       -345.0248932816617184
  Basis Set: CC-PVTZ
  Basis Set:
  Basis Set: CC-PVTZ
  Basis Set:
  @DF-RHF Final Energy:  -345.02545231927354
    Total Energy =                       -345.0254523192737679
  Basis Set: CC-PVTZ
  Basis Set:
  @DF-RHF Final Energy:  -345.02824626598573
    Total Energy =                       -345.0282462659857856
  @DF-RHF Final Energy:  -345.03010602311952
    Total Energy =                       -345.0301060231194015
  @DF-RHF Final Energy:  -345.03033836970445
    Total Energy =                       -345.0303383697042250
  Basis Set: CC-PVTZ
  Basis Set:
  @DF-RHF Final Energy:  -345.03037145525974
    Total Energy =                       -345.0303714552593988
  Basis Set: CC-PVTZ
  Basis Set:
  Basis Set: CC-PVTZ
  Basis Set:
  @DF-RHF Final Energy:  -345.03038448265255
    Total Energy =                       -345.0303844826523800
  Basis Set: CC-PVTZ
  Basis Set:
  Basis Set: CC-PVTZ
  Basis Set:
  @DF-RHF Final Energy:  -345.03038563005475
    Total Energy =                       -345.0303856300547523
  Basis Set: CC-PVTZ
  Basis Set:
  Charge       = 0
  Multiplicity = 1
  Basis Set: CC-PVTZ
  Basis Set:

    Orbital Energies (a.u.)
    -----------------------

    Doubly Occupied:

       1A    -20.590366     2A    -20.529753     3A    -11.364380
       4A    -11.288268     5A    -11.233626     6A    -11.214452
       7A    -11.212211     8A     -1.464098     9A     -1.364321
      10A     -1.068412    11A     -1.028757    12A     -0.920316
      13A     -0.858981    14A     -0.744451    15A     -0.696693
      16A     -0.682976    17A     -0.669988    18A     -0.628683
      19A     -0.606262    20A     -0.567963    21A     -0.546253
      22A     -0.530722    23A     -0.522228    24A     -0.517673
      25A     -0.494490    26A     -0.492738    27A     -0.448483
      28A     -0.431224

  @DF-RHF Final Energy:  -345.03038578709942

   => Energetics <=

    Nuclear Repulsion Energy =            319.3349651215525569
    One-Electron Energy =               -1103.2931690423313285
    Two-Electron Energy =                 438.9278181336790112
    DFT Exchange-Correlation Energy =       0.0000000000000000
    Empirical Dispersion Energy =           0.0000000000000000
    PCM Polarization Energy =               0.0000000000000000
    EFP Energy =                            0.0000000000000000
    Total Energy =                       -345.0303857870997035
    Molecular point group: c1
  Basis Set: CC-PVTZ
  Basis Set:

  -Total Gradient:
     Atom            X                  Y                   Z
    ------   -----------------  -----------------  -----------------
       1        0.000018110825     0.000004893777    -0.000007999635
       2       -0.001237956631    -0.002191565327     0.004357336083
       3       -0.000002341469    -0.000007047938     0.000015653156
       4        0.002272194616     0.004156249122    -0.005914665602
       5        0.000001038286    -0.000001322735    -0.000005562295
       6        0.000005461838     0.000005853423    -0.000013340902
       7       -0.000007710905    -0.000003286077    -0.000009154576
       8        0.000004951840     0.000004736751    -0.000001401754
       9        0.000000106067    -0.000003102588     0.000000767129
      10       -0.000002754971     0.000001541988     0.000010427569
      11       -0.002792878853    -0.005594653678    -0.001787938058
      12       -0.000010757867    -0.000030705448    -0.000004008504
      13        0.001776889463     0.003634221886     0.003359003384
      14       -0.000020575451     0.000002114535    -0.000007610223
      15       -0.000006210840     0.000010724578     0.000011888715
      16        0.000007459210     0.000009426185     0.000003835287
      17       -0.000005025156     0.000001921544    -0.000007229773

  **** Optimization is complete! (in 11 steps) ****
    Final optimized geometry and variables:
    Molecular point group: c1

    Geometry (in Angstrom), charge = 0, multiplicity = 1:

    O           -0.402120123702    -0.762765996900    -0.847915110071
    C            0.322655704213    -0.162213206155    -0.130808561182
    C            1.688137592358    -0.640737850084     0.301947713581
    O            0.066072116661     1.025777527519     0.384569530206
    C            2.092658403224    -1.964827186553    -0.325599766210
    H            1.675051296662    -0.706351272475     1.384556155702
    H            2.396411174143     0.143899416028     0.061731616329
    H            1.392465210404    -2.748163484863    -0.068547200987
    H            3.076007653336    -2.256491845116     0.023026201700
    H            2.120916293854    -1.892123835014    -1.404685767575
    C           -1.202482252354     1.678423475438     0.343843420333
    C           -2.450020061390     0.818192299334     0.287634236174
    H           -1.169026176228     2.404084132794    -0.458708842459
    H           -1.211654317132     2.245429905978     1.264222887446
    H           -2.585957059701     0.337309299606    -0.665430780821
    H           -3.295719496912     1.470016790713     0.480080663261
    H           -2.434545927386     0.056892090817     1.057625454888

  Mulliken Charges: (a.u.)
   Center  Symbol    Alpha    Beta     Spin     Total
       1     O     4.19858  4.19858  0.00000 -0.39717
       2     C     2.80342  2.80342  0.00000  0.39315
       3     C     3.09311  3.09311  0.00000 -0.18621
       4     O     4.15459  4.15459  0.00000 -0.30918
       5     C     3.13992  3.13992  0.00000 -0.27983
       6     H     0.44369  0.44369  0.00000  0.11263
       7     H     0.44061  0.44061  0.00000  0.11879
       8     H     0.44855  0.44855  0.00000  0.10289
       9     H     0.45089  0.45089  0.00000  0.09822
      10     H     0.44902  0.44902  0.00000  0.10196
      11     C     2.98314  2.98314  0.00000  0.03373
      12     C     3.15300  3.15300  0.00000 -0.30601
      13     H     0.45496  0.45496  0.00000  0.09008
      14     H     0.45051  0.45051  0.00000  0.09897
      15     H     0.43387  0.43387  0.00000  0.13225
      16     H     0.45124  0.45124  0.00000  0.09751
      17     H     0.45089  0.45089  0.00000  0.09822

   Total alpha = 28.00000, Total beta = 28.00000, Total charge =  0.00000

*** Psi4 exiting successfully. Buy a developer a beer!
