  ==> Input File <==

--------------------------------------------------------------------------
set {
	reference rhf
	basis cc-pvtz
}

set_num_threads( 4 )
memory 2 gb

molecule MOL {
0 1

H	 -3.642953	 0.223825	 0.000000
C	 -2.571844	 0.155001	 0.000000
C	 -1.957580	 -1.086132	 0.000000
C	 -1.807160	 1.303787	 0.000000
H	 -2.551493	 -1.979629	 0.000000
C	 -0.582719	 -1.174294	 0.000000
H	 -2.279934	 2.266806	 0.000000
C	 -0.427220	 1.213406	 0.000000
H	 -0.094904	 -2.127556	 0.000000
C	 0.196908	 -0.024061	 0.000000
H	 0.151409	 2.115254	 0.000000
C	 1.690041	 -0.173233	 0.000000
C	 2.550156	 1.048337	 -0.229406
O	 2.190763	 -1.237641	 0.177977
H	 2.334067	 1.494305	 -1.192940
H	 3.585765	 0.749883	 -0.195194
H	 2.364296	 1.796880	 0.531593

	symmetry c1
}
set optking {
	frozen_dihedral = ("
		13 12 10 8
	")
}

ee = optimize('scf')
oeprop('DIPOLE', 'QUADRUPOLE', 'MULLIKEN_CHARGES')
f=open( 'psi4out.xyz', 'w' )
f.write( "17  " )
f.write( str(ee) + "\n" )
f.write( MOL.save_string_xyz() )
f.close()
--------------------------------------------------------------------------

    Molecular point group: c1
  Charge       = 0
  Multiplicity = 1
  Basis Set: CC-PVTZ
  Basis Set:
  @DF-RHF Final Energy:  -382.60555851345634
    Total Energy =                       -382.6055585134556623
    Molecular point group: c1
  Basis Set: CC-PVTZ
  Basis Set:
  Basis Set: CC-PVTZ
  Basis Set:
  @DF-RHF Final Energy:  -382.60449230414264
    Total Energy =                       -382.6044923041430366
  Basis Set: CC-PVTZ
  Basis Set:
  Basis Set: CC-PVTZ
  Basis Set:
  @DF-RHF Final Energy:  -382.60562697498398
    Total Energy =                       -382.6056269749841476
  Basis Set: CC-PVTZ
  Basis Set:
  Basis Set: CC-PVTZ
  Basis Set:
  @DF-RHF Final Energy:  -382.60564228389018
    Total Energy =                       -382.6056422838901199
  Basis Set: CC-PVTZ
  Basis Set:
  Basis Set: CC-PVTZ
  Basis Set:
  @DF-RHF Final Energy:  -382.60564413584405
    Total Energy =                       -382.6056441358437041
  Basis Set: CC-PVTZ
  Basis Set:
  Charge       = 0
  Multiplicity = 1
  Basis Set: CC-PVTZ
  Basis Set:

    Orbital Energies (a.u.)
    -----------------------

    Doubly Occupied:

       1A    -20.540502     2A    -11.327808     3A    -11.246889
       4A    -11.244400     5A    -11.242623     6A    -11.238989
       7A    -11.238897     8A    -11.236627     9A    -11.228894
      10A     -1.401951    11A     -1.171184    12A     -1.053433
      13A     -1.030712    14A     -0.998820    15A     -0.864581
      16A     -0.838902    17A     -0.763567    18A     -0.713362
      19A     -0.658671    20A     -0.651979    21A     -0.628674
      22A     -0.610571    23A     -0.602520    24A     -0.600735
      25A     -0.555356    26A     -0.529449    27A     -0.521879
      28A     -0.503663    29A     -0.497728    30A     -0.414429
      31A     -0.350967    32A     -0.346792

  @DF-RHF Final Energy:  -382.60564459264174

   => Energetics <=

    Nuclear Repulsion Energy =            404.4925882802069736
    One-Electron Energy =               -1320.4853620539006442
    Two-Electron Energy =                 533.3871291810519324
    DFT Exchange-Correlation Energy =       0.0000000000000000
    Empirical Dispersion Energy =           0.0000000000000000
    PCM Polarization Energy =               0.0000000000000000
    EFP Energy =                            0.0000000000000000
    Total Energy =                       -382.6056445926417382
    Molecular point group: c1
  Basis Set: CC-PVTZ
  Basis Set:

  -Total Gradient:
     Atom            X                  Y                   Z
    ------   -----------------  -----------------  -----------------
       1        0.000000165161    -0.000000841019    -0.000002984868
       2        0.000003501630     0.000007928150     0.000017734291
       3        0.000005358359    -0.000002944141     0.000000089085
       4       -0.000011462840    -0.000001383308    -0.000012144945
       5       -0.000000949534     0.000000949450     0.000000696298
       6       -0.000004963460     0.000002966352    -0.000021414324
       7       -0.000001053715    -0.000000889797    -0.000000630588
       8       -0.000004959788     0.000005830937     0.000942844476
       9        0.000000815150    -0.000000678237     0.000011100081
      10        0.000007740959    -0.000067793405    -0.001795980026
      11       -0.000007100761    -0.000005979467     0.000007248300
      12        0.000022935411     0.000182677628     0.001651423420
      13        0.000000442536    -0.000145159702    -0.000798446156
      14       -0.000011526112     0.000025853138     0.000008728203
      15        0.000002535093    -0.000005666802    -0.000002837154
      16        0.000001690338     0.000004908923    -0.000004248789
      17       -0.000003168421     0.000000221299    -0.000001177304

  **** Optimization is complete! (in 6 steps) ****
    Final optimized geometry and variables:
    Molecular point group: c1

    Geometry (in Angstrom), charge = 0, multiplicity = 1:

    H           -3.642710071976     0.223948476008     0.008658864388
    C           -2.571558773139     0.155333177069     0.006308626811
    C           -1.957169208396    -1.085845879145     0.013593043861
    C           -1.806918264280     1.304051106750    -0.003185065907
    H           -2.551123013959    -1.979330543096     0.021413974329
    C           -0.582285384820    -1.173928456418     0.014267719520
    H           -2.279561103670     2.267190239058    -0.005523139092
    C           -0.426838547609     1.213752196719    -0.010070094633
    H           -0.094583632724    -2.127279561503     0.027901722066
    C            0.196930159898    -0.023607076779    -0.002543876637
    H            0.152103797703     2.115535935921    -0.019121575081
    C            1.690295493460    -0.172225436867     0.012465977647
    C            2.550174006474     1.050945386159    -0.209938671077
    O            2.189536671094    -1.238438169185     0.181744754166
    H            2.288226933793     1.541223758742    -1.139671555796
    H            3.583606754489     0.743976168643    -0.238124468233
    H            2.412067141214     1.766133260848     0.592585924047

  Mulliken Charges: (a.u.)
   Center  Symbol    Alpha    Beta     Spin     Total
       1     H     0.42023  0.42023  0.00000  0.15955
       2     C     3.07252  3.07252  0.00000 -0.14504
       3     C     3.07439  3.07439  0.00000 -0.14878
       4     C     3.07735  3.07735  0.00000 -0.15470
       5     H     0.42028  0.42028  0.00000  0.15945
       6     C     3.07461  3.07461  0.00000 -0.14922
       7     H     0.42234  0.42234  0.00000  0.15531
       8     C     3.08648  3.08648  0.00000 -0.17296
       9     H     0.40718  0.40718  0.00000  0.18563
      10     C     3.01162  3.01162  0.00000 -0.02323
      11     H     0.42149  0.42149  0.00000  0.15702
      12     C     2.83456  2.83456  0.00000  0.33088
      13     C     3.16718  3.16718  0.00000 -0.33435
      14     O     4.18355  4.18355  0.00000 -0.36711
      15     H     0.44618  0.44618  0.00000  0.10764
      16     H     0.43187  0.43187  0.00000  0.13626
      17     H     0.44818  0.44818  0.00000  0.10364

   Total alpha = 32.00000, Total beta = 32.00000, Total charge = -0.00000
