  ==> Input File <==

--------------------------------------------------------------------------
set {
	reference rhf
	basis 6-31G*
}

set_num_threads( 4 )
memory 2 gb

molecule MOL {
0 1

H	 0.488216	 1.425643	 -1.874552
C	 0.632268	 1.724694	 -0.829268
C	 0.692068	 0.589600	 0.160137
O	 0.729169	 2.874565	 -0.545478
C	 -0.558097	 -0.297372	 0.091132
H	 0.825190	 1.008803	 1.150606
H	 1.572005	 -0.008624	 -0.073681
C	 -1.850991	 0.512573	 -0.019058
H	 -0.476753	 -0.965681	 -0.762987
H	 -0.604799	 -0.930658	 0.975228
C	 -3.096943	 -0.368295	 -0.099594
H	 -1.800724	 1.150330	 -0.898172
H	 -1.931651	 1.177355	 0.838044
H	 -3.060452	 -1.020287	 -0.967456
H	 -3.996858	 0.233488	 -0.175704
H	 -3.191959	 -0.995686	 0.782074

	symmetry c1
}
set optking {
	frozen_dihedral = ("
		6 3 5 9
	")
}

ee = optimize('scf')
oeprop('DIPOLE', 'QUADRUPOLE', 'MULLIKEN_CHARGES')
f=open( 'psi4out.xyz', 'w' )
f.write( "16  " )
f.write( str(ee) + "\n" )
f.write( MOL.save_string_xyz() )
f.close()
--------------------------------------------------------------------------

    Molecular point group: c1
  Charge       = 0
  Multiplicity = 1
  Basis Set: 6-31G*
  Basis Set:
  @DF-RHF Final Energy:  -270.01669166665471
    Total Energy =                       -270.0166916666547081
    Molecular point group: c1
  Basis Set: 6-31G*
  Basis Set:
  Basis Set: 6-31G*
  Basis Set:
  @DF-RHF Final Energy:  -270.01762595538969
    Total Energy =                       -270.0176259553895761
  Basis Set: 6-31G*
  Basis Set:
  Basis Set: 6-31G*
  Basis Set:
  @DF-RHF Final Energy:  -270.01758210644982
    Total Energy =                       -270.0175821064496517
  Basis Set: 6-31G*
  Basis Set:
  Basis Set: 6-31G*
  Basis Set:
  @DF-RHF Final Energy:  -270.01779678134585
    Total Energy =                       -270.0177967813455098
  Basis Set: 6-31G*
  Basis Set:
  @DF-RHF Final Energy:  -270.01782184396029
    Total Energy =                       -270.0178218439601210
  @DF-RHF Final Energy:  -270.01783098868628
    Total Energy =                       -270.0178309886861143
  Basis Set: 6-31G*
  Basis Set:
  @DF-RHF Final Energy:  -270.01784803307851
    Total Energy =                       -270.0178480330784510
  Basis Set: 6-31G*
  Basis Set:
  Basis Set: 6-31G*
  Basis Set:
  @DF-RHF Final Energy:  -270.01785076948954
    Total Energy =                       -270.0178507694894279
  Basis Set: 6-31G*
  Basis Set:
  Basis Set: 6-31G*
  Basis Set:
  @DF-RHF Final Energy:  -270.01785259584324
    Total Energy =                       -270.0178525958432942
  Basis Set: 6-31G*
  Basis Set:
  Charge       = 0
  Multiplicity = 1
  Basis Set: 6-31G*
  Basis Set:

    Orbital Energies (a.u.)
    -----------------------

    Doubly Occupied:

       1A    -20.561884     2A    -11.326503     3A    -11.236170
       4A    -11.235252     5A    -11.227987     6A    -11.217864
       7A     -1.401846     8A     -1.095410     9A     -1.016895
      10A     -0.904954    11A     -0.826418    12A     -0.782931
      13A     -0.666608    14A     -0.652538    15A     -0.621116
      16A     -0.607284    17A     -0.588703    18A     -0.550827
      19A     -0.524076    20A     -0.514395    21A     -0.491762
      22A     -0.478533    23A     -0.468212    24A     -0.409488

  @DF-RHF Final Energy:  -270.01785205030086

   => Energetics <=

    Nuclear Repulsion Energy =            233.6957515423516725
    One-Electron Energy =                -828.6118967107393019
    Two-Electron Energy =                 324.8982931180868832
    DFT Exchange-Correlation Energy =       0.0000000000000000
    Empirical Dispersion Energy =           0.0000000000000000
    PCM Polarization Energy =               0.0000000000000000
    EFP Energy =                            0.0000000000000000
    Total Energy =                       -270.0178520503007462
    Molecular point group: c1
  Basis Set: 6-31G*
  Basis Set:

  -Total Gradient:
     Atom            X                  Y                   Z
    ------   -----------------  -----------------  -----------------
       1       -0.000005083714    -0.000002718902    -0.000001911905
       2        0.000006325261     0.000062951304    -0.000025284110
       3       -0.002340368524     0.003526190524    -0.000586511916
       4       -0.000078199167    -0.000038649999     0.000006291990
       5       -0.001867648175     0.002777042566    -0.003362765617
       6        0.002266872626    -0.003433787187     0.001132356138
       7        0.000014755705     0.000011672920    -0.000111360238
       8        0.000104860181     0.000204963612     0.000012743711
       9        0.001967132740    -0.003050036300     0.002608457992
      10        0.000056834016    -0.000080221744     0.000271861152
      11       -0.000014328579     0.000018335414    -0.000025149067
      12       -0.000033692360     0.000034486052     0.000028289584
      13       -0.000046569270     0.000004512188     0.000017285378
      14       -0.000015705500    -0.000003519438     0.000013680257
      15       -0.000011806477    -0.000011536611     0.000015458994
      16       -0.000003378765    -0.000019684402     0.000006557659

  **** Optimization is complete! (in 10 steps) ****
    Final optimized geometry and variables:
    Molecular point group: c1

    Geometry (in Angstrom), charge = 0, multiplicity = 1:

    H            1.193719450824     0.577633033523    -1.666020310427
    C            1.297660673730     0.884813557029    -0.618208214079
    C            1.234354207921    -0.236889340179     0.384557018390
    O            1.458795024605     2.029996967549    -0.344937536416
    C           -0.019760930758    -1.118071742022     0.247957681492
    H            1.328349672375     0.167091530367     1.385613541144
    H            2.112853046478    -0.859560738847     0.216178447889
    C           -1.337143768401    -0.341791219504     0.184950253804
    H            0.084540460196    -1.778323459459    -0.610200403131
    H           -0.043264796438    -1.780222948841     1.110192291043
    C           -2.557782668451    -1.260505988852     0.156816539608
    H           -1.353040121023     0.298650194342    -0.693819724780
    H           -1.400288976210     0.322282253335     1.043611186372
    H           -2.534947556108    -1.917459501258    -0.708021669889
    H           -3.477741008599    -0.686796915731     0.112287538033
    H           -2.599071417484    -1.884574056372     1.044884587231

  Mulliken Charges: (a.u.)
   Center  Symbol    Alpha    Beta     Spin     Total
       1     H     0.43216  0.43216  0.00000  0.13568
       2     C     2.83091  2.83091  0.00000  0.33818
       3     C     3.20925  3.20925  0.00000 -0.41849
       4     O     4.23811  4.23811  0.00000 -0.47622
       5     C     3.16281  3.16281  0.00000 -0.32562
       6     H     0.39958  0.39958  0.00000  0.20084
       7     H     0.40750  0.40750  0.00000  0.18501
       8     C     3.15781  3.15781  0.00000 -0.31562
       9     H     0.41851  0.41851  0.00000  0.16297
      10     H     0.41319  0.41319  0.00000  0.17362
      11     C     3.24024  3.24024  0.00000 -0.48047
      12     H     0.41900  0.41900  0.00000  0.16199
      13     H     0.41472  0.41472  0.00000  0.17056
      14     H     0.42071  0.42071  0.00000  0.15857
      15     H     0.41547  0.41547  0.00000  0.16906
      16     H     0.42003  0.42003  0.00000  0.15994

   Total alpha = 24.00000, Total beta = 24.00000, Total charge =  0.00000
