  ==> Input File <==

--------------------------------------------------------------------------
set {
	reference rhf
	basis 6-31G*
}

set_num_threads( 4 )
memory 2 gb

molecule MOL {
0 1

H	 2.332609	 0.878551	 -1.051851
C	 2.357710	 0.000000	 -0.417167
C	 1.175432	 0.000000	 0.532082
H	 3.291263	 0.000000	 0.136880
H	 2.332609	 -0.878551	 -1.051851
O	 0.000000	 0.000000	 -0.221444
H	 1.206604	 0.877321	 1.177902
H	 1.206604	 -0.877321	 1.177902
C	 -1.175432	 0.000000	 0.532082
C	 -2.315393	 0.468223	 -0.351157
H	 -1.067863	 0.657809	 1.394325
H	 -1.376371	 -1.001105	 0.913080
H	 -2.120488	 1.468504	 -0.720963
H	 -3.247845	 0.480406	 0.204607
H	 -2.429429	 -0.192736	 -1.202882

	symmetry c1
}
set optking {
	frozen_dihedral = ("
		11 9 6 3
	")
}

ee = optimize('scf')
oeprop('DIPOLE', 'QUADRUPOLE', 'MULLIKEN_CHARGES')
f=open( 'psi4out.xyz', 'w' )
f.write( "15  " )
f.write( str(ee) + "\n" )
f.write( MOL.save_string_xyz() )
f.close()
--------------------------------------------------------------------------

    Molecular point group: c1
  Charge       = 0
  Multiplicity = 1
  Basis Set: 6-31G*
  Basis Set:
  @DF-RHF Final Energy:  -232.14386305636313
    Total Energy =                       -232.1438630563629317
    Molecular point group: c1
  Basis Set: 6-31G*
  Basis Set:
  Basis Set: 6-31G*
  Basis Set:
  @DF-RHF Final Energy:  -232.14390771196406
    Total Energy =                       -232.1439077119640615
  Basis Set: 6-31G*
  Basis Set:
  Basis Set: 6-31G*
  Basis Set:
  @DF-RHF Final Energy:  -232.14392195564176
    Total Energy =                       -232.1439219556417015
  Basis Set: 6-31G*
  Basis Set:
  Charge       = 0
  Multiplicity = 1
  Basis Set: 6-31G*
  Basis Set:

    Orbital Energies (a.u.)
    -----------------------

    Doubly Occupied:

       1A    -20.550493     2A    -11.268311     3A    -11.267984
       4A    -11.209007     5A    -11.208793     6A     -1.376751
       7A     -1.043872     8A     -0.982457     9A     -0.846670
      10A     -0.826352    11A     -0.675846    12A     -0.667067
      13A     -0.611628    14A     -0.592599    15A     -0.549301
      16A     -0.531359    17A     -0.522756    18A     -0.494373
      19A     -0.486787    20A     -0.464959    21A     -0.409445

  @DF-RHF Final Energy:  -232.14392209326013

   => Energetics <=

    Nuclear Repulsion Energy =            191.0731475537880897
    One-Electron Energy =                -693.2605200861942194
    Two-Electron Energy =                 270.0434504391457722
    DFT Exchange-Correlation Energy =       0.0000000000000000
    Empirical Dispersion Energy =           0.0000000000000000
    PCM Polarization Energy =               0.0000000000000000
    EFP Energy =                            0.0000000000000000
    Total Energy =                       -232.1439220932603575
    Molecular point group: c1
  Basis Set: 6-31G*
  Basis Set:

  -Total Gradient:
     Atom            X                  Y                   Z
    ------   -----------------  -----------------  -----------------
       1        0.000001391232    -0.000002329811    -0.000001093569
       2        0.000012045493     0.000010599476     0.000007917472
       3        0.000010406705     0.001940596486     0.000010383907
       4        0.000014921940     0.000001666799    -0.000003618940
       5       -0.000007607995     0.000003922410     0.000009812391
       6        0.000183588552    -0.003303926459     0.000322536899
       7       -0.000002824621    -0.000003827936    -0.000006641826
       8       -0.000000776584     0.000002714229     0.000003044679
       9       -0.001035935271     0.003241467108    -0.001655670636
      10       -0.000000421564    -0.000009772029    -0.000002195492
      11        0.000822653204    -0.001868528354     0.001309859755
      12       -0.000003422547    -0.000004410835    -0.000008486708
      13        0.000008557588    -0.000008471134     0.000008461346
      14       -0.000002441279    -0.000002278776     0.000004837618
      15       -0.000000134854     0.000002578825     0.000000853104

  **** Optimization is complete! (in 4 steps) ****
    Final optimized geometry and variables:
    Molecular point group: c1

    Geometry (in Angstrom), charge = 0, multiplicity = 1:

    H            2.328099871664     0.768659942251    -1.071658170752
    C            2.350912794908    -0.106715745118    -0.432398517740
    C            1.170991781417    -0.095402133651     0.519678103795
    H            3.286058215228    -0.108280960123     0.119186525960
    H            2.320015123898    -0.988444851854    -1.062397801287
    O           -0.006243643298    -0.083765079139    -0.231396466695
    H            1.210301099650     0.782221660008     1.163993739009
    H            1.198312680789    -0.972291611982     1.166543522002
    C           -1.186473579305    -0.088195668877     0.517437699350
    C           -2.330121875584     0.368771463608    -0.366249204202
    H           -1.083962869608     0.558887636091     1.387485515381
    H           -1.377616012595    -1.091892339299     0.896935536722
    H           -2.156990652970     1.379576547486    -0.718079582890
    H           -3.267666363989     0.347226597831     0.180878874941
    H           -2.420674741417    -0.280434991900    -1.229856901770

  Mulliken Charges: (a.u.)
   Center  Symbol    Alpha    Beta     Spin     Total
       1     H     0.41343  0.41343  0.00000  0.17314
       2     C     3.24432  3.24432  0.00000 -0.48863
       3     C     2.98772  2.98772  0.00000  0.02456
       4     H     0.42258  0.42258  0.00000  0.15484
       5     H     0.41339  0.41339  0.00000  0.17323
       6     O     4.30969  4.30969  0.00000 -0.61938
       7     H     0.43168  0.43168  0.00000  0.13664
       8     H     0.43270  0.43270  0.00000  0.13460
       9     C     2.98709  2.98709  0.00000  0.02583
      10     C     3.24387  3.24387  0.00000 -0.48773
      11     H     0.43289  0.43289  0.00000  0.13422
      12     H     0.43067  0.43067  0.00000  0.13867
      13     H     0.41470  0.41470  0.00000  0.17060
      14     H     0.42273  0.42273  0.00000  0.15455
      15     H     0.41255  0.41255  0.00000  0.17489

   Total alpha = 21.00000, Total beta = 21.00000, Total charge = -0.00000
