  ==> Input File <==

--------------------------------------------------------------------------
set {
	reference rhf
	basis 6-31G*
}

set_num_threads( 1 )
memory 2 gb

molecule MOL {
0 1

H	 2.591676	 2.013956	 0.335017
O	 3.341076	 1.666752	 -0.126416
C	 3.569581	 0.339145	 0.272707
C	 2.539767	 -0.640285	 -0.279495
H	 4.553106	 0.084646	 -0.100901
H	 3.608576	 0.269204	 1.359154
C	 3.027449	 -2.090060	 -0.335964
H	 1.643760	 -0.580220	 0.332820
H	 2.262774	 -0.312668	 -1.280149
C	 1.991422	 -3.039156	 -0.944800
H	 3.277854	 -2.421918	 0.667796
H	 3.945674	 -2.140665	 -0.921321
C	 2.461731	 -4.489664	 -1.103470
H	 1.087230	 -3.018261	 -0.339120
H	 1.708281	 -2.659984	 -1.924474
C	 2.714413	 -5.232698	 0.211266
H	 1.708133	 -5.033244	 -1.669532
H	 3.366617	 -4.509892	 -1.708952
C	 3.078950	 -6.704261	 0.003780
H	 1.824978	 -5.168666	 0.836499
H	 3.513315	 -4.748203	 0.767435
C	 3.337968	 -7.446686	 1.314269
H	 2.277516	 -7.200446	 -0.539351
H	 3.961792	 -6.770501	 -0.628745
H	 2.461679	 -7.426534	 1.956090
H	 3.591763	 -8.486759	 1.134074
H	 4.159591	 -6.996675	 1.864532

	symmetry c1
}
set optking {
	frozen_dihedral = ("
		14 10 7 4,
		14 10 13 16,
		10 7 4 8,
		10 13 16 20,
		20 16 19 22,
		4 3 2 1
	")
}

ee = energy('scf')
oeprop('DIPOLE', 'QUADRUPOLE', 'MULLIKEN_CHARGES')
f=open( 'psi4out.xyz', 'w' )
f.write( "27  " )
f.write( str(ee) + "\n" )
f.write( MOL.save_string_xyz() )
f.close()
--------------------------------------------------------------------------

    Molecular point group: c1

    Geometry (in Angstrom), charge = 0, multiplicity = 1:

       Center              X                  Y                   Z               Mass
    ------------   -----------------  -----------------  -----------------  -----------------
           H         -0.313315165984     5.015442305552     0.428922951067     1.007825032070
           O          0.436084834016     4.668238305552    -0.032510048933    15.994914619560
           C          0.664589834016     3.340631305552     0.366612951067    12.000000000000
           C         -0.365224165984     2.361201305552    -0.185589048933    12.000000000000
           H          1.648114834016     3.086132305552    -0.006995048933     1.007825032070
           H          0.703584834016     3.270690305552     1.453059951067     1.007825032070
           C          0.122457834016     0.911426305552    -0.242058048933    12.000000000000
           H         -1.261231165984     2.421266305552     0.426725951067     1.007825032070
           H         -0.642217165984     2.688818305552    -1.186243048933     1.007825032070
           C         -0.913569165984    -0.037669694448    -0.850894048933    12.000000000000
           H          0.372862834016     0.579568305552     0.761701951067     1.007825032070
           H          1.040682834016     0.860821305552    -0.827415048933     1.007825032070
           C         -0.443260165984    -1.488177694448    -1.009564048933    12.000000000000
           H         -1.817761165984    -0.016774694448    -0.245214048933     1.007825032070
           H         -1.196710165984     0.341502305552    -1.830568048933     1.007825032070
           C         -0.190578165984    -2.231211694448     0.305171951067    12.000000000000
           H         -1.196858165984    -2.031757694448    -1.575626048933     1.007825032070
           H          0.461625834016    -1.508405694448    -1.615046048933     1.007825032070
           C          0.173958834016    -3.702774694448     0.097685951067    12.000000000000
           H         -1.080013165984    -2.167179694448     0.930404951067     1.007825032070
           H          0.608323834016    -1.746716694448     0.861340951067     1.007825032070
           C          0.432976834016    -4.445199694448     1.408174951067    12.000000000000
           H         -0.627475165984    -4.198959694448    -0.445445048933     1.007825032070
           H          1.056800834016    -3.769014694448    -0.534839048933     1.007825032070
           H         -0.443312165984    -4.425047694448     2.049995951067     1.007825032070
           H          0.686771834016    -5.485272694448     1.227979951067     1.007825032070
           H          1.254599834016    -3.995188694448     1.958437951067     1.007825032070

  Charge       = 0
  Multiplicity = 1
  Basis Set: 6-31G*
  Basis Set:

    Orbital Energies (a.u.)
    -----------------------

    Doubly Occupied:

       1A    -20.552354     2A    -11.266449     3A    -11.218128
       4A    -11.215805     5A    -11.215187     6A    -11.214369
       7A    -11.213920     8A    -11.213188     9A    -11.208787
      10A     -1.358710    11A     -1.094339    12A     -1.061382
      13A     -1.010903    14A     -0.945181    15A     -0.883005
      16A     -0.821993    17A     -0.803780    18A     -0.777202
      19A     -0.694994    20A     -0.646785    21A     -0.638071
      22A     -0.609264    23A     -0.605723    24A     -0.583483
      25A     -0.574517    26A     -0.554392    27A     -0.541935
      28A     -0.522756    29A     -0.508521    30A     -0.488213
      31A     -0.482309    32A     -0.475083    33A     -0.465778
      34A     -0.460159    35A     -0.456849    36A     -0.442616
      37A     -0.419847

  @DF-RHF Final Energy:  -388.28023780812617

   => Energetics <=

    Nuclear Repulsion Energy =            452.9031142757921202
    One-Electron Energy =               -1423.8747053361857979
    Two-Electron Energy =                 582.6913532522682999
    DFT Exchange-Correlation Energy =       0.0000000000000000
    Empirical Dispersion Energy =           0.0000000000000000
    PCM Polarization Energy =               0.0000000000000000
    EFP Energy =                            0.0000000000000000
    Total Energy =                       -388.2802378081253210

  Mulliken Charges: (a.u.)
   Center  Symbol    Alpha    Beta     Spin     Total
       1     H     0.28295  0.28295  0.00000  0.43410
       2     O     4.37017  4.37017  0.00000 -0.74035
       3     C     2.99086  2.99086  0.00000  0.01827
       4     C     3.16909  3.16909  0.00000 -0.33817
       5     H     0.41710  0.41710  0.00000  0.16580
       6     H     0.43131  0.43131  0.00000  0.13738
       7     C     3.16083  3.16083  0.00000 -0.32165
       8     H     0.42672  0.42672  0.00000  0.14657
       9     H     0.41291  0.41291  0.00000  0.17418
      10     C     3.15265  3.15265  0.00000 -0.30530
      11     H     0.42138  0.42138  0.00000  0.15725
      12     H     0.42145  0.42145  0.00000  0.15710
      13     C     3.15344  3.15344  0.00000 -0.30689
      14     H     0.42393  0.42393  0.00000  0.15215
      15     H     0.42057  0.42057  0.00000  0.15885
      16     C     3.15273  3.15273  0.00000 -0.30546
      17     H     0.42148  0.42148  0.00000  0.15704
      18     H     0.42343  0.42343  0.00000  0.15313
      19     C     3.15117  3.15117  0.00000 -0.30235
      20     H     0.42488  0.42488  0.00000  0.15025
      21     H     0.42242  0.42242  0.00000  0.15516
      22     C     3.23917  3.23917  0.00000 -0.47833
      23     H     0.42309  0.42309  0.00000  0.15383
      24     H     0.42289  0.42289  0.00000  0.15422
      25     H     0.42202  0.42202  0.00000  0.15596
      26     H     0.41930  0.41930  0.00000  0.16141
      27     H     0.42206  0.42206  0.00000  0.15589

   Total alpha = 37.00000, Total beta = 37.00000, Total charge =  0.00000
