  ==> Input File <==

--------------------------------------------------------------------------
set {
	reference rhf
	basis 6-31G*
}

set_num_threads( 4 )
memory 2 gb

molecule MOL {
0 1

O	 -1.680636	 -1.847119	 1.387977
C	 -0.738141	 -1.528056	 0.737096
C	 0.554499	 -2.302105	 0.636119
O	 -0.698257	 -0.426125	 0.001050
C	 0.553330	 -3.578215	 1.468290
H	 1.357041	 -1.635067	 0.936507
H	 0.724207	 -2.515743	 -0.414987
H	 0.400302	 -3.358889	 2.517977
H	 1.501073	 -4.095132	 1.361537
H	 -0.238085	 -4.247726	 1.154059
C	 -1.853104	 0.406779	 0.000512
C	 -3.066105	 -0.499277	 -0.000959
H	 -1.828410	 1.043074	 -0.873618
H	 -1.829857	 1.042383	 0.875188
H	 -3.071820	 -1.133106	 -0.880383
H	 -3.972708	 0.097145	 -0.001528
H	 -3.073405	 -1.133813	 0.877999

	symmetry c1
}
set optking {
	frozen_dihedral = ("
		2 4 11 13
	")
}

ee = optimize('scf')
oeprop('DIPOLE', 'QUADRUPOLE', 'MULLIKEN_CHARGES')
f=open( 'psi4out.xyz', 'w' )
f.write( "17  " )
f.write( str(ee) + "\n" )
f.write( MOL.save_string_xyz() )
f.close()
--------------------------------------------------------------------------

    Molecular point group: c1
  Charge       = 0
  Multiplicity = 1
  Basis Set: 6-31G*
  Basis Set:
  @DF-RHF Final Energy:  -344.87305584897422
    Total Energy =                       -344.8730558489743316
    Molecular point group: c1
  Basis Set: 6-31G*
  Basis Set:
  Basis Set: 6-31G*
  Basis Set:
  @DF-RHF Final Energy:  -344.89818545727968
    Total Energy =                       -344.8981854572799648
  Basis Set: 6-31G*
  Basis Set:
  Basis Set: 6-31G*
  Basis Set:
  @DF-RHF Final Energy:  -344.90324563187505
    Total Energy =                       -344.9032456318751088
  Basis Set: 6-31G*
  Basis Set:
  Basis Set: 6-31G*
  Basis Set:
  @DF-RHF Final Energy:  -344.90143675770111
    Total Energy =                       -344.9014367577007079
  Basis Set: 6-31G*
  Basis Set:
  @DF-RHF Final Energy:  -344.90461414949016
    Total Energy =                       -344.9046141494901576
  Basis Set: 6-31G*
  Basis Set:
  @DF-RHF Final Energy:  -344.90491141140774
    Total Energy =                       -344.9049114114077383
  Basis Set: 6-31G*
  Basis Set:
  Basis Set: 6-31G*
  Basis Set:
  @DF-RHF Final Energy:  -344.90493351713758
    Total Energy =                       -344.9049335171376924
  Basis Set: 6-31G*
  Basis Set:
  Basis Set: 6-31G*
  Basis Set:
  @DF-RHF Final Energy:  -344.90493664799715
    Total Energy =                       -344.9049366479972605
  Basis Set: 6-31G*
  Basis Set:
  Charge       = 0
  Multiplicity = 1
  Basis Set: 6-31G*
  Basis Set:

    Orbital Energies (a.u.)
    -----------------------

    Doubly Occupied:

       1A    -20.598901     2A    -20.542915     3A    -11.372240
       4A    -11.289506     5A    -11.236065     6A    -11.215717
       7A    -11.214748     8A     -1.463186     9A     -1.361940
      10A     -1.067950    11A     -1.027857    12A     -0.918181
      13A     -0.856984    14A     -0.746599    15A     -0.699280
      16A     -0.679162    17A     -0.664203    18A     -0.628868
      19A     -0.607152    20A     -0.566073    21A     -0.545387
      22A     -0.527877    23A     -0.521192    24A     -0.517220
      25A     -0.493819    26A     -0.491211    27A     -0.449391
      28A     -0.429764

  @DF-RHF Final Energy:  -344.90493743390431

   => Energetics <=

    Nuclear Repulsion Energy =            319.3718230454061882
    One-Electron Energy =               -1103.0867477116948976
    Two-Electron Energy =                 438.8099872323845148
    DFT Exchange-Correlation Energy =       0.0000000000000000
    Empirical Dispersion Energy =           0.0000000000000000
    PCM Polarization Energy =               0.0000000000000000
    EFP Energy =                            0.0000000000000000
    Total Energy =                       -344.9049374339041378
    Molecular point group: c1
  Basis Set: 6-31G*
  Basis Set:

  -Total Gradient:
     Atom            X                  Y                   Z
    ------   -----------------  -----------------  -----------------
       1        0.000036597395    -0.000005488005    -0.000002554918
       2       -0.001772534344    -0.003099999350    -0.004925303782
       3       -0.000014499944    -0.000044529720    -0.000072757301
       4        0.002220363855     0.003926091228     0.006865939710
       5       -0.000008257401     0.000016630324     0.000020416600
       6       -0.000002336848     0.000021083280     0.000021909137
       7        0.000016589759     0.000016537470     0.000003238859
       8       -0.000001792288    -0.000005481725     0.000004323370
       9       -0.000009161580     0.000012874891    -0.000009781859
      10       -0.000005878671    -0.000016289042     0.000000338384
      11        0.002468860466     0.003640110714     0.001762798470
      12        0.000002331915     0.000013720057    -0.000013207304
      13       -0.002899390504    -0.004530001675    -0.003655331252
      14        0.000018812716     0.000003459680    -0.000010284038
      15        0.000004133710     0.000031986567     0.000023698628
      16       -0.000031215701     0.000015331056    -0.000012266109
      17       -0.000022622532     0.000003964250    -0.000001176596

  **** Optimization is complete! (in 9 steps) ****
    Final optimized geometry and variables:
    Molecular point group: c1

    Geometry (in Angstrom), charge = 0, multiplicity = 1:

    O           -0.562279323543    -0.507638164129     0.964452611350
    C            0.288181354048    -0.163469159561     0.208597049882
    C            1.563135295828    -0.929066430297    -0.060684785247
    O            0.261127044217     0.959605751223    -0.493547159940
    C            1.690056529210    -2.194022401954     0.778691060531
    H            2.393311127488    -0.251981874168     0.115331682849
    H            1.586318366232    -1.156304182482    -1.122537332757
    H            1.685050204390    -1.961956076796     1.836844920089
    H            2.617796310015    -2.705756532077     0.545568244322
    H            0.868035086977    -2.873030986024     0.587751512739
    C           -0.905828106139     1.777085112014    -0.591061558792
    C           -2.219852496220     1.037440163259    -0.805888212280
    H           -0.716804107809     2.364963292280    -1.477453119402
    H           -0.950696462082     2.422346777020     0.275996336682
    H           -2.126279981215     0.325561498502    -1.619811514671
    H           -2.971637287730     1.768294295932    -1.090259605625
    H           -2.555168338700     0.515222884765     0.075292187621

  Mulliken Charges: (a.u.)
   Center  Symbol    Alpha    Beta     Spin     Total
       1     O     4.28656  4.28656  0.00000 -0.57313
       2     C     2.60290  2.60290  0.00000  0.79420
       3     C     3.20466  3.20466  0.00000 -0.40931
       4     O     4.31978  4.31978  0.00000 -0.63956
       5     C     3.23869  3.23869  0.00000 -0.47737
       6     H     0.40034  0.40034  0.00000  0.19931
       7     H     0.40211  0.40211  0.00000  0.19578
       8     H     0.41046  0.41046  0.00000  0.17908
       9     H     0.41857  0.41857  0.00000  0.16287
      10     H     0.41017  0.41017  0.00000  0.17966
      11     C     2.99406  2.99406  0.00000  0.01189
      12     C     3.26355  3.26355  0.00000 -0.52711
      13     H     0.41017  0.41017  0.00000  0.17966
      14     H     0.41208  0.41208  0.00000  0.17584
      15     H     0.41670  0.41670  0.00000  0.16659
      16     H     0.41898  0.41898  0.00000  0.16203
      17     H     0.39022  0.39022  0.00000  0.21956

   Total alpha = 28.00000, Total beta = 28.00000, Total charge = -0.00000
