  ==> Input File <==

--------------------------------------------------------------------------
set {
	reference rhf
	basis 6-31G*
}

set_num_threads( 4 )
memory 2 gb

molecule MOL {
0 1

H	 -3.420663	 1.227371	 -1.044276
O	 -3.452007	 0.283848	 -0.965577
C	 -3.181085	 -0.079926	 0.364119
C	 -1.765924	 0.277073	 0.805136
H	 -3.327791	 -1.152017	 0.410903
H	 -3.905698	 0.375695	 1.036898
C	 -0.677594	 -0.417312	 -0.014550
H	 -1.637766	 1.358238	 0.744969
H	 -1.659588	 0.017670	 1.857098
C	 -0.028044	 0.502006	 -1.050947
H	 -1.103014	 -1.284877	 -0.509584
H	 0.087321	 -0.796301	 0.661220
C	 1.064374	 -0.198407	 -1.863431
H	 -0.798282	 0.884645	 -1.716332
H	 0.399652	 1.368831	 -0.548656
C	 1.806260	 0.705832	 -2.854447
H	 0.629061	 -1.038846	 -2.401818
H	 1.791045	 -0.624281	 -1.174666
C	 0.942946	 1.235847	 -4.000823
H	 2.637895	 0.145837	 -3.275253
H	 2.246566	 1.543334	 -2.316930
H	 0.479116	 0.420118	 -4.549080
H	 1.542990	 1.805811	 -4.703621
H	 0.151788	 1.888025	 -3.646001

	symmetry c1
}
set optking {
	frozen_dihedral = ("
		11 7 4 3
	")
}

ee = optimize('scf')
oeprop('DIPOLE', 'QUADRUPOLE', 'MULLIKEN_CHARGES')
f=open( 'psi4out.xyz', 'w' )
f.write( "24  " )
f.write( str(ee) + "\n" )
f.write( MOL.save_string_xyz() )
f.close()
--------------------------------------------------------------------------

    Molecular point group: c1
  Charge       = 0
  Multiplicity = 1
  Basis Set: 6-31G*
  Basis Set:
  @DF-RHF Final Energy:  -349.24340182366905
    Total Energy =                       -349.2434018236688757
    Molecular point group: c1
  Basis Set: 6-31G*
  Basis Set:
  Basis Set: 6-31G*
  Basis Set:
  @DF-RHF Final Energy:  -349.24367553392972
    Total Energy =                       -349.2436755339298315
  Basis Set: 6-31G*
  Basis Set:
  Basis Set: 6-31G*
  Basis Set:
  @DF-RHF Final Energy:  -349.24377279133950
    Total Energy =                       -349.2437727913387562
  Basis Set: 6-31G*
  Basis Set:
  Basis Set: 6-31G*
  Basis Set:
  @DF-RHF Final Energy:  -349.24376423938656
    Total Energy =                       -349.2437642393865644
  Basis Set: 6-31G*
  Basis Set:
  Basis Set: 6-31G*
  Basis Set:
  @DF-RHF Final Energy:  -349.24377693543653
    Total Energy =                       -349.2437769354365855
  Basis Set: 6-31G*
  Basis Set:
  Basis Set: 6-31G*
  Basis Set:
  @DF-RHF Final Energy:  -349.24377565827569
    Total Energy =                       -349.2437756582759221
  Basis Set: 6-31G*
  Basis Set:
  Basis Set: 6-31G*
  Basis Set:
  @DF-RHF Final Energy:  -349.24377860914649
    Total Energy =                       -349.2437786091462044
  Basis Set: 6-31G*
  Basis Set:
  Charge       = 0
  Multiplicity = 1
  Basis Set: 6-31G*
  Basis Set:

    Orbital Energies (a.u.)
    -----------------------

    Doubly Occupied:

       1A    -20.554747     2A    -11.268198     3A    -11.217271
       4A    -11.212415     5A    -11.212177     6A    -11.209590
       7A    -11.208866     8A    -11.205245     9A     -1.360977
      10A     -1.085982    11A     -1.046097    12A     -0.984568
      13A     -0.913764    14A     -0.850664    15A     -0.799734
      16A     -0.774535    17A     -0.680484    18A     -0.648471
      19A     -0.631522    20A     -0.613273    21A     -0.600226
      22A     -0.577161    23A     -0.554652    24A     -0.532113
      25A     -0.528550    26A     -0.509268    27A     -0.489765
      28A     -0.482685    29A     -0.467222    30A     -0.458084
      31A     -0.452277    32A     -0.440515    33A     -0.419922

  @DF-RHF Final Energy:  -349.24377880018574

   => Energetics <=

    Nuclear Repulsion Energy =            392.8758842585034472
    One-Electron Energy =               -1252.2572849980447245
    Two-Electron Energy =                 510.1376219393556539
    DFT Exchange-Correlation Energy =       0.0000000000000000
    Empirical Dispersion Energy =           0.0000000000000000
    PCM Polarization Energy =               0.0000000000000000
    EFP Energy =                            0.0000000000000000
    Total Energy =                       -349.2437788001856234
    Molecular point group: c1
  Basis Set: 6-31G*
  Basis Set:

  -Total Gradient:
     Atom            X                  Y                   Z
    ------   -----------------  -----------------  -----------------
       1        0.000000270970     0.000001655249    -0.000004822204
       2       -0.000010206726     0.000009713936    -0.000003215480
       3       -0.000010828568    -0.001209231543     0.000955547397
       4       -0.000093177992     0.001944836598    -0.001712946893
       5       -0.000009243737    -0.000004433559     0.000010437823
       6        0.000007464733     0.000004427455    -0.000005787124
       7        0.000580990248    -0.001944226776     0.002391924770
       8        0.000002049526     0.000003425945     0.000006780773
       9        0.000004230577     0.000002048452    -0.000003049039
      10        0.000008590214     0.000001245735    -0.000009828694
      11       -0.000473143251     0.001189271611    -0.001634921247
      12       -0.000000637743    -0.000001737732     0.000000083545
      13       -0.000001494330     0.000001879513     0.000001007690
      14        0.000001953224    -0.000002165332    -0.000003524254
      15        0.000003659835     0.000002338715    -0.000000031733
      16       -0.000004712911     0.000003889194     0.000003302723
      17       -0.000002710626     0.000000891987     0.000000278538
      18        0.000000940486     0.000000305835     0.000002767794
      19       -0.000001505023    -0.000001623909     0.000000777130
      20       -0.000002780090    -0.000003044169     0.000003071947
      21        0.000000670116     0.000000557866     0.000000495610
      22       -0.000000184423     0.000000629335     0.000000083995
      23        0.000001183724     0.000000349334     0.000000133411
      24       -0.000001378231    -0.000001003741     0.000001433523

  **** Optimization is complete! (in 8 steps) ****
    Final optimized geometry and variables:
    Molecular point group: c1

    Geometry (in Angstrom), charge = 0, multiplicity = 1:

    H           -2.696744359822     0.897533836340     0.124939411139
    O           -2.717435185969    -0.044172545773     0.224415876836
    C           -2.471326370114    -0.374693289801     1.568046815114
    C           -1.060838478842    -0.022516257480     2.026806333142
    H           -2.625372577957    -1.444113306252     1.638769805385
    H           -3.204108286556     0.102246547610     2.216899433041
    C            0.050243894741    -0.706369904413     1.205758660562
    H           -0.932318701789     1.058935567164     2.003450539184
    H           -0.982427031993    -0.307555514108     3.073646293492
    C            0.695040205946     0.208309323180     0.159749195257
    H           -0.364013366187    -1.570030498328     0.692298673463
    H            0.823597877630    -1.077671854640     1.872760257361
    C            1.776304163384    -0.500268996920    -0.659431380325
    H           -0.081396411376     0.587068643682    -0.497140004588
    H            1.132843145228     1.072204482662     0.659092593484
    C            2.519099207305     0.399536960911    -1.653844160512
    H            1.329815630333    -1.335259794186    -1.196853754334
    H            2.504486041293    -0.933558584030     0.023741025451
    C            1.650765730404     0.941266329094    -2.790847709753
    H            3.341666061950    -0.167145630247    -2.083467684613
    H            2.972222402952     1.231050325630    -1.117474472873
    H            1.173938972251     0.131978601552    -3.337075504814
    H            2.249817471265     1.508253392752    -3.497014660175
    H            0.868556348779     1.598844356346    -2.426462330134

  Mulliken Charges: (a.u.)
   Center  Symbol    Alpha    Beta     Spin     Total
       1     H     0.28292  0.28292  0.00000  0.43416
       2     O     4.36806  4.36806  0.00000 -0.73613
       3     C     2.99806  2.99806  0.00000  0.00389
       4     C     3.17205  3.17205  0.00000 -0.34409
       5     H     0.41582  0.41582  0.00000  0.16837
       6     H     0.42876  0.42876  0.00000  0.14248
       7     C     3.15142  3.15142  0.00000 -0.30283
       8     H     0.42507  0.42507  0.00000  0.14986
       9     H     0.41991  0.41991  0.00000  0.16019
      10     C     3.15542  3.15542  0.00000 -0.31083
      11     H     0.41515  0.41515  0.00000  0.16969
      12     H     0.42203  0.42203  0.00000  0.15594
      13     C     3.15352  3.15352  0.00000 -0.30704
      14     H     0.41724  0.41724  0.00000  0.16552
      15     H     0.42745  0.42745  0.00000  0.14510
      16     C     3.15220  3.15220  0.00000 -0.30441
      17     H     0.42228  0.42228  0.00000  0.15544
      18     H     0.42373  0.42373  0.00000  0.15254
      19     C     3.24038  3.24038  0.00000 -0.48077
      20     H     0.42155  0.42155  0.00000  0.15690
      21     H     0.42450  0.42450  0.00000  0.15101
      22     H     0.42091  0.42091  0.00000  0.15818
      23     H     0.42027  0.42027  0.00000  0.15945
      24     H     0.42132  0.42132  0.00000  0.15737

   Total alpha = 33.00000, Total beta = 33.00000, Total charge =  0.00000
