                              Psi4 1.0.54 Driver

  ==> Input File <==

--------------------------------------------------------------------------
set {
	reference rhf
	basis cc-pvtz
}

set_num_threads( 4 )
memory 2 gb

molecule MOL {
0 1

H	 0.919047	 -1.769489	 0.848041
C	 0.243151	 -0.937284	 1.053097
N	 -0.537714	 -0.645117	 0.000000
O	 0.234270	 -0.381650	 2.105670
C	 -1.522613	 0.412524	 0.000000
H	 -0.423081	 -1.192133	 -0.817078
H	 -2.150256	 0.356137	 -0.880771
H	 -1.005621	 1.357208	 0.000000
H	 -2.150256	 0.356137	 0.880771

	symmetry c1
}
set optking {
	frozen_dihedral = ("
		6 3 5 7
	")
}

ee,wfn = optimize('scf', return_wfn=True)
oeprop( wfn, 'DIPOLE', 'QUADRUPOLE', 'MULLIKEN_CHARGES')
f=open( 'psi4out.xyz', 'w' )
f.write( "9  " )
f.write( str(ee) + "\n" )
f.write( MOL.save_string_xyz() )
f.close()
--------------------------------------------------------------------------

    Molecular point group: c1
  Charge       = 0
  Multiplicity = 1
  Basis Set: CC-PVTZ
  Basis Set:
  @DF-RHF Final Energy:  -208.04296024703581
    Total Energy =                       -208.0429602470358645
    Molecular point group: c1
  Basis Set: CC-PVTZ
  Basis Set:
  Basis Set: CC-PVTZ
  Basis Set:
  @DF-RHF Final Energy:  -208.04355099343391
    Total Energy =                       -208.0435509934339393
  Basis Set: CC-PVTZ
  Basis Set:
  Basis Set: CC-PVTZ
  Basis Set:
  @DF-RHF Final Energy:  -208.04365071056094
    Total Energy =                       -208.0436507105609678
  Basis Set: CC-PVTZ
  Basis Set:
  Basis Set: CC-PVTZ
  Basis Set:
  @DF-RHF Final Energy:  -208.04357445935156
    Total Energy =                       -208.0435744593515892
  Basis Set: CC-PVTZ
  Basis Set:
  Basis Set: CC-PVTZ
  Basis Set:
  @DF-RHF Final Energy:  -208.04366225216296
    Total Energy =                       -208.0436622521630170
  Basis Set: CC-PVTZ
  Basis Set:
  Basis Set: CC-PVTZ
  Basis Set:
  @DF-RHF Final Energy:  -208.04366619322087
    Total Energy =                       -208.0436661932208153
  Basis Set: CC-PVTZ
  Basis Set:
  Charge       = 0
  Multiplicity = 1
  Basis Set: CC-PVTZ
  Basis Set:

    Orbital Energies (a.u.)
    -----------------------

    Doubly Occupied:

       1A    -20.516643     2A    -15.584387     3A    -11.335984
       4A    -11.260550     5A     -1.393933     6A     -1.239303
       7A     -0.969738     8A     -0.809285     9A     -0.749139
      10A     -0.645788    11A     -0.629938    12A     -0.596128
      13A     -0.559565    14A     -0.536921    15A     -0.428248
      16A     -0.396758

  @DF-RHF Final Energy:  -208.04366939608670

   => Energetics <=

    Nuclear Repulsion Energy =            122.9357987168777697
    One-Electron Energy =                -526.6543195846763865
    Two-Electron Energy =                 195.6748514717119178
    DFT Exchange-Correlation Energy =       0.0000000000000000
    Empirical Dispersion Energy =           0.0000000000000000
    PCM Polarization Energy =               0.0000000000000000
    EFP Energy =                            0.0000000000000000
    Total Energy =                       -208.0436693960866705
    Molecular point group: c1
  Basis Set: CC-PVTZ
  Basis Set:

  -Total Gradient:
     Atom            X                  Y                   Z
    ------   -----------------  -----------------  -----------------
       1       -0.000019903471     0.000024257348     0.000014795711
       2       -0.000001898442    -0.000010921238    -0.000047605219
       3        0.000080353629    -0.000053720652    -0.000130813681
       4        0.000025787864     0.000035988917     0.000119680485
       5       -0.000074368570     0.000013396324     0.000071394291
       6       -0.000037505814    -0.000028465930    -0.000006636295
       7        0.000008252357     0.000007850809    -0.000055801099
       8        0.000039419758     0.000024657525    -0.000003160562
       9       -0.000020137314    -0.000013043103     0.000038146373

  **** Optimization is complete! (in 7 steps) ****
    Final optimized geometry and variables:
    Molecular point group: c1

    Geometry (in Angstrom), charge = 0, multiplicity = 1:

    H            1.306301005935    -1.419352763221     0.070377075729
    C            0.645264324802    -0.571467793570     0.259178513342
    N           -0.160080479684    -0.296478635566    -0.777911841825
    O            0.657644280773     0.023903815512     1.290017098995
    C           -1.100221859011     0.802152072605    -0.753074928162
    H           -0.061067792231    -0.834007074618    -1.602215610033
    H           -1.707759754700     0.759398763015    -1.645474774058
    H           -0.591019564106     1.756713703968    -0.719802001980
    H           -1.742430197435     0.730536291254     0.112927413895

  Mulliken Charges: (a.u.)
   Center  Symbol    Alpha    Beta     Spin     Total
       1     H     0.46440  0.46440  0.00000  0.07120
       2     C     2.87948  2.87948  0.00000  0.24104
       3     N     3.60570  3.60570  0.00000 -0.21139
       4     O     4.21438  4.21438  0.00000 -0.42876
       5     C     3.07505  3.07505  0.00000 -0.15010
       6     H     0.41001  0.41001  0.00000  0.17998
       7     H     0.45457  0.45457  0.00000  0.09087
       8     H     0.45103  0.45103  0.00000  0.09793
       9     H     0.44539  0.44539  0.00000  0.10923

   Total alpha = 16.00000, Total beta = 16.00000, Total charge =  0.00000

*** Psi4 exiting successfully. Buy a developer a beer!
