  ==> Input File <==

--------------------------------------------------------------------------
set {
	reference rhf
	basis cc-pvtz
}

set_num_threads( 4 )
memory 2 gb

molecule MOL {
0 1

H	 -2.644180	 -0.653737	 1.272255
C	 -2.092774	 -0.380414	 0.391915
O	 -0.808934	 -0.154049	 0.752536
F	 -2.163230	 -1.351640	 -0.507133
F	 -2.627232	 0.691260	 -0.169301
C	 0.085006	 0.250800	 -0.215074
C	 1.370439	 -0.548013	 -0.012993
Cl	 0.421658	 1.987697	 -0.091007
H	 -0.272219	 0.063284	 -1.212508
F	 2.065368	 -0.054239	 0.980125
F	 2.101247	 -0.463014	 -1.099275
F	 1.136978	 -1.809307	 0.225515

	symmetry c1
}
set optking {
	frozen_dihedral = ("
		10 7 6 9
	")
}

ee = optimize('scf')
oeprop('DIPOLE', 'QUADRUPOLE', 'MULLIKEN_CHARGES')
f=open( 'psi4out.xyz', 'w' )
f.write( "12  " )
f.write( str(ee) + "\n" )
f.write( MOL.save_string_xyz() )
f.close()
--------------------------------------------------------------------------

    Molecular point group: c1
  Charge       = 0
  Multiplicity = 1
  Basis Set: CC-PVTZ
  Basis Set:
  @DF-RHF Final Energy: -1146.61766554614792
    Total Energy =                      -1146.6176655461476912
    Molecular point group: c1
  Basis Set: CC-PVTZ
  Basis Set:
  Basis Set: CC-PVTZ
  Basis Set:
  @DF-RHF Final Energy: -1146.61832554029002
    Total Energy =                      -1146.6183255402897885
  Basis Set: CC-PVTZ
  Basis Set:
  Basis Set: CC-PVTZ
  Basis Set:
  @DF-RHF Final Energy: -1146.61856062832157
    Total Energy =                      -1146.6185606283220295
  Basis Set: CC-PVTZ
  Basis Set:
  Basis Set: CC-PVTZ
  Basis Set:
  @DF-RHF Final Energy: -1146.61858145965175
    Total Energy =                      -1146.6185814596519776
  Basis Set: CC-PVTZ
  Basis Set:
  Basis Set: CC-PVTZ
  Basis Set:
  @DF-RHF Final Energy: -1146.61858487635573
    Total Energy =                      -1146.6185848763564081
  Basis Set: CC-PVTZ
  Basis Set:
  Basis Set: CC-PVTZ
  Basis Set:
  @DF-RHF Final Energy: -1146.61858618968176
    Total Energy =                      -1146.6185861896824463
  Basis Set: CC-PVTZ
  Basis Set:
  Charge       = 0
  Multiplicity = 1
  Basis Set: CC-PVTZ
  Basis Set:

    Orbital Energies (a.u.)
    -----------------------

    Doubly Occupied:

       1A   -104.855097     2A    -26.355475     3A    -26.353341
       4A    -26.353048     5A    -26.343999     6A    -26.343975
       7A    -20.642033     8A    -11.520792     9A    -11.484886
      10A    -11.401497    11A    -10.580642    12A     -8.047425
      13A     -8.045458    14A     -8.045366    15A     -1.768086
      16A     -1.725688    17A     -1.663318    18A     -1.660749
      19A     -1.645645    20A     -1.488776    21A     -1.176947
      22A     -1.051528    23A     -0.992030    24A     -0.924963
      25A     -0.864205    26A     -0.859476    27A     -0.852654
      28A     -0.830569    29A     -0.819652    30A     -0.794538
      31A     -0.735036    32A     -0.733564    33A     -0.712366
      34A     -0.708623    35A     -0.686069    36A     -0.680295
      37A     -0.665798    38A     -0.664019    39A     -0.650281
      40A     -0.638169    41A     -0.599288    42A     -0.581361
      43A     -0.524265    44A     -0.477767    45A     -0.468497

  @DF-RHF Final Energy: -1146.61858691643488

   => Energetics <=

    Nuclear Repulsion Energy =            737.4728415148440490
    One-Electron Energy =               -3058.1483429712088764
    Two-Electron Energy =                1174.0569145399285844
    DFT Exchange-Correlation Energy =       0.0000000000000000
    Empirical Dispersion Energy =           0.0000000000000000
    PCM Polarization Energy =               0.0000000000000000
    EFP Energy =                            0.0000000000000000
    Total Energy =                      -1146.6185869164364703
    Molecular point group: c1
  Basis Set: CC-PVTZ
  Basis Set:

  -Total Gradient:
     Atom            X                  Y                   Z
    ------   -----------------  -----------------  -----------------
       1        0.000004150188    -0.000000390488    -0.000001465315
       2       -0.000038544757     0.000015048898    -0.000038155197
       3        0.000147020923    -0.000051023517    -0.000024992990
       4       -0.000002112068     0.000057561979     0.000023739529
       5        0.000051782869    -0.000041580765     0.000002889930
       6       -0.002910509472    -0.004307645778     0.001033179825
       7       -0.002196239091    -0.002879661422     0.003625916546
       8        0.000005735501     0.000055936619    -0.000032725246
       9        0.002869304457     0.004314078088    -0.001698531467
      10        0.002222416350     0.002907532468    -0.002897429030
      11       -0.000088971726     0.000038319321     0.000038367448
      12       -0.000064033155    -0.000108175288    -0.000030794035

  **** Optimization is complete! (in 7 steps) ****
    Final optimized geometry and variables:
    Molecular point group: c1

    Geometry (in Angstrom), charge = 0, multiplicity = 1:

    H           -2.663863258158    -0.635615170218     1.279249083084
    C           -2.101592142184    -0.386937543252     0.398487154381
    O           -0.826877821414    -0.129050227162     0.770774962070
    F           -2.143064987118    -1.390946010254    -0.465402952481
    F           -2.640334948961     0.656065475269    -0.210406057324
    C            0.073286529290     0.250684877625    -0.196514352549
    C            1.370465850159    -0.542441628155    -0.004679322056
    CL           0.417220109778     1.992496521937    -0.100762951929
    H           -0.268426476685     0.083823256240    -1.202426537117
    F            2.092075668654    -0.114032609470     0.993459455215
    F            2.093916170216    -0.444539576583    -1.096540238981
    F            1.096683938266    -1.807372546041     0.186742116901

  Mulliken Charges: (a.u.)
   Center  Symbol    Alpha    Beta     Spin     Total
       1     H     0.45184  0.45184  0.00000  0.09632
       2     C     2.73911  2.73911  0.00000  0.52177
       3     O     4.15533  4.15533  0.00000 -0.31065
       4     F     4.61770  4.61770  0.00000 -0.23540
       5     F     4.61502  4.61502  0.00000 -0.23004
       6     C     2.94032  2.94032  0.00000  0.11936
       7     C     2.66765  2.66765  0.00000  0.66470
       8    CL     8.57474  8.57474  0.00000 -0.14948
       9     H     0.43155  0.43155  0.00000  0.13689
      10     F     4.59886  4.59886  0.00000 -0.19773
      11     F     4.60643  4.60643  0.00000 -0.21287
      12     F     4.60144  4.60144  0.00000 -0.20288

   Total alpha = 45.00000, Total beta = 45.00000, Total charge = -0.00000
