                              Psi4 1.0.54 Driver

  ==> Input File <==

--------------------------------------------------------------------------
set {
	reference rhf
	basis cc-pvtz
}

set_num_threads( 4 )
memory 2 gb

molecule MOL {
0 1

H	 3.095918	 -0.153717	 0.636860
N	 2.433987	 -0.362316	 -0.080024
C	 1.263552	 0.494993	 0.021953
H	 2.181906	 -1.323209	 0.022331
C	 -0.016533	 -0.325589	 -0.026925
H	 1.280915	 1.180773	 -0.818522
H	 1.263064	 1.106893	 0.925038
C	 -1.280353	 0.525521	 0.047747
H	 -0.016686	 -0.912532	 -0.939714
H	 -0.014099	 -1.037598	 0.796369
C	 -2.560681	 -0.301323	 -0.007747
H	 -1.279957	 1.241025	 -0.770189
H	 -1.270445	 1.110526	 0.963468
H	 -2.617064	 -0.872870	 -0.928010
H	 -3.439525	 0.331102	 0.043462
H	 -2.609427	 -1.002736	 0.818585

	symmetry c1
}
set optking {
	frozen_dihedral = ("
		1 2 3 6
	")
}

ee,wfn = optimize('scf', return_wfn=True)
oeprop( wfn, 'DIPOLE', 'QUADRUPOLE', 'MULLIKEN_CHARGES')
f=open( 'psi4out.xyz', 'w' )
f.write( "16  " )
f.write( str(ee) + "\n" )
f.write( MOL.save_string_xyz() )
f.close()
--------------------------------------------------------------------------

    Molecular point group: c1
  Charge       = 0
  Multiplicity = 1
  Basis Set: CC-PVTZ
  Basis Set:
  @DF-RHF Final Energy:  -212.39622523223866
    Total Energy =                       -212.3962252322387485
    Molecular point group: c1
  Basis Set: CC-PVTZ
  Basis Set:
  Basis Set: CC-PVTZ
  Basis Set:
  @DF-RHF Final Energy:  -212.39660791322572
    Total Energy =                       -212.3966079132256368
  Basis Set: CC-PVTZ
  Basis Set:
  Basis Set: CC-PVTZ
  Basis Set:
  @DF-RHF Final Energy:  -212.39667553471426
    Total Energy =                       -212.3966755347144044
  Basis Set: CC-PVTZ
  Basis Set:
  Basis Set: CC-PVTZ
  Basis Set:
  @DF-RHF Final Energy:  -212.39667738846316
    Total Energy =                       -212.3966773884632175
  Basis Set: CC-PVTZ
  Basis Set:
  Charge       = 0
  Multiplicity = 1
  Basis Set: CC-PVTZ
  Basis Set:

    Orbital Energies (a.u.)
    -----------------------

    Doubly Occupied:

       1A    -15.523760     2A    -11.237804     3A    -11.215954
       4A    -11.213914     5A    -11.208523     6A     -1.175702
       7A     -1.063557     8A     -0.961354     9A     -0.847114
      10A     -0.798051    11A     -0.662473    12A     -0.641258
      13A     -0.598423    14A     -0.582831    15A     -0.569652
      16A     -0.519791    17A     -0.512359    18A     -0.473054
      19A     -0.471604    20A     -0.464152    21A     -0.379367

  @DF-RHF Final Energy:  -212.39667778926258

   => Energetics <=

    Nuclear Repulsion Energy =            186.5845925203927322
    One-Electron Energy =                -655.7211449346132213
    Two-Electron Energy =                 256.7398746249581905
    DFT Exchange-Correlation Energy =       0.0000000000000000
    Empirical Dispersion Energy =           0.0000000000000000
    PCM Polarization Energy =               0.0000000000000000
    EFP Energy =                            0.0000000000000000
    Total Energy =                       -212.3966777892622986
    Molecular point group: c1
  Basis Set: CC-PVTZ
  Basis Set:

  -Total Gradient:
     Atom            X                  Y                   Z
    ------   -----------------  -----------------  -----------------
       1       -0.000615153318    -0.000976912216     0.000871549899
       2        0.000641797168     0.001000595657    -0.001306739903
       3        0.000666449824     0.000825574439     0.001147951993
       4       -0.000004920100    -0.000009809884     0.000003912467
       5        0.000020984714     0.000003702262     0.000004682348
       6       -0.000678324992    -0.000866880056    -0.000714589682
       7       -0.000029855745     0.000006657666    -0.000008532423
       8        0.000007314489     0.000003628995     0.000003969515
       9        0.000007783688     0.000002097237     0.000005925072
      10        0.000011069525     0.000005178094    -0.000006587328
      11       -0.000015275975     0.000005587398    -0.000003356195
      12       -0.000001266132     0.000000832793     0.000008073327
      13       -0.000005113907    -0.000000318304     0.000000551828
      14        0.000000405538    -0.000001624141     0.000001919059
      15       -0.000007542564    -0.000005043214    -0.000004629169
      16        0.000001647787     0.000006733273    -0.000004100807

  **** Optimization is complete! (in 5 steps) ****
    Final optimized geometry and variables:
    Molecular point group: c1

    Geometry (in Angstrom), charge = 0, multiplicity = 1:

    H            3.126806806017    -0.183671605069     0.613963821087
    N            2.454536871914    -0.377065707571    -0.095178157181
    C            1.274846106478     0.476311182311     0.029094258204
    H            2.213307152739    -1.340849645842    -0.010895988730
    C           -0.021679184334    -0.321997576422    -0.001748146674
    H            1.262356601451     1.184035471831    -0.794228536515
    H            1.311184655435     1.059643700435     0.945065003702
    C           -1.270438112416     0.553509456410     0.026375760630
    H           -0.032062421195    -0.936494493756    -0.899123941682
    H           -0.039121873582    -1.006382289141     0.843749309830
    C           -2.565289610173    -0.251635538675    -0.006031746985
    H           -1.249660739075     1.235140475290    -0.818990884108
    H           -1.255123420785     1.173608316249     0.918540468276
    H           -2.626676239430    -0.857216228049    -0.904042101257
    H           -3.432206271636     0.398596250950     0.013931468752
    H           -2.632890278730    -0.919073629166     0.846631884049

  Mulliken Charges: (a.u.)
   Center  Symbol    Alpha    Beta     Spin     Total
       1     H     0.42889  0.42889  0.00000  0.14221
       2     N     3.69319  3.69319  0.00000 -0.38639
       3     C     3.01640  3.01640  0.00000 -0.03280
       4     H     0.43018  0.43018  0.00000  0.13964
       5     C     3.08829  3.08829  0.00000 -0.17657
       6     H     0.46343  0.46343  0.00000  0.07314
       7     H     0.46459  0.46459  0.00000  0.07082
       8     C     3.08905  3.08905  0.00000 -0.17811
       9     H     0.45223  0.45223  0.00000  0.09555
      10     H     0.45825  0.45825  0.00000  0.08351
      11     C     3.14913  3.14913  0.00000 -0.29827
      12     H     0.45318  0.45318  0.00000  0.09365
      13     H     0.45512  0.45512  0.00000  0.08977
      14     H     0.45453  0.45453  0.00000  0.09094
      15     H     0.44823  0.44823  0.00000  0.10355
      16     H     0.45531  0.45531  0.00000  0.08937

   Total alpha = 21.00000, Total beta = 21.00000, Total charge =  0.00000

*** Psi4 exiting successfully. Buy a developer a beer!
