  ==> Input File <==

--------------------------------------------------------------------------
set {
	reference rhf
	basis cc-pvtz
}

set_num_threads( 4 )
memory 2 gb

molecule MOL {
0 1

H	 -3.401682	 -1.036167	 0.000000
O	 -3.113760	 -0.140926	 0.000000
C	 -1.775087	 -0.058754	 0.000000
C	 -1.063113	 0.388326	 -1.106186
C	 -1.110488	 -0.438822	 1.154140
H	 -1.585809	 0.681440	 -1.997983
C	 0.308979	 0.452996	 -1.052564
H	 -1.678493	 -0.780638	 1.995895
C	 0.263785	 -0.368119	 1.191585
H	 0.869803	 0.796158	 -1.899220
C	 0.989584	 0.075678	 0.096730
H	 0.780421	 -0.662729	 2.086464
C	 2.461424	 0.142857	 0.160261
O	 3.164221	 0.507848	 -0.722357
H	 2.894007	 -0.178353	 1.113937

	symmetry c1
}
set optking {
	frozen_dihedral = ("
		5 3 2 1
	")
}

ee = optimize('scf')
oeprop('DIPOLE', 'QUADRUPOLE', 'MULLIKEN_CHARGES')
f=open( 'psi4out.xyz', 'w' )
f.write( "15  " )
f.write( str(ee) + "\n" )
f.write( MOL.save_string_xyz() )
f.close()
--------------------------------------------------------------------------

    Molecular point group: c1
  Charge       = 0
  Multiplicity = 1
  Basis Set: CC-PVTZ
  Basis Set:
  @DF-RHF Final Energy:  -418.43604011339096
    Total Energy =                       -418.4360401133908454
    Molecular point group: c1
  Basis Set: CC-PVTZ
  Basis Set:
  Basis Set: CC-PVTZ
  Basis Set:
  @DF-RHF Final Energy:  -418.43732574372615
    Total Energy =                       -418.4373257437262055
  Basis Set: CC-PVTZ
  Basis Set:
  Basis Set: CC-PVTZ
  Basis Set:
  @DF-RHF Final Energy:  -418.43730312255622
    Total Energy =                       -418.4373031225566137
  Basis Set: CC-PVTZ
  Basis Set:
  Basis Set: CC-PVTZ
  Basis Set:
  @DF-RHF Final Energy:  -418.43704965366754
    Total Energy =                       -418.4370496536672590
  Basis Set: CC-PVTZ
  Basis Set:
  Basis Set: CC-PVTZ
  Basis Set:
  @DF-RHF Final Energy:  -418.43742496217101
    Total Energy =                       -418.4374249621710078
  Basis Set: CC-PVTZ
  Basis Set:
  Charge       = 0
  Multiplicity = 1
  Basis Set: CC-PVTZ
  Basis Set:

    Orbital Energies (a.u.)
    -----------------------

    Doubly Occupied:

       1A    -20.589618     2A    -20.550175     3A    -11.325972
       4A    -11.313606     5A    -11.258455     6A    -11.251473
       7A    -11.242654     8A    -11.242135     9A    -11.239233
      10A     -1.419121    11A     -1.406331    12A     -1.175639
      13A     -1.045507    14A     -1.040495    15A     -0.892193
      16A     -0.860204    17A     -0.801998    18A     -0.756920
      19A     -0.706203    20A     -0.682339    21A     -0.648184
      22A     -0.635895    23A     -0.623013    24A     -0.609905
      25A     -0.565412    26A     -0.558582    27A     -0.542978
      28A     -0.503657    29A     -0.488335    30A     -0.424825
      31A     -0.359942    32A     -0.344304

  @DF-RHF Final Energy:  -418.43742657187443

   => Energetics <=

    Nuclear Repulsion Energy =            401.7544344775277523
    One-Electron Energy =               -1366.1731123218801258
    Two-Electron Energy =                 545.9812512724781755
    DFT Exchange-Correlation Energy =       0.0000000000000000
    Empirical Dispersion Energy =           0.0000000000000000
    PCM Polarization Energy =               0.0000000000000000
    EFP Energy =                            0.0000000000000000
    Total Energy =                       -418.4374265718741981
    Molecular point group: c1
  Basis Set: CC-PVTZ
  Basis Set:

  -Total Gradient:
     Atom            X                  Y                   Z
    ------   -----------------  -----------------  -----------------
       1        0.000072425225    -0.000067652181    -0.002176508881
       2       -0.000159194886     0.000840273922     0.002972538619
       3        0.000136093658    -0.002163044283    -0.001552467969
       4       -0.000246989992    -0.000075329421     0.000106063730
       5        0.000165179707     0.001503393948     0.000621298198
       6        0.000001174861     0.000007041170    -0.000001585379
       7        0.000227663446    -0.000072049934     0.000134799398
       8        0.000002882503     0.000008788003    -0.000008392950
       9       -0.000176812526    -0.000119193720     0.000085804789
      10       -0.000021264534     0.000007608031    -0.000003013673
      11       -0.000011278123     0.000106254670    -0.000222026363
      12        0.000021427596     0.000017512326    -0.000000034038
      13        0.000022745788     0.000044899355     0.000063456731
      14       -0.000025674776    -0.000019396027    -0.000017494162
      15       -0.000008377939    -0.000019105860    -0.000002438047

  **** Optimization is complete! (in 6 steps) ****
    Final optimized geometry and variables:
    Molecular point group: c1

    Geometry (in Angstrom), charge = 0, multiplicity = 1:

    H           -3.447978255854    -1.051050890071     0.010285021908
    O           -3.123317037495    -0.167445976979    -0.002503016500
    C           -1.764632423890    -0.145818909440     0.048807104210
    C           -1.063302593379     0.313628754477    -1.055646652991
    C           -1.097749719058    -0.509123419922     1.202861967609
    H           -1.607387286864     0.604415212483    -1.932248600966
    C            0.308492992708     0.393586499071    -1.006387588336
    H           -1.656838650131    -0.836708579436     2.057614606294
    C            0.280557504110    -0.433041412504     1.239884801261
    H            0.865899349129     0.745447913931    -1.851623360145
    C            0.992834615127     0.016115453692     0.142346597676
    H            0.802752850627    -0.717415141072     2.134740368635
    C            2.468198771784     0.095221288880     0.205057522460
    O            3.164820915766     0.462547322311    -0.679809386385
    H            2.903655989794    -0.220083377476     1.159326925927

  Mulliken Charges: (a.u.)
   Center  Symbol    Alpha    Beta     Spin     Total
       1     H     0.38512  0.38512  0.00000  0.22976
       2     O     4.18449  4.18449  0.00000 -0.36898
       3     C     2.86461  2.86461  0.00000  0.27078
       4     C     3.10544  3.10544  0.00000 -0.21088
       5     C     3.11604  3.11604  0.00000 -0.23208
       6     H     0.41250  0.41250  0.00000  0.17500
       7     C     3.06818  3.06818  0.00000 -0.13636
       8     H     0.41705  0.41705  0.00000  0.16591
       9     C     3.07786  3.07786  0.00000 -0.15572
      10     H     0.40685  0.40685  0.00000  0.18629
      11     C     2.99590  2.99590  0.00000  0.00820
      12     H     0.42101  0.42101  0.00000  0.15797
      13     C     2.91033  2.91033  0.00000  0.17934
      14     O     4.17521  4.17521  0.00000 -0.35042
      15     H     0.45941  0.45941  0.00000  0.08119

   Total alpha = 32.00000, Total beta = 32.00000, Total charge =  0.00000
