  ==> Input File <==

--------------------------------------------------------------------------
set {
	reference rhf
	basis 6-31G*
}

set_num_threads( 4 )
memory 2 gb

molecule MOL {
0 1

H	 3.355663	 1.274596	 0.154344
O	 2.433787	 1.154417	 0.360398
C	 2.077727	 -0.067559	 -0.035091
C	 0.624473	 -0.343591	 0.253101
O	 2.846237	 -0.814155	 -0.547930
C	 -0.265902	 0.883932	 0.072916
H	 0.324016	 -1.163849	 -0.390541
H	 0.565024	 -0.726111	 1.268924
C	 -1.728698	 0.646073	 0.462102
H	 -0.209144	 1.219470	 -0.958188
H	 0.135059	 1.692851	 0.673903
C	 -2.482460	 -0.343073	 -0.431425
H	 -2.245265	 1.602650	 0.432430
H	 -1.779332	 0.308348	 1.496285
C	 -3.960546	 -0.461025	 -0.060175
H	 -2.395034	 -0.026811	 -1.468912
H	 -2.024850	 -1.327147	 -0.371646
H	 -4.472726	 -1.168004	 -0.705284
H	 -4.465146	 0.496508	 -0.151489
H	 -4.081218	 -0.800940	 0.964585

	symmetry c1
}
set optking {
	frozen_dihedral = ("
		5 3 4 7
	")
}

ee = optimize('scf')
oeprop('DIPOLE', 'QUADRUPOLE', 'MULLIKEN_CHARGES')
f=open( 'psi4out.xyz', 'w' )
f.write( "20  " )
f.write( str(ee) + "\n" )
f.write( MOL.save_string_xyz() )
f.close()
--------------------------------------------------------------------------

    Molecular point group: c1
  Charge       = 0
  Multiplicity = 1
  Basis Set: 6-31G*
  Basis Set:
  @DF-RHF Final Energy:  -383.94593387386988
    Total Energy =                       -383.9459338738696488
    Molecular point group: c1
  Basis Set: 6-31G*
  Basis Set:
  Basis Set: 6-31G*
  Basis Set:
  @DF-RHF Final Energy:  -383.94488746862044
    Total Energy =                       -383.9448874686207773
  Basis Set: 6-31G*
  Basis Set:
  Basis Set: 6-31G*
  Basis Set:
  @DF-RHF Final Energy:  -383.94625987553741
    Total Energy =                       -383.9462598755371801
  Basis Set: 6-31G*
  Basis Set:
  Basis Set: 6-31G*
  Basis Set:
  @DF-RHF Final Energy:  -383.94671224851754
    Total Energy =                       -383.9467122485174286
  Basis Set: 6-31G*
  Basis Set:
  Basis Set: 6-31G*
  Basis Set:
  @DF-RHF Final Energy:  -383.94664487438070
    Total Energy =                       -383.9466448743808087
  Basis Set: 6-31G*
  Basis Set:
  Basis Set: 6-31G*
  Basis Set:
  @DF-RHF Final Energy:  -383.94672024429866
    Total Energy =                       -383.9467202442979783
  Basis Set: 6-31G*
  Basis Set:
  Basis Set: 6-31G*
  Basis Set:
  @DF-RHF Final Energy:  -383.94672523273340
    Total Energy =                       -383.9467252327336837
  Basis Set: 6-31G*
  Basis Set:
  Charge       = 0
  Multiplicity = 1
  Basis Set: 6-31G*
  Basis Set:

    Orbital Energies (a.u.)
    -----------------------

    Doubly Occupied:

       1A    -20.613947     2A    -20.548652     3A    -11.380647
       4A    -11.239759     5A    -11.228719     6A    -11.223194
       7A    -11.221343     8A    -11.213232     9A     -1.474807
      10A     -1.364070    11A     -1.098356    12A     -1.041609
      13A     -0.959864    14A     -0.862347    15A     -0.825252
      16A     -0.791012    17A     -0.699915    18A     -0.684699
      19A     -0.650883    20A     -0.636761    21A     -0.609784
      22A     -0.591771    23A     -0.577677    24A     -0.552510
      25A     -0.541879    26A     -0.519544    27A     -0.501764
      28A     -0.482460    29A     -0.475568    30A     -0.467937
      31A     -0.459041    32A     -0.433993

  @DF-RHF Final Energy:  -383.94672497401774

   => Energetics <=

    Nuclear Repulsion Energy =            376.3138979379036186
    One-Electron Energy =               -1268.5752598152946575
    Two-Electron Energy =                 508.3146369033731844
    DFT Exchange-Correlation Energy =       0.0000000000000000
    Empirical Dispersion Energy =           0.0000000000000000
    PCM Polarization Energy =               0.0000000000000000
    EFP Energy =                            0.0000000000000000
    Total Energy =                       -383.9467249740177976
    Molecular point group: c1
  Basis Set: 6-31G*
  Basis Set:

  -Total Gradient:
     Atom            X                  Y                   Z
    ------   -----------------  -----------------  -----------------
       1       -0.000031066948    -0.000035782887    -0.000008871238
       2        0.000008039596     0.000094687552     0.000055029572
       3       -0.000409646489     0.000682690820    -0.001671123785
       4        0.000465124042    -0.000973809869     0.001395942761
       5        0.000248262692    -0.000439164887     0.001018126025
       6       -0.000033883056     0.000021607818     0.000018137052
       7       -0.000267225245     0.000679446973    -0.000782670984
       8        0.000014812094    -0.000005516971     0.000007104871
       9        0.000037031352    -0.000043326311     0.000034765453
      10        0.000001090239    -0.000014983466    -0.000019397112
      11       -0.000035545280     0.000002164262    -0.000002559106
      12       -0.000026435011     0.000041298584    -0.000046803062
      13        0.000052238735     0.000010783414    -0.000009224163
      14       -0.000014049697     0.000001927215     0.000014353938
      15        0.000008343918    -0.000026615417     0.000012309832
      16       -0.000019417339     0.000001386016    -0.000024126876
      17       -0.000003842972     0.000010374366     0.000003624491
      18        0.000002492852    -0.000009062253     0.000007863954
      19        0.000007234612    -0.000004403191    -0.000010268616
      20       -0.000003558113     0.000006298232     0.000007786995

  **** Optimization is complete! (in 8 steps) ****
    Final optimized geometry and variables:
    Molecular point group: c1

    Geometry (in Angstrom), charge = 0, multiplicity = 1:

    H            3.459568735944     1.095254415018     0.105281401755
    O            2.533080787973     1.044784936313     0.319979166039
    C            2.092830047484    -0.155415420545    -0.053774673198
    C            0.638752726302    -0.389004197581     0.274524515309
    O            2.810663393806    -0.958415714868    -0.556186785942
    C           -0.271287072927     0.830060782294     0.085785647635
    H            0.323738665954    -1.223008043650    -0.336866771129
    H            0.605719363710    -0.716355779665     1.311733723137
    C           -1.733196041321     0.564156411312     0.461775028662
    H           -0.219213564594     1.162779266486    -0.948424737195
    H            0.105221629841     1.646540655266     0.690418776001
    C           -2.468166427216    -0.423004289921    -0.449369420759
    H           -2.263271364937     1.513635628091     0.442661733606
    H           -1.782630970057     0.211972104481     1.491096391504
    C           -3.943983011259    -0.573020441094    -0.080693970474
    H           -2.386199236543    -0.087296724986    -1.481152086767
    H           -1.993489060674    -1.399395748354    -0.406666265649
    H           -4.442827233690    -1.278730872945    -0.737386694768
    H           -4.465908254203     0.376554861669    -0.157016205319
    H           -4.058892959101    -0.931590292486     0.938339346660

  Mulliken Charges: (a.u.)
   Center  Symbol    Alpha    Beta     Spin     Total
       1     H     0.26729  0.26729  0.00000  0.46541
       2     O     4.34752  4.34752  0.00000 -0.69503
       3     C     2.62406  2.62406  0.00000  0.75187
       4     C     3.21105  3.21105  0.00000 -0.42210
       5     O     4.28148  4.28148  0.00000 -0.56296
       6     C     3.16104  3.16104  0.00000 -0.32208
       7     H     0.39405  0.39405  0.00000  0.21191
       8     H     0.40016  0.40016  0.00000  0.19968
       9     C     3.15526  3.15526  0.00000 -0.31052
      10     H     0.41683  0.41683  0.00000  0.16633
      11     H     0.40416  0.40416  0.00000  0.19169
      12     C     3.15495  3.15495  0.00000 -0.30990
      13     H     0.41801  0.41801  0.00000  0.16397
      14     H     0.42266  0.42266  0.00000  0.15468
      15     C     3.23946  3.23946  0.00000 -0.47892
      16     H     0.42144  0.42144  0.00000  0.15712
      17     H     0.42080  0.42080  0.00000  0.15840
      18     H     0.41769  0.41769  0.00000  0.16463
      19     H     0.42097  0.42097  0.00000  0.15805
      20     H     0.42112  0.42112  0.00000  0.15777

   Total alpha = 32.00000, Total beta = 32.00000, Total charge =  0.00000
