  ==> Input File <==

--------------------------------------------------------------------------
set {
	reference rhf
	basis 6-31G*
}

set_num_threads( 1 )
memory 2 gb

molecule MOL {
0 1

O	 2.862325	 1.357334	 0.000267
C	 2.843464	 0.164689	 -0.000222
C	 1.546494	 -0.624492	 -0.000609
C	 4.124123	 -0.644674	 -0.000428
C	 0.291004	 0.242674	 0.000989
H	 1.557904	 -1.283758	 -0.867573
H	 1.558622	 -1.285963	 0.864672
C	 -0.994322	 -0.586602	 0.000262
H	 0.309117	 0.896430	 -0.865270
H	 0.309661	 0.894078	 0.869017
C	 -2.259874	 0.272531	 0.000494
H	 -1.004862	 -1.240012	 -0.870939
H	 -1.005220	 -1.241071	 0.870675
C	 -2.041107	 1.672779	 -0.575231
H	 -2.636424	 0.357518	 1.018338
H	 -3.037404	 -0.232755	 -0.569708
C	 -3.309719	 2.525008	 -0.571405
H	 -1.264923	 2.179295	 -0.005315
H	 -1.666131	 1.589141	 -1.593198
H	 -3.691011	 2.655774	 0.437390
H	 -3.122740	 3.511418	 -0.984607
H	 -4.094694	 2.062036	 -1.162688
H	 4.165367	 -1.288615	 -0.874074
H	 4.976217	 0.020734	 -0.001915
H	 4.166763	 -1.286207	 0.874930

	symmetry c1
}
set optking {
	frozen_dihedral = ("
		9 5 8 12,
		15 11 14 18,
		1 2 3 6,
		9 5 3 6
	")
}

ee = energy('scf')
oeprop('DIPOLE', 'QUADRUPOLE', 'MULLIKEN_CHARGES')
f=open( 'psi4out.xyz', 'w' )
f.write( "25  " )
f.write( str(ee) + "\n" )
f.write( MOL.save_string_xyz() )
f.close()
--------------------------------------------------------------------------

    Molecular point group: c1

    Geometry (in Angstrom), charge = 0, multiplicity = 1:

       Center              X                  Y                   Z               Mass
    ------------   -----------------  -----------------  -----------------  -----------------
           O          2.521484003306     0.855220799334     0.130084054925    15.994914619560
           C          2.502623003306    -0.337424200666     0.129595054925    12.000000000000
           C          1.205653003306    -1.126605200666     0.129208054925    12.000000000000
           C          3.783282003306    -1.146787200666     0.129389054925    12.000000000000
           C         -0.049836996694    -0.259439200666     0.130806054925    12.000000000000
           H          1.217063003306    -1.785871200666    -0.737755945075     1.007825032070
           H          1.217781003306    -1.788076200666     0.994489054925     1.007825032070
           C         -1.335162996694    -1.088715200666     0.130079054925    12.000000000000
           H         -0.031723996694     0.394316799334    -0.735452945075     1.007825032070
           H         -0.031179996694     0.391964799334     0.998834054925     1.007825032070
           C         -2.600714996694    -0.229582200666     0.130311054925    12.000000000000
           H         -1.345702996694    -1.742125200666    -0.741121945075     1.007825032070
           H         -1.346060996694    -1.743184200666     1.000492054925     1.007825032070
           C         -2.381947996694     1.170665799334    -0.445413945075    12.000000000000
           H         -2.977264996694    -0.144595200666     1.148155054925     1.007825032070
           H         -3.378244996694    -0.734868200666    -0.439890945075     1.007825032070
           C         -3.650559996694     2.022894799334    -0.441587945075    12.000000000000
           H         -1.605763996694     1.677181799334     0.124502054925     1.007825032070
           H         -2.006971996694     1.087027799334    -1.463380945075     1.007825032070
           H         -4.031851996694     2.153660799334     0.567207054925     1.007825032070
           H         -3.463580996694     3.009304799334    -0.854789945075     1.007825032070
           H         -4.435534996694     1.559922799334    -1.032870945075     1.007825032070
           H          3.824526003306    -1.790728200666    -0.744256945075     1.007825032070
           H          4.635376003306    -0.481379200666     0.127902054925     1.007825032070
           H          3.825922003306    -1.788320200666     1.004747054925     1.007825032070

  Charge       = 0
  Multiplicity = 1
  Basis Set: 6-31G*
  Basis Set:

    Orbital Energies (a.u.)
    -----------------------

    Doubly Occupied:

       1A    -20.550258     2A    -11.326035     3A    -11.230953
       4A    -11.228178     5A    -11.215937     6A    -11.215214
       7A    -11.212335     8A    -11.211139     9A    -11.205332
      10A     -1.395584    11A     -1.096269    12A     -1.052719
      13A     -1.011421    14A     -0.968743    15A     -0.886602
      16A     -0.838663    17A     -0.764906    18A     -0.730839
      19A     -0.659825    20A     -0.650903    21A     -0.632010
      22A     -0.623240    23A     -0.595354    24A     -0.580548
      25A     -0.572047    26A     -0.561430    27A     -0.552246
      28A     -0.514923    29A     -0.507216    30A     -0.493548
      31A     -0.488001    32A     -0.482291    33A     -0.460906
      34A     -0.446079    35A     -0.445523    36A     -0.399785

  @DF-RHF Final Energy:  -387.12647051359863

   => Energetics <=

    Nuclear Repulsion Energy =            450.0744475448522053
    One-Electron Energy =               -1416.7877050990446151
    Two-Electron Energy =                 579.5867870405920712
    DFT Exchange-Correlation Energy =       0.0000000000000000
    Empirical Dispersion Energy =           0.0000000000000000
    PCM Polarization Energy =               0.0000000000000000
    EFP Energy =                            0.0000000000000000
    Total Energy =                       -387.1264705136003386

  Mulliken Charges: (a.u.)
   Center  Symbol    Alpha    Beta     Spin     Total
       1     O     4.26166  4.26166  0.00000 -0.52333
       2     C     2.73557  2.73557  0.00000  0.52885
       3     C     3.20875  3.20875  0.00000 -0.41751
       4     C     3.28670  3.28670  0.00000 -0.57340
       5     C     3.15659  3.15659  0.00000 -0.31318
       6     H     0.41032  0.41032  0.00000  0.17936
       7     H     0.41050  0.41050  0.00000  0.17901
       8     C     3.15535  3.15535  0.00000 -0.31070
       9     H     0.40737  0.40737  0.00000  0.18525
      10     H     0.41178  0.41178  0.00000  0.17645
      11     C     3.15189  3.15189  0.00000 -0.30378
      12     H     0.42376  0.42376  0.00000  0.15248
      13     H     0.42227  0.42227  0.00000  0.15546
      14     C     3.16105  3.16105  0.00000 -0.32210
      15     H     0.42244  0.42244  0.00000  0.15511
      16     H     0.42145  0.42145  0.00000  0.15711
      17     C     3.23743  3.23743  0.00000 -0.47485
      18     H     0.41411  0.41411  0.00000  0.17178
      19     H     0.42256  0.42256  0.00000  0.15488
      20     H     0.42238  0.42238  0.00000  0.15525
      21     H     0.41887  0.41887  0.00000  0.16225
      22     H     0.42318  0.42318  0.00000  0.15364
      23     H     0.40876  0.40876  0.00000  0.18247
      24     H     0.39656  0.39656  0.00000  0.20687
      25     H     0.40868  0.40868  0.00000  0.18264

   Total alpha = 36.00000, Total beta = 36.00000, Total charge = -0.00000
