                              Psi4 1.0.54 Driver

  ==> Input File <==

--------------------------------------------------------------------------
set {
	reference rhf
	basis cc-pvtz
}

set_num_threads( 4 )
memory 2 gb

molecule MOL {
0 1

O	 -2.817697	 1.304178	 0.001046
C	 -2.664672	 0.129869	 0.003507
C	 -3.797908	 -0.860100	 -0.001145
O	 -1.481217	 -0.452708	 0.001092
H	 -4.408836	 -0.679689	 -0.875387
H	 -3.443486	 -1.878443	 -0.002770
H	 -4.412123	 -0.683688	 0.871605
C	 -0.332055	 0.384012	 -0.000250
C	 0.892252	 -0.506059	 -0.000295
H	 -0.360822	 1.020205	 -0.874146
H	 -0.359817	 1.021310	 0.872861
C	 2.188199	 0.299473	 -0.001416
H	 0.857046	 -1.152781	 -0.871031
H	 0.857910	 -1.151798	 0.871202
C	 2.033983	 1.680713	 0.629076
H	 2.958538	 -0.252295	 0.531600
H	 2.544927	 0.410870	 -1.022352
C	 3.328502	 2.486458	 0.627087
H	 1.679230	 1.570641	 1.649905
H	 1.264547	 2.233094	 0.097164
H	 4.108539	 1.975370	 1.181323
H	 3.184862	 3.460178	 1.080675
H	 3.690815	 2.642674	 -0.383447

	symmetry c1
}
set optking {
	frozen_dihedral = ("
		16 12 9 13
	")
}

ee,wfn = optimize('scf', return_wfn=True)
oeprop( wfn, 'DIPOLE', 'QUADRUPOLE', 'MULLIKEN_CHARGES')
f=open( 'psi4out.xyz', 'w' )
f.write( "23  " )
f.write( str(ee) + "\n" )
f.write( MOL.save_string_xyz() )
f.close()
--------------------------------------------------------------------------

    Molecular point group: c1
  Charge       = 0
  Multiplicity = 1
  Basis Set: CC-PVTZ
  Basis Set:
  @DF-RHF Final Energy:  -423.12545712655503
    Total Energy =                       -423.1254571265550339
    Molecular point group: c1
  Basis Set: CC-PVTZ
  Basis Set:
  Basis Set: CC-PVTZ
  Basis Set:
  @DF-RHF Final Energy:  -423.11489228784626
    Total Energy =                       -423.1148922878468284
  Basis Set: CC-PVTZ
  Basis Set:
  Basis Set: CC-PVTZ
  Basis Set:
  @DF-RHF Final Energy:  -423.12773063770277
    Total Energy =                       -423.1277306377023706
  Basis Set: CC-PVTZ
  Basis Set:
  Basis Set: CC-PVTZ
  Basis Set:
  @DF-RHF Final Energy:  -423.12824391449681
    Total Energy =                       -423.1282439144964655
  Basis Set: CC-PVTZ
  Basis Set:
  @DF-RHF Final Energy:  -423.12487961921664
    Total Energy =                       -423.1248796192172676
  @DF-RHF Final Energy:  -423.12839987994693
    Total Energy =                       -423.1283998799469828
  Basis Set: CC-PVTZ
  Basis Set:
  @DF-RHF Final Energy:  -423.12843080528137
    Total Energy =                       -423.1284308052814822
  Basis Set: CC-PVTZ
  Basis Set:
  Basis Set: CC-PVTZ
  Basis Set:
  @DF-RHF Final Energy:  -423.12843210497397
    Total Energy =                       -423.1284321049738537
  Basis Set: CC-PVTZ
  Basis Set:
  Basis Set: CC-PVTZ
  Basis Set:
  @DF-RHF Final Energy:  -423.12843612377668
    Total Energy =                       -423.1284361237767371
  Basis Set: CC-PVTZ
  Basis Set:
  Charge       = 0
  Multiplicity = 1
  Basis Set: CC-PVTZ
  Basis Set:

    Orbital Energies (a.u.)
    -----------------------

    Doubly Occupied:

       1A    -20.595393     2A    -20.529247     3A    -11.366123
       4A    -11.278485     5A    -11.230467     6A    -11.222706
       7A    -11.221631     8A    -11.219324     9A    -11.210651
      10A     -1.470707    11A     -1.363625    12A     -1.093387
      13A     -1.040752    14A     -1.002414    15A     -0.931713
      16A     -0.853387    17A     -0.789256    18A     -0.779149
      19A     -0.693927    20A     -0.687944    21A     -0.669657
      22A     -0.644713    23A     -0.608314    24A     -0.588738
      25A     -0.578171    26A     -0.571088    27A     -0.566770
      28A     -0.528841    29A     -0.527084    30A     -0.513097
      31A     -0.498878    32A     -0.475278    33A     -0.467340
      34A     -0.458788    35A     -0.452188    36A     -0.439185

  @DF-RHF Final Energy:  -423.12843629744918

   => Energetics <=

    Nuclear Repulsion Energy =            458.3096191065873199
    One-Electron Energy =               -1484.5392777453446342
    Two-Electron Energy =                 603.1012223413076754
    DFT Exchange-Correlation Energy =       0.0000000000000000
    Empirical Dispersion Energy =           0.0000000000000000
    PCM Polarization Energy =               0.0000000000000000
    EFP Energy =                            0.0000000000000000
    Total Energy =                       -423.1284362974497526
    Molecular point group: c1
  Basis Set: CC-PVTZ
  Basis Set:

  -Total Gradient:
     Atom            X                  Y                   Z
    ------   -----------------  -----------------  -----------------
       1       -0.000004656848     0.000030943674     0.000002353929
       2        0.000053176995    -0.000066589688     0.000007400536
       3       -0.000005927567     0.000004712854     0.000009696283
       4       -0.000043100801     0.000027254274    -0.000013895108
       5        0.000000889298    -0.000001311094    -0.000004119772
       6       -0.000002427584     0.000001036241     0.000000237620
       7       -0.000002153774    -0.000001017890    -0.000004108664
       8        0.000007544819     0.000011793768     0.000015843023
       9        0.001810785103    -0.004872244779     0.005717557022
      10        0.000001482792    -0.000000160461    -0.000003025550
      11       -0.000005991528    -0.000002321442    -0.000002477331
      12        0.002197529515    -0.002811645933    -0.006713677466
      13       -0.001849266906     0.004515226186    -0.003808605672
      14       -0.000000936002     0.000000451813    -0.000000195911
      15       -0.000003597394     0.000008095110    -0.000015288061
      16       -0.002157568057     0.003153690265     0.004808319674
      17        0.000001109759     0.000003801246     0.000000898499
      18        0.000003933589    -0.000002870730     0.000004757865
      19        0.000002772989    -0.000004211301    -0.000001003281
      20       -0.000008096043     0.000007254759    -0.000002390917
      21        0.000005831526    -0.000000489476     0.000002735653
      22       -0.000001211412    -0.000001062214    -0.000000508444
      23       -0.000000122469    -0.000000335189    -0.000000503927

  **** Optimization is complete! (in 10 steps) ****
    Final optimized geometry and variables:
    Molecular point group: c1

    Geometry (in Angstrom), charge = 0, multiplicity = 1:

    O           -2.466203856895     0.915698007944    -0.694951041495
    C           -2.356412747513    -0.261116129740    -0.618105352420
    C           -3.495913694695    -1.221306660895    -0.829207490960
    O           -1.221915575290    -0.872518521044    -0.338403369273
    H           -3.900527162102    -1.062595898339    -1.819797312377
    H           -3.184103479922    -2.247539078045    -0.718129796864
    H           -4.275289279773    -0.992354167813    -0.114769412421
    C           -0.072677461549    -0.064589563374    -0.114736173550
    C            1.079977077688    -1.005687619461     0.187268996798
    H            0.115896553617     0.527085277858    -1.000295279346
    H           -0.279679435584     0.613774884560     0.698439439600
    C            2.446445948480    -0.312570466254     0.344560744528
    H            1.126473604593    -1.692006687463    -0.650398447404
    H            0.835792810499    -1.577225366215     1.074542863580
    C            2.420314256973     1.096001920937     0.945830807955
    H            3.051155511247    -0.916384412599     1.013248849511
    H            2.954334544918    -0.276644219581    -0.613188075971
    C            3.822871787269     1.658759135502     1.151928173295
    H            1.901149464869     1.074790655690     1.900134346725
    H            1.861197301831     1.771608840467     0.307377690492
    H            4.401155295221     1.034459669784     1.824844420526
    H            3.786340590445     2.655915803597     1.574736326516
    H            4.362180395457     1.717641201119     0.212326384979

  Mulliken Charges: (a.u.)
   Center  Symbol    Alpha    Beta     Spin     Total
       1     O     4.20239  4.20239  0.00000 -0.40479
       2     C     2.81779  2.81779  0.00000  0.36442
       3     C     3.14012  3.14012  0.00000 -0.28024
       4     O     4.14596  4.14596  0.00000 -0.29192
       5     H     0.44213  0.44213  0.00000  0.11575
       6     H     0.44177  0.44177  0.00000  0.11645
       7     H     0.44227  0.44227  0.00000  0.11546
       8     C     2.97822  2.97822  0.00000  0.04356
       9     C     3.08932  3.08932  0.00000 -0.17863
      10     H     0.45323  0.45323  0.00000  0.09354
      11     H     0.45097  0.45097  0.00000  0.09807
      12     C     3.10000  3.10000  0.00000 -0.20000
      13     H     0.44705  0.44705  0.00000  0.10591
      14     H     0.44813  0.44813  0.00000  0.10373
      15     C     3.09459  3.09459  0.00000 -0.18917
      16     H     0.44947  0.44947  0.00000  0.10105
      17     H     0.44932  0.44932  0.00000  0.10136
      18     C     3.15045  3.15045  0.00000 -0.30090
      19     H     0.45129  0.45129  0.00000  0.09741
      20     H     0.44948  0.44948  0.00000  0.10105
      21     H     0.45465  0.45465  0.00000  0.09070
      22     H     0.44670  0.44670  0.00000  0.10661
      23     H     0.45471  0.45471  0.00000  0.09058

   Total alpha = 36.00000, Total beta = 36.00000, Total charge =  0.00000

*** Psi4 exiting successfully. Buy a developer a beer!
