                              Psi4 1.0.54 Driver

  ==> Input File <==

--------------------------------------------------------------------------
set {
	reference rhf
	basis cc-pvtz
}

set_num_threads( 4 )
memory 2 gb

molecule MOL {
0 1

H	 -3.268214	 -0.875720	 0.463107
C	 -2.806015	 0.000007	 0.024886
N	 -1.391133	 0.000016	 0.301321
H	 -3.029448	 0.000055	 -1.045738
H	 -3.268126	 0.875758	 0.463150
C	 -0.734069	 1.191305	 -0.191298
C	 -0.734142	 -1.191300	 -0.191285
H	 -0.818578	 1.272514	 -1.279008
H	 -1.215481	 2.061015	 0.239900
C	 0.734142	 1.191300	 0.191285
H	 -1.215598	 -2.060985	 0.239920
H	 -0.818652	 -1.272509	 -1.278994
C	 0.734069	 -1.191305	 0.191298
H	 1.215598	 2.060985	 -0.239920
H	 0.818652	 1.272509	 1.278994
N	 1.391133	 -0.000016	 -0.301321
H	 1.215481	 -2.061015	 -0.239900
H	 0.818578	 -1.272514	 1.279008
C	 2.806015	 -0.000007	 -0.024886
H	 3.268214	 0.875720	 -0.463107
H	 3.268126	 -0.875758	 -0.463150
H	 3.029448	 -0.000055	 1.045738

	symmetry c1
}
ee,wfn = energy('scf', return_wfn=True)
oeprop( wfn, 'DIPOLE', 'QUADRUPOLE', 'MULLIKEN_CHARGES')
oeprop( wfn, 'GRID_ESP')
f=open( 'psi4out.xyz', 'w' )
f.write( "22  " )
f.write( str(ee) + "\n" )
f.write( MOL.save_string_xyz() )
f.close()
--------------------------------------------------------------------------

    Molecular point group: c1

    Geometry (in Angstrom), charge = 0, multiplicity = 1:

       Center              X                  Y                   Z               Mass
    ------------   -----------------  -----------------  -----------------  -----------------
           H         -3.268214000000    -0.875720000000     0.463107000000     1.007825032070
           C         -2.806015000000     0.000007000000     0.024886000000    12.000000000000
           N         -1.391133000000     0.000016000000     0.301321000000    14.003074004780
           H         -3.029448000000     0.000055000000    -1.045738000000     1.007825032070
           H         -3.268126000000     0.875758000000     0.463150000000     1.007825032070
           C         -0.734069000000     1.191305000000    -0.191298000000    12.000000000000
           C         -0.734142000000    -1.191300000000    -0.191285000000    12.000000000000
           H         -0.818578000000     1.272514000000    -1.279008000000     1.007825032070
           H         -1.215481000000     2.061015000000     0.239900000000     1.007825032070
           C          0.734142000000     1.191300000000     0.191285000000    12.000000000000
           H         -1.215598000000    -2.060985000000     0.239920000000     1.007825032070
           H         -0.818652000000    -1.272509000000    -1.278994000000     1.007825032070
           C          0.734069000000    -1.191305000000     0.191298000000    12.000000000000
           H          1.215598000000     2.060985000000    -0.239920000000     1.007825032070
           H          0.818652000000     1.272509000000     1.278994000000     1.007825032070
           N          1.391133000000    -0.000016000000    -0.301321000000    14.003074004780
           H          1.215481000000    -2.061015000000    -0.239900000000     1.007825032070
           H          0.818578000000    -1.272514000000     1.279008000000     1.007825032070
           C          2.806015000000    -0.000007000000    -0.024886000000    12.000000000000
           H          3.268214000000     0.875720000000    -0.463107000000     1.007825032070
           H          3.268126000000    -0.875758000000    -0.463150000000     1.007825032070
           H          3.029448000000    -0.000055000000     1.045738000000     1.007825032070

  Charge       = 0
  Multiplicity = 1
  Basis Set: CC-PVTZ
  Basis Set:

    Orbital Energies (a.u.)
    -----------------------

    Doubly Occupied:

       1A    -15.537677     2A    -15.537674     3A    -11.237611
       4A    -11.237592     5A    -11.236958     6A    -11.236948
       7A    -11.234292     8A    -11.234292     9A     -1.257573
      10A     -1.206610    11A     -1.026020    12A     -0.993084
      13A     -0.912216    14A     -0.868244    15A     -0.836356
      16A     -0.755540    17A     -0.667037    18A     -0.638456
      19A     -0.632397    20A     -0.627472    21A     -0.623468
      22A     -0.582578    23A     -0.549988    24A     -0.546634
      25A     -0.542599    26A     -0.517715    27A     -0.496814
      28A     -0.491291    29A     -0.466482    30A     -0.457413
      31A     -0.352934    32A     -0.347853

  @DF-RHF Final Energy:  -344.35072038597178

   => Energetics <=

    Nuclear Repulsion Energy =            422.0316892030543272
    One-Electron Energy =               -1302.9850927321226663
    Two-Electron Energy =                 536.6026831430966695
    DFT Exchange-Correlation Energy =       0.0000000000000000
    Empirical Dispersion Energy =           0.0000000000000000
    PCM Polarization Energy =               0.0000000000000000
    EFP Energy =                            0.0000000000000000
    Total Energy =                       -344.3507203859716128

  Mulliken Charges: (a.u.)
   Center  Symbol    Alpha    Beta     Spin     Total
       1     H     0.45193  0.45193  0.00000  0.09614
       2     C     3.09843  3.09843  0.00000 -0.19685
       3     N     3.61317  3.61317  0.00000 -0.22634
       4     H     0.47002  0.47002  0.00000  0.05996
       5     H     0.45193  0.45193  0.00000  0.09614
       6     C     3.03548  3.03548  0.00000 -0.07097
       7     C     3.03549  3.03549  0.00000 -0.07097
       8     H     0.46800  0.46800  0.00000  0.06399
       9     H     0.45377  0.45377  0.00000  0.09245
      10     C     3.03549  3.03549  0.00000 -0.07097
      11     H     0.45377  0.45377  0.00000  0.09246
      12     H     0.46801  0.46801  0.00000  0.06399
      13     C     3.03548  3.03548  0.00000 -0.07097
      14     H     0.45377  0.45377  0.00000  0.09246
      15     H     0.46801  0.46801  0.00000  0.06399
      16     N     3.61317  3.61317  0.00000 -0.22634
      17     H     0.45377  0.45377  0.00000  0.09245
      18     H     0.46800  0.46800  0.00000  0.06399
      19     C     3.09843  3.09843  0.00000 -0.19685
      20     H     0.45193  0.45193  0.00000  0.09614
      21     H     0.45193  0.45193  0.00000  0.09614
      22     H     0.47002  0.47002  0.00000  0.05996

   Total alpha = 32.00000, Total beta = 32.00000, Total charge = -0.00000

*** Psi4 exiting successfully. Buy a developer a beer!
