  ==> Input File <==

--------------------------------------------------------------------------
set {
	reference rhf
	basis 6-31G*
}

set_num_threads( 4 )
memory 2 gb

molecule MOL {
0 1

H	 -3.638916	 0.165642	 -1.123955
O	 -3.517110	 -0.026191	 -0.205115
C	 -2.306886	 0.532354	 0.237577
C	 -1.177863	 -0.397191	 -0.171080
H	 -2.156308	 1.517575	 -0.201710
H	 -2.315015	 0.655684	 1.319734
C	 0.198102	 0.111031	 0.262842
H	 -1.208843	 -0.518759	 -1.250427
H	 -1.368741	 -1.376554	 0.258909
C	 1.331804	 -0.827780	 -0.158768
H	 0.361943	 1.100838	 -0.156218
H	 0.217265	 0.229072	 1.345532
C	 2.723619	 -0.410569	 0.329459
H	 1.342964	 -0.912588	 -1.244120
H	 1.116806	 -1.824343	 0.220779
C	 3.243875	 0.895854	 -0.272975
H	 3.424222	 -1.207124	 0.091250
H	 2.714788	 -0.329854	 1.414619
H	 3.251977	 0.848779	 -1.358681
H	 2.637085	 1.747371	 0.016682
H	 4.259473	 1.094070	 0.055697

	symmetry c1
}
set optking {
	frozen_dihedral = ("
		1 2 3 5
	")
}

ee = optimize('scf')
oeprop('DIPOLE', 'QUADRUPOLE', 'MULLIKEN_CHARGES')
f=open( 'psi4out.xyz', 'w' )
f.write( "21  " )
f.write( str(ee) + "\n" )
f.write( MOL.save_string_xyz() )
f.close()
--------------------------------------------------------------------------

    Molecular point group: c1
  Charge       = 0
  Multiplicity = 1
  Basis Set: 6-31G*
  Basis Set:
  @DF-RHF Final Energy:  -310.21080044026820
    Total Energy =                       -310.2108004402681445
    Molecular point group: c1
  Basis Set: 6-31G*
  Basis Set:
  Basis Set: 6-31G*
  Basis Set:
  @DF-RHF Final Energy:  -310.21198346499210
    Total Energy =                       -310.2119834649920449
  Basis Set: 6-31G*
  Basis Set:
  Basis Set: 6-31G*
  Basis Set:
  @DF-RHF Final Energy:  -310.21230482694619
    Total Energy =                       -310.2123048269462515
  Basis Set: 6-31G*
  Basis Set:
  Basis Set: 6-31G*
  Basis Set:
  @DF-RHF Final Energy:  -310.21230808929045
    Total Energy =                       -310.2123080892902749
  Basis Set: 6-31G*
  Basis Set:
  Basis Set: 6-31G*
  Basis Set:
  @DF-RHF Final Energy:  -310.21230574085882
    Total Energy =                       -310.2123057408591649
  Basis Set: 6-31G*
  Basis Set:
  Basis Set: 6-31G*
  Basis Set:
  @DF-RHF Final Energy:  -310.21230891595883
    Total Energy =                       -310.2123089159589426
  Basis Set: 6-31G*
  Basis Set:
  Charge       = 0
  Multiplicity = 1
  Basis Set: 6-31G*
  Basis Set:

    Orbital Energies (a.u.)
    -----------------------

    Doubly Occupied:

       1A    -20.551984     2A    -11.267229     3A    -11.217855
       4A    -11.216755     5A    -11.215761     6A    -11.213392
       7A    -11.209731     8A     -1.358656     9A     -1.088003
      10A     -1.034109    11A     -0.955051    12A     -0.878621
      13A     -0.815406    14A     -0.780255    15A     -0.697891
      16A     -0.643598    17A     -0.623560    18A     -0.607785
      19A     -0.592325    20A     -0.569732    21A     -0.548287
      22A     -0.521600    23A     -0.506325    24A     -0.497676
      25A     -0.472356    26A     -0.466519    27A     -0.462158
      28A     -0.457431    29A     -0.419561

  @DF-RHF Final Energy:  -310.21230888657868

   => Energetics <=

    Nuclear Repulsion Energy =            312.1267854960379395
    One-Electron Energy =               -1038.8989658675172905
    Two-Electron Energy =                 416.5598714849004978
    DFT Exchange-Correlation Energy =       0.0000000000000000
    Empirical Dispersion Energy =           0.0000000000000000
    PCM Polarization Energy =               0.0000000000000000
    EFP Energy =                            0.0000000000000000
    Total Energy =                       -310.2123088865789100
    Molecular point group: c1
  Basis Set: 6-31G*
  Basis Set:

  -Total Gradient:
     Atom            X                  Y                   Z
    ------   -----------------  -----------------  -----------------
       1       -0.000684109420     0.001332157705     0.000433595190
       2        0.000953151612    -0.001802189825    -0.000855135315
       3       -0.000854999091     0.001040540538     0.001509167181
       4        0.000020737210     0.000011419235     0.000002078522
       5        0.000563889854    -0.000578142197    -0.001096576150
       6        0.000011456999     0.000002748787    -0.000000512563
       7        0.000003408633    -0.000005795832     0.000007287176
       8        0.000001050843    -0.000004571025    -0.000001926658
       9       -0.000004488328     0.000007667516     0.000005874597
      10        0.000008822571    -0.000004435662    -0.000010329424
      11       -0.000000062833     0.000002476801     0.000003733936
      12       -0.000004192429    -0.000004013202     0.000006379046
      13       -0.000006882181     0.000007389454    -0.000003265886
      14       -0.000002589179    -0.000004384990    -0.000003271719
      15        0.000004944752     0.000001497325     0.000004284954
      16        0.000000768691    -0.000001417524    -0.000001300845
      17       -0.000005262012    -0.000001583976    -0.000001496551
      18       -0.000002469632     0.000000570752     0.000000979003
      19       -0.000001589027     0.000000642300    -0.000000182375
      20       -0.000003044667    -0.000000135062     0.000001657094
      21        0.000001457641    -0.000000441118    -0.000001039211

  **** Optimization is complete! (in 7 steps) ****
    Final optimized geometry and variables:
    Molecular point group: c1

    Geometry (in Angstrom), charge = 0, multiplicity = 1:

    H           -3.743065770020     0.216381989473    -1.050282484047
    O           -3.566694816380     0.009508889475    -0.144052700246
    C           -2.310284859811     0.523027240556     0.220544186017
    C           -1.172362867956    -0.407581752063    -0.181139907052
    H           -2.155994341801     1.507473888764    -0.218081457566
    H           -2.330978163613     0.646496619237     1.296434992570
    C            0.200482445120     0.105084992382     0.258205433296
    H           -1.186765544519    -0.536846557212    -1.262609208561
    H           -1.363641434200    -1.386580838886     0.249487821360
    C            1.341273468568    -0.830453097184    -0.151387419046
    H            0.363871115338     1.094743365046    -0.161873425867
    H            0.210130833717     0.226832719548     1.340495656984
    C            2.727612815011    -0.405447811777     0.345648099619
    H            1.361390436311    -0.919427064105    -1.236451725865
    H            1.127554594028    -1.826396641338     0.230398696692
    C            3.246588821316     0.901217992043    -0.257333580033
    H            3.433326826462    -1.199775411613     0.115337779590
    H            2.710215964150    -0.321163201700     1.430349826621
    H            3.262636099854     0.850756664836    -1.342852852326
    H            2.634421703436     1.751163024550     0.025524128346
    H            4.259003621683     1.104621966775     0.077753491392

  Mulliken Charges: (a.u.)
   Center  Symbol    Alpha    Beta     Spin     Total
       1     H     0.28202  0.28202  0.00000  0.43596
       2     O     4.37126  4.37126  0.00000 -0.74252
       3     C     2.99224  2.99224  0.00000  0.01552
       4     C     3.16155  3.16155  0.00000 -0.32310
       5     H     0.43222  0.43222  0.00000  0.13556
       6     H     0.41731  0.41731  0.00000  0.16539
       7     C     3.16228  3.16228  0.00000 -0.32455
       8     H     0.42737  0.42737  0.00000  0.14526
       9     H     0.41416  0.41416  0.00000  0.17168
      10     C     3.15150  3.15150  0.00000 -0.30300
      11     H     0.42208  0.42208  0.00000  0.15583
      12     H     0.42240  0.42240  0.00000  0.15521
      13     C     3.15257  3.15257  0.00000 -0.30514
      14     H     0.42410  0.42410  0.00000  0.15180
      15     H     0.42064  0.42064  0.00000  0.15872
      16     C     3.24130  3.24130  0.00000 -0.48260
      17     H     0.42047  0.42047  0.00000  0.15906
      18     H     0.42291  0.42291  0.00000  0.15418
      19     H     0.42242  0.42242  0.00000  0.15516
      20     H     0.42041  0.42041  0.00000  0.15918
      21     H     0.41880  0.41880  0.00000  0.16241

   Total alpha = 29.00000, Total beta = 29.00000, Total charge = -0.00000
