  ==> Input File <==

--------------------------------------------------------------------------
set {
	reference rhf
	basis 6-31G*
}

set_num_threads( 1 )
memory 2 gb

molecule MOL {
0 1

H	 -2.646374	 -0.642757	 1.268656
C	 -2.083525	 -0.384536	 0.393091
O	 -0.807605	 -0.127164	 0.768327
F	 -2.118945	 -1.383102	 -0.486752
F	 -2.621877	 0.670592	 -0.209486
C	 0.084052	 0.273579	 -0.209957
C	 -0.715492	 1.046835	 -1.250613
Cl	 0.881334	 -1.124979	 -0.948598
H	 0.851999	 0.920849	 0.176143
F	 0.074406	 1.473873	 -2.212818
F	 -1.260554	 2.098148	 -0.671746
F	 -1.671051	 0.321954	 -1.779223

	symmetry c1
}
set optking {
	frozen_dihedral = ("
		10 7 6 9,
		6 3 2 4
	")
}

ee = energy('scf')
oeprop('DIPOLE', 'QUADRUPOLE', 'MULLIKEN_CHARGES')
f=open( 'psi4out.xyz', 'w' )
f.write( "12  " )
f.write( str(ee) + "\n" )
f.write( MOL.save_string_xyz() )
f.close()
--------------------------------------------------------------------------

    Molecular point group: c1

    Geometry (in Angstrom), charge = 0, multiplicity = 1:

       Center              X                  Y                   Z               Mass
    ------------   -----------------  -----------------  -----------------  -----------------
           H         -1.772126330845    -0.808980397668     1.997397501077     1.007825032070
           C         -1.209277330845    -0.550759397668     1.121832501077    12.000000000000
           O          0.066642669155    -0.293387397668     1.497068501077    15.994914619560
           F         -1.244697330845    -1.549325397668     0.241989501077    18.998403224000
           F         -1.747629330845     0.504368602332     0.519255501077    18.998403224000
           C          0.958299669155     0.107355602332     0.518784501077    12.000000000000
           C          0.158755669155     0.880611602332    -0.521871498923    12.000000000000
          CL          1.755581669155    -1.291202397668    -0.219856498923    34.968852682000
           H          1.726246669155     0.754625602332     0.904884501077     1.007825032070
           F          0.948653669155     1.307649602332    -1.484076498923    18.998403224000
           F         -0.386306330845     1.931924602332     0.056995501077    18.998403224000
           F         -0.796803330845     0.155730602332    -1.050481498923    18.998403224000

  Charge       = 0
  Multiplicity = 1
  Basis Set: 6-31G*
  Basis Set:

    Orbital Energies (a.u.)
    -----------------------

    Doubly Occupied:

       1A   -104.841065     2A    -26.355672     3A    -26.345694
       4A    -26.337291     5A    -26.327865     6A    -26.319228
       7A    -20.647032     8A    -11.521710     9A    -11.481083
      10A    -11.401179    11A    -10.575967    12A     -8.045323
      13A     -8.041791    14A     -8.041675    15A     -1.770386
      16A     -1.708341    17A     -1.654370    18A     -1.649226
      19A     -1.622777    20A     -1.485992    21A     -1.176508
      22A     -1.044219    23A     -0.994809    24A     -0.917342
      25A     -0.882704    26A     -0.854627    27A     -0.834722
      28A     -0.821212    29A     -0.807054    30A     -0.751232
      31A     -0.742952    32A     -0.724327    33A     -0.697204
      34A     -0.690568    35A     -0.680121    36A     -0.674830
      37A     -0.655024    38A     -0.643525    39A     -0.633370
      40A     -0.613521    41A     -0.567304    42A     -0.559645
      43A     -0.520930    44A     -0.473898    45A     -0.466363

  @DF-RHF Final Energy: -1146.22004428963692

   => Energetics <=

    Nuclear Repulsion Energy =            799.2327797145371733
    One-Electron Energy =               -3181.7023526828370450
    Two-Electron Energy =                1236.2495286786629549
    DFT Exchange-Correlation Energy =       0.0000000000000000
    Empirical Dispersion Energy =           0.0000000000000000
    PCM Polarization Energy =               0.0000000000000000
    EFP Energy =                            0.0000000000000000
    Total Energy =                      -1146.2200442896369168

  Mulliken Charges: (a.u.)
   Center  Symbol    Alpha    Beta     Spin     Total
       1     H     0.39515  0.39515  0.00000  0.20970
       2     C     2.55915  2.55915  0.00000  0.88171
       3     O     4.30840  4.30840  0.00000 -0.61680
       4     F     4.68810  4.68810  0.00000 -0.37621
       5     F     4.68534  4.68534  0.00000 -0.37068
       6     C     3.01569  3.01569  0.00000 -0.03139
       7     C     2.46679  2.46679  0.00000  1.06642
       8    CL     8.50072  8.50072  0.00000 -0.00145
       9     H     0.36392  0.36392  0.00000  0.27216
      10     F     4.67473  4.67473  0.00000 -0.34947
      11     F     4.67584  4.67584  0.00000 -0.35167
      12     F     4.66616  4.66616  0.00000 -0.33233

   Total alpha = 45.00000, Total beta = 45.00000, Total charge = -0.00000
