  ==> Input File <==

--------------------------------------------------------------------------
set {
	reference rhf
	basis cc-pvtz
}

set_num_threads( 4 )
memory 2 gb

molecule MOL {
0 1

H	 -0.610955	 -1.478162	 -0.562742
N	 -0.625934	 -0.663929	 -0.000707
C	 -1.811304	 -0.388186	 0.776441
C	 0.468494	 0.129045	 -0.002160
H	 -2.677383	 -0.273166	 0.135609
H	 -1.655514	 0.528523	 1.319090
H	 -2.006177	 -1.185281	 1.484045
C	 1.785715	 -0.615093	 0.000603
O	 0.413285	 1.323206	 0.000532
H	 1.866994	 -1.243310	 -0.878792
H	 2.591506	 0.100263	 0.006422
H	 1.860358	 -1.250360	 0.875522

	symmetry c1
}
set optking {
	frozen_dihedral = ("
		3 2 4 9
	")
}

ee = optimize('scf')
oeprop('DIPOLE', 'QUADRUPOLE', 'MULLIKEN_CHARGES')
f=open( 'psi4out.xyz', 'w' )
f.write( "12  " )
f.write( str(ee) + "\n" )
f.write( MOL.save_string_xyz() )
f.close()
--------------------------------------------------------------------------

    Molecular point group: c1
  Charge       = 0
  Multiplicity = 1
  Basis Set: CC-PVTZ
  Basis Set:
  @DF-RHF Final Energy:  -247.08502726478014
    Total Energy =                       -247.0850272647800239
    Molecular point group: c1
  Basis Set: CC-PVTZ
  Basis Set:
  Basis Set: CC-PVTZ
  Basis Set:
  @DF-RHF Final Energy:  -247.08891980787163
    Total Energy =                       -247.0889198078714912
  Basis Set: CC-PVTZ
  Basis Set:
  Basis Set: CC-PVTZ
  Basis Set:
  @DF-RHF Final Energy:  -247.09354824684576
    Total Energy =                       -247.0935482468458986
  Basis Set: CC-PVTZ
  Basis Set:
  Basis Set: CC-PVTZ
  Basis Set:
  @DF-RHF Final Energy:  -247.09473545576381
    Total Energy =                       -247.0947354557638960
  Basis Set: CC-PVTZ
  Basis Set:
  @DF-RHF Final Energy:  -247.09514045684099
    Total Energy =                       -247.0951404568409089
  @DF-RHF Final Energy:  -247.09534298103429
    Total Energy =                       -247.0953429810341504
  @DF-RHF Final Energy:  -247.09551418387679
    Total Energy =                       -247.0955141838766167
  Basis Set: CC-PVTZ
  Basis Set:
  @DF-RHF Final Energy:  -247.09563589285082
    Total Energy =                       -247.0956358928507939
  Basis Set: CC-PVTZ
  Basis Set:
  Basis Set: CC-PVTZ
  Basis Set:
  @DF-RHF Final Energy:  -247.09568986047358
    Total Energy =                       -247.0956898604733851
  Basis Set: CC-PVTZ
  Basis Set:
  Basis Set: CC-PVTZ
  Basis Set:
  @DF-RHF Final Energy:  -247.09569272522472
    Total Energy =                       -247.0956927252248079
  Basis Set: CC-PVTZ
  Basis Set:
  Charge       = 0
  Multiplicity = 1
  Basis Set: CC-PVTZ
  Basis Set:

    Orbital Energies (a.u.)
    -----------------------

    Doubly Occupied:

       1A    -20.516874     2A    -15.572921     3A    -11.339533
       4A    -11.254683     5A    -11.231360     6A     -1.396159
       7A     -1.230109     8A     -1.016889     9A     -0.931426
      10A     -0.778587    11A     -0.692042    12A     -0.652682
      13A     -0.634925    14A     -0.591781    15A     -0.585408
      16A     -0.555883    17A     -0.547023    18A     -0.510339
      19A     -0.425020    20A     -0.395825

  @DF-RHF Final Energy:  -247.09569283210277

   => Energetics <=

    Nuclear Repulsion Energy =            181.4998508366416559
    One-Electron Energy =                -695.4721533239772953
    Two-Electron Energy =                 266.8766096552328690
    DFT Exchange-Correlation Energy =       0.0000000000000000
    Empirical Dispersion Energy =           0.0000000000000000
    PCM Polarization Energy =               0.0000000000000000
    EFP Energy =                            0.0000000000000000
    Total Energy =                       -247.0956928321027135
    Molecular point group: c1
  Basis Set: CC-PVTZ
  Basis Set:

  -Total Gradient:
     Atom            X                  Y                   Z
    ------   -----------------  -----------------  -----------------
       1        0.000008128179     0.000005594383    -0.000004005698
       2       -0.002769538413     0.010731402020    -0.011066890624
       3        0.002119854386    -0.006088537899     0.004432867688
       4       -0.000267616160    -0.007931022773     0.015910281315
       5       -0.000009317871     0.000003716424     0.000001874059
       6       -0.000001702279    -0.000000560471     0.000001812406
       7       -0.000002529180    -0.000000414663     0.000000576709
       8       -0.000011964462     0.000017733741    -0.000019643580
       9        0.000931187420     0.003265780701    -0.009274787298
      10        0.000006957530    -0.000009830442     0.000006976984
      11       -0.000000416628     0.000000087343     0.000001235051
      12       -0.000003042521     0.000006051635     0.000009702990

  **** Optimization is complete! (in 11 steps) ****
    Final optimized geometry and variables:
    Molecular point group: c1

    Geometry (in Angstrom), charge = 0, multiplicity = 1:

    H           -0.564863413980    -1.438409651763    -0.657944837033
    N           -0.706278735402    -0.488034368187    -0.403739219354
    C           -1.891329374231    -0.296589998992     0.415851925653
    C            0.455024398335     0.158803050242    -0.061897531256
    H           -2.744664448862    -0.725892387209    -0.090206356550
    H           -2.065334730885     0.758492660431     0.550740667935
    H           -1.792629270719    -0.759588580467     1.392735069044
    C            1.724830463229    -0.615080281682    -0.331427568656
    O            0.469055505880     1.281486251348     0.334719590092
    H            1.680648755981    -1.114107543477    -1.292043798784
    H            2.565388066210     0.059302873791    -0.308121983157
    H            1.855064366935    -1.372732542952     0.434069519641

  Mulliken Charges: (a.u.)
   Center  Symbol    Alpha    Beta     Spin     Total
       1     H     0.42654  0.42654  0.00000  0.14691
       2     N     3.61426  3.61426  0.00000 -0.22852
       3     C     3.08576  3.08576  0.00000 -0.17152
       4     C     2.83535  2.83535  0.00000  0.32929
       5     H     0.45156  0.45156  0.00000  0.09687
       6     H     0.43498  0.43498  0.00000  0.13005
       7     H     0.46224  0.46224  0.00000  0.07552
       8     C     3.15356  3.15356  0.00000 -0.30713
       9     O     4.20162  4.20162  0.00000 -0.40325
      10     H     0.45102  0.45102  0.00000  0.09796
      11     H     0.43425  0.43425  0.00000  0.13149
      12     H     0.44884  0.44884  0.00000  0.10232

   Total alpha = 20.00000, Total beta = 20.00000, Total charge =  0.00000
