  ==> Input File <==

--------------------------------------------------------------------------
set {
	reference rhf
	basis cc-pvtz
}

set_num_threads( 4 )
memory 2 gb

molecule MOL {
0 1

H	 2.342730	 0.877684	 -1.045694
C	 2.360424	 0.000000	 -0.411793
C	 1.173749	 0.000000	 0.526870
H	 3.286567	 0.000000	 0.151574
H	 2.342730	 -0.877684	 -1.045694
O	 -0.000000	 0.000000	 -0.223739
H	 1.203779	 0.876757	 1.172538
H	 1.203779	 -0.876757	 1.172538
C	 -1.173749	 0.000000	 0.526870
C	 -0.915768	 -0.692323	 1.847256
H	 -1.965587	 -0.511676	 -0.018724
H	 -1.508250	 1.022669	 0.696428
H	 -0.597146	 -1.714221	 1.683926
H	 -1.817318	 -0.704109	 2.449081
H	 -0.139325	 -0.178254	 2.399834

	symmetry c1
}
set optking {
	frozen_dihedral = ("
		11 9 6 3
	")
}

ee = optimize('scf')
oeprop('DIPOLE', 'QUADRUPOLE', 'MULLIKEN_CHARGES')
f=open( 'psi4out.xyz', 'w' )
f.write( "15  " )
f.write( str(ee) + "\n" )
f.write( MOL.save_string_xyz() )
f.close()
--------------------------------------------------------------------------

    Molecular point group: c1
  Charge       = 0
  Multiplicity = 1
  Basis Set: CC-PVTZ
  Basis Set:
  @DF-RHF Final Energy:  -232.21478184142885
    Total Energy =                       -232.2147818414287599
    Molecular point group: c1
  Basis Set: CC-PVTZ
  Basis Set:
  Basis Set: CC-PVTZ
  Basis Set:
  @DF-RHF Final Energy:  -232.21423375674854
    Total Energy =                       -232.2142337567487402
  Basis Set: CC-PVTZ
  Basis Set:
  Basis Set: CC-PVTZ
  Basis Set:
  @DF-RHF Final Energy:  -232.22307116520585
    Total Energy =                       -232.2230711652056243
  Basis Set: CC-PVTZ
  Basis Set:
  Basis Set: CC-PVTZ
  Basis Set:
  @DF-RHF Final Energy:  -232.22510186449475
    Total Energy =                       -232.2251018644946043
  Basis Set: CC-PVTZ
  Basis Set:
  Basis Set: CC-PVTZ
  Basis Set:
  @DF-RHF Final Energy:  -232.22544766438941
    Total Energy =                       -232.2254476643895487
  Basis Set: CC-PVTZ
  Basis Set:
  Basis Set: CC-PVTZ
  Basis Set:
  @DF-RHF Final Energy:  -232.22566911898735
    Total Energy =                       -232.2256691189869571
  Basis Set: CC-PVTZ
  Basis Set:
  Basis Set: CC-PVTZ
  Basis Set:
  @DF-RHF Final Energy:  -232.22569322619626
    Total Energy =                       -232.2256932261960287
  Basis Set: CC-PVTZ
  Basis Set:
  Charge       = 0
  Multiplicity = 1
  Basis Set: CC-PVTZ
  Basis Set:

    Orbital Energies (a.u.)
    -----------------------

    Doubly Occupied:

       1A    -20.540731     2A    -11.266690     3A    -11.264851
       4A    -11.213725     5A    -11.205350     6A     -1.373014
       7A     -1.040781     8A     -0.990980     9A     -0.871452
      10A     -0.797810    11A     -0.676478    12A     -0.661754
      13A     -0.622849    14A     -0.596748    15A     -0.547718
      16A     -0.536167    17A     -0.523537    18A     -0.502583
      19A     -0.496993    20A     -0.451206    21A     -0.406252

  @DF-RHF Final Energy:  -232.22569468280378

   => Energetics <=

    Nuclear Repulsion Energy =            193.4364996750934722
    One-Electron Energy =                -698.1490438380144496
    Two-Electron Energy =                 272.4868494801170300
    DFT Exchange-Correlation Energy =       0.0000000000000000
    Empirical Dispersion Energy =           0.0000000000000000
    PCM Polarization Energy =               0.0000000000000000
    EFP Energy =                            0.0000000000000000
    Total Energy =                       -232.2256946828039190
    Molecular point group: c1
  Basis Set: CC-PVTZ
  Basis Set:

  -Total Gradient:
     Atom            X                  Y                   Z
    ------   -----------------  -----------------  -----------------
       1       -0.000000071707    -0.000005087358     0.000003844074
       2        0.000046175370    -0.000006629176     0.000013568875
       3        0.000035167132    -0.004427111662     0.000070416984
       4        0.000022360941     0.000005852604    -0.000013725215
       5       -0.000002344493     0.000003612520     0.000004853123
       6        0.000299477020     0.005645080316     0.000360369129
       7       -0.000018630458     0.000012120105     0.000022093686
       8       -0.000013522577     0.000018170451    -0.000010195672
       9       -0.001676461262     0.003095835387    -0.002774138869
      10       -0.000001212183     0.000005810367    -0.000014835019
      11        0.001300908753    -0.004351469300     0.002342975423
      12       -0.000025923525    -0.000005803642     0.000026753868
      13        0.000009253513    -0.000012103088    -0.000000320713
      14        0.000014244338     0.000010925978    -0.000022977192
      15        0.000010579138     0.000010796496    -0.000008682481

  **** Optimization is complete! (in 8 steps) ****
    Final optimized geometry and variables:
    Molecular point group: c1

    Geometry (in Angstrom), charge = 0, multiplicity = 1:

    H            1.988859408376     1.094275235287    -1.593631528400
    C            2.085809684340     0.199325549602    -0.991939052784
    C            0.980757557622     0.129926565787     0.040527333307
    H            3.055258031415     0.212154508045    -0.506278359856
    H            2.041536453978    -0.658901599947    -1.650934007910
    O           -0.240404077999     0.106248633255    -0.632756752369
    H            1.039335381397     0.993183200899     0.702326645202
    H            1.104372234422    -0.757817478745     0.652503481104
    C           -1.435587663610     0.122913554393     0.098896559601
    C           -1.399802101917    -0.548123663711     1.465576107234
    H           -2.153205193250    -0.418448389330    -0.504013756829
    H           -1.778279457556     1.149094054142     0.207457706461
    H           -1.087795658758    -1.583094341921     1.389686818115
    H           -2.401028056284    -0.531791898920     1.880935436096
    H           -0.746256576400    -0.042340807472     2.164644733536

  Mulliken Charges: (a.u.)
   Center  Symbol    Alpha    Beta     Spin     Total
       1     H     0.45153  0.45153  0.00000  0.09694
       2     C     3.13625  3.13625  0.00000 -0.27251
       3     C     2.96664  2.96664  0.00000  0.06671
       4     H     0.45955  0.45955  0.00000  0.08090
       5     H     0.45175  0.45175  0.00000  0.09650
       6     O     4.18295  4.18295  0.00000 -0.36591
       7     H     0.47368  0.47368  0.00000  0.05263
       8     H     0.46969  0.46969  0.00000  0.06061
       9     C     2.97320  2.97320  0.00000  0.05360
      10     C     3.16404  3.16404  0.00000 -0.32808
      11     H     0.45752  0.45752  0.00000  0.08497
      12     H     0.46609  0.46609  0.00000  0.06782
      13     H     0.45034  0.45034  0.00000  0.09932
      14     H     0.44583  0.44583  0.00000  0.10833
      15     H     0.45092  0.45092  0.00000  0.09817

   Total alpha = 21.00000, Total beta = 21.00000, Total charge =  0.00000
