  ==> Input File <==

--------------------------------------------------------------------------
set {
	reference rhf
	basis cc-pvtz
}

set_num_threads( 4 )
memory 2 gb

molecule MOL {
0 1

H	 -2.498963	 -0.741158	 -0.729149
O	 -2.346257	 -0.289210	 0.080372
C	 -1.183935	 0.486039	 -0.009831
C	 0.062853	 -0.375310	 0.027457
H	 -1.178881	 1.094526	 -0.908634
H	 -1.184406	 1.155156	 0.838676
O	 1.172093	 0.457955	 -0.054438
H	 0.052476	 -1.081302	 -0.804627
H	 0.076323	 -0.955658	 0.947560
C	 1.039934	 1.512110	 -0.950270
H	 0.213413	 2.164467	 -0.677201
H	 1.956369	 2.083324	 -0.926891
H	 0.875361	 1.153933	 -1.963751

	symmetry c1
}
set optking {
	frozen_dihedral = ("
		10 7 4 8
	")
}

ee = optimize('scf')
oeprop('DIPOLE', 'QUADRUPOLE', 'MULLIKEN_CHARGES')
f=open( 'psi4out.xyz', 'w' )
f.write( "13  " )
f.write( str(ee) + "\n" )
f.write( MOL.save_string_xyz() )
f.close()
--------------------------------------------------------------------------

    Molecular point group: c1
  Charge       = 0
  Multiplicity = 1
  Basis Set: CC-PVTZ
  Basis Set:
  @DF-RHF Final Energy:  -268.04479473540596
    Total Energy =                       -268.0447947354057874
    Molecular point group: c1
  Basis Set: CC-PVTZ
  Basis Set:
  Basis Set: CC-PVTZ
  Basis Set:
  @DF-RHF Final Energy:  -268.04606866350895
    Total Energy =                       -268.0460686635088905
  Basis Set: CC-PVTZ
  Basis Set:
  Basis Set: CC-PVTZ
  Basis Set:
  @DF-RHF Final Energy:  -268.05265958641593
    Total Energy =                       -268.0526595864161550
  Basis Set: CC-PVTZ
  Basis Set:
  Basis Set: CC-PVTZ
  Basis Set:
  @DF-RHF Final Energy:  -268.05507155814837
    Total Energy =                       -268.0550715581484837
  Basis Set: CC-PVTZ
  Basis Set:
  @DF-RHF Final Energy:  -268.05558855814456
    Total Energy =                       -268.0555885581446205
  Basis Set: CC-PVTZ
  Basis Set:
  @DF-RHF Final Energy:  -268.05573905724873
    Total Energy =                       -268.0557390572487293
  Basis Set: CC-PVTZ
  Basis Set:
  Basis Set: CC-PVTZ
  Basis Set:
  @DF-RHF Final Energy:  -268.05575540993948
    Total Energy =                       -268.0557554099393656
  Basis Set: CC-PVTZ
  Basis Set:
  Basis Set: CC-PVTZ
  Basis Set:
  @DF-RHF Final Energy:  -268.05575780520599
    Total Energy =                       -268.0557578052060990
  Basis Set: CC-PVTZ
  Basis Set:
  Charge       = 0
  Multiplicity = 1
  Basis Set: CC-PVTZ
  Basis Set:

    Orbital Energies (a.u.)
    -----------------------

    Doubly Occupied:

       1A    -20.557344     2A    -20.553699     3A    -11.273640
       4A    -11.269534     5A    -11.268474     6A     -1.387730
       7A     -1.372572     8A     -1.014236     9A     -0.937117
      10A     -0.831879    11A     -0.713271    12A     -0.677419
      13A     -0.666500    14A     -0.635899    15A     -0.600949
      16A     -0.575530    17A     -0.534940    18A     -0.506869
      19A     -0.496438    20A     -0.442989    21A     -0.412760

  @DF-RHF Final Energy:  -268.05575801117033

   => Energetics <=

    Nuclear Repulsion Energy =            192.9760391418749919
    One-Electron Energy =                -748.6040196355141916
    Two-Electron Energy =                 287.5722224824689874
    DFT Exchange-Correlation Energy =       0.0000000000000000
    Empirical Dispersion Energy =           0.0000000000000000
    PCM Polarization Energy =               0.0000000000000000
    EFP Energy =                            0.0000000000000000
    Total Energy =                       -268.0557580111701554
    Molecular point group: c1
  Basis Set: CC-PVTZ
  Basis Set:

  -Total Gradient:
     Atom            X                  Y                   Z
    ------   -----------------  -----------------  -----------------
       1       -0.000007417315     0.000000552346     0.000001838041
       2        0.000011849717    -0.000008704715    -0.000016931812
       3       -0.000006853143     0.000019245037     0.000024319105
       4       -0.003472516231     0.004884343363    -0.002191147767
       5        0.000002288123    -0.000010008573     0.000005727100
       6        0.000004660113     0.000013942850    -0.000002219905
       7        0.002829906968    -0.004158560221    -0.003173381354
       8        0.002163808090    -0.003039435386     0.002703083647
       9       -0.000005863222    -0.000000980116     0.000000038832
      10       -0.001520109876     0.002297714359     0.002650182828
      11        0.000000972664    -0.000008117941     0.000003482745
      12        0.000000469943     0.000008017320    -0.000004639863
      13       -0.000001195834     0.000001991674    -0.000000351597

  **** Optimization is complete! (in 9 steps) ****
    Final optimized geometry and variables:
    Molecular point group: c1

    Geometry (in Angstrom), charge = 0, multiplicity = 1:

    H           -2.209141889389    -1.319194386452    -0.385046575579
    O           -2.081296732549    -0.783592282791     0.376766869218
    C           -1.020958560497     0.107233384451     0.169751305195
    C            0.302305787057    -0.644546525830     0.149676015526
    H           -1.174590545436     0.676294837559    -0.741256387723
    H           -1.031895454988     0.802440478675     0.998554445387
    O            1.451285937472     0.145967513049     0.130184216644
    H            0.325667447140    -1.358616228124    -0.675964484279
    H            0.358778994528    -1.230260422600     1.057074545987
    C            1.488795224308     1.212363448593    -0.763456006758
    H            0.810102647361     2.010386097415    -0.481103098586
    H            2.496148421109     1.602305189649    -0.752172457999
    H            1.253704660581     0.898503881709    -1.778794109893

  Mulliken Charges: (a.u.)
   Center  Symbol    Alpha    Beta     Spin     Total
       1     H     0.39339  0.39339  0.00000  0.21323
       2     O     4.20070  4.20070  0.00000 -0.40139
       3     C     2.98560  2.98560  0.00000  0.02880
       4     C     2.98325  2.98325  0.00000  0.03349
       5     H     0.46920  0.46920  0.00000  0.06160
       6     H     0.44725  0.44725  0.00000  0.10549
       7     O     4.17570  4.17570  0.00000 -0.35139
       8     H     0.47619  0.47619  0.00000  0.04762
       9     H     0.44910  0.44910  0.00000  0.10181
      10     C     3.03658  3.03658  0.00000 -0.07317
      11     H     0.46822  0.46822  0.00000  0.06356
      12     H     0.44222  0.44222  0.00000  0.11555
      13     H     0.47260  0.47260  0.00000  0.05479

   Total alpha = 21.00000, Total beta = 21.00000, Total charge =  0.00000
