  ==> Input File <==

--------------------------------------------------------------------------
set {
	reference rhf
	basis 6-31G*
}

set_num_threads( 1 )
memory 2 gb

molecule MOL {
0 1

O	 1.846825	 1.296220	 0.000415
C	 1.705091	 0.115954	 0.001797
C	 0.381791	 -0.609817	 0.001258
O	 2.721346	 -0.737485	 -0.000216
C	 -0.823008	 0.326187	 0.001381
H	 0.371250	 -1.265087	 -0.865474
H	 0.370908	 -1.265746	 0.867490
C	 -1.977523	 -0.213717	 -0.843994
H	 -0.519006	 1.300361	 -0.368425
H	 -1.154977	 0.481674	 1.023110
C	 -3.194255	 0.713258	 -0.855745
H	 -1.637321	 -0.370904	 -1.866516
H	 -2.276206	 -1.191752	 -0.469668
C	 -4.347931	 0.172692	 -1.699589
H	 -2.898111	 1.689977	 -1.231858
H	 -3.535804	 0.870543	 0.164913
H	 -4.047133	 0.037283	 -2.734673
H	 -5.195046	 0.851447	 -1.687860
H	 -4.689605	 -0.788958	 -1.327034
C	 4.024888	 -0.184556	 -0.001949
H	 4.179030	 0.422472	 -0.882452
H	 4.701782	 -1.024608	 -0.003642
H	 4.181981	 0.421185	 0.878906

	symmetry c1
}
set optking {
	frozen_dihedral = ("
		15 11 8 12,
		9 5 8 12,
		1 2 3 6,
		1 2 4 20
	")
}

ee = energy('scf')
oeprop('DIPOLE', 'QUADRUPOLE', 'MULLIKEN_CHARGES')
f=open( 'psi4out.xyz', 'w' )
f.write( "23  " )
f.write( str(ee) + "\n" )
f.write( MOL.save_string_xyz() )
f.close()
--------------------------------------------------------------------------

    Molecular point group: c1

    Geometry (in Angstrom), charge = 0, multiplicity = 1:

       Center              X                  Y                   Z               Mass
    ------------   -----------------  -----------------  -----------------  -----------------
           O          1.769554665367     1.196710445288     0.379576144426    15.994914619560
           C          1.627820665367     0.016444445288     0.380958144426    12.000000000000
           C          0.304520665367    -0.709326554712     0.380419144426    12.000000000000
           O          2.644075665367    -0.836994554712     0.378945144426    15.994914619560
           C         -0.900278334633     0.226677445288     0.380542144426    12.000000000000
           H          0.293979665367    -1.364596554712    -0.486312855574     1.007825032070
           H          0.293637665367    -1.365255554712     1.246651144426     1.007825032070
           C         -2.054793334633    -0.313226554712    -0.464832855574    12.000000000000
           H         -0.596276334633     1.200851445288     0.010736144426     1.007825032070
           H         -1.232247334633     0.382164445288     1.402271144426     1.007825032070
           C         -3.271525334633     0.613748445288    -0.476583855574    12.000000000000
           H         -1.714591334633    -0.470413554712    -1.487354855574     1.007825032070
           H         -2.353476334633    -1.291261554712    -0.090506855574     1.007825032070
           C         -4.425201334633     0.073182445288    -1.320427855574    12.000000000000
           H         -2.975381334633     1.590467445288    -0.852696855574     1.007825032070
           H         -3.613074334633     0.771033445288     0.544074144426     1.007825032070
           H         -4.124403334633    -0.062226554712    -2.355511855574     1.007825032070
           H         -5.272316334633     0.751937445288    -1.308698855574     1.007825032070
           H         -4.766875334633    -0.888467554712    -0.947872855574     1.007825032070
           C          3.947617665367    -0.284065554712     0.377212144426    12.000000000000
           H          4.101759665367     0.322962445288    -0.503290855574     1.007825032070
           H          4.624511665367    -1.124117554712     0.375519144426     1.007825032070
           H          4.104710665367     0.321675445288     1.258067144426     1.007825032070

  Charge       = 0
  Multiplicity = 1
  Basis Set: 6-31G*
  Basis Set:

    Orbital Energies (a.u.)
    -----------------------

    Doubly Occupied:

       1A    -20.604081     2A    -20.546055     3A    -11.372753
       4A    -11.281070     5A    -11.234485     6A    -11.217123
       7A    -11.216070     8A    -11.215356     9A    -11.208935
      10A     -1.469815    11A     -1.363512    12A     -1.092365
      13A     -1.043007    14A     -0.986797    15A     -0.931498
      16A     -0.843145    17A     -0.794956    18A     -0.767021
      19A     -0.700312    20A     -0.682256    21A     -0.672367
      22A     -0.647756    23A     -0.610666    24A     -0.599850
      25A     -0.571121    26A     -0.557239    27A     -0.556347
      28A     -0.526009    29A     -0.523219    30A     -0.503175
      31A     -0.484117    32A     -0.469009    33A     -0.463516
      34A     -0.458227    35A     -0.456550    36A     -0.437028

  @DF-RHF Final Energy:  -422.97295114806388

   => Energetics <=

    Nuclear Repulsion Energy =            453.5696832221847217
    One-Electron Energy =               -1474.8718178476642606
    Two-Electron Energy =                 598.3291834774151994
    DFT Exchange-Correlation Energy =       0.0000000000000000
    Empirical Dispersion Energy =           0.0000000000000000
    PCM Polarization Energy =               0.0000000000000000
    EFP Energy =                            0.0000000000000000
    Total Energy =                       -422.9729511480643396

  Mulliken Charges: (a.u.)
   Center  Symbol    Alpha    Beta     Spin     Total
       1     O     4.28491  4.28491  0.00000 -0.56983
       2     C     2.60962  2.60962  0.00000  0.78076
       3     C     3.20977  3.20977  0.00000 -0.41953
       4     O     4.30614  4.30614  0.00000 -0.61227
       5     C     3.15892  3.15892  0.00000 -0.31785
       6     H     0.39893  0.39893  0.00000  0.20214
       7     H     0.39840  0.39840  0.00000  0.20320
       8     C     3.15521  3.15521  0.00000 -0.31042
       9     H     0.39730  0.39730  0.00000  0.20541
      10     H     0.41765  0.41765  0.00000  0.16470
      11     C     3.15211  3.15211  0.00000 -0.30422
      12     H     0.42296  0.42296  0.00000  0.15407
      13     H     0.42450  0.42450  0.00000  0.15100
      14     C     3.23950  3.23950  0.00000 -0.47900
      15     H     0.42042  0.42042  0.00000  0.15916
      16     H     0.42238  0.42238  0.00000  0.15525
      17     H     0.42169  0.42169  0.00000  0.15662
      18     H     0.41871  0.41871  0.00000  0.16258
      19     H     0.42210  0.42210  0.00000  0.15579
      20     C     3.09229  3.09229  0.00000 -0.18457
      21     H     0.40906  0.40906  0.00000  0.18188
      22     H     0.40840  0.40840  0.00000  0.18320
      23     H     0.40903  0.40903  0.00000  0.18194

   Total alpha = 36.00000, Total beta = 36.00000, Total charge =  0.00000
