  ==> Input File <==

--------------------------------------------------------------------------
set {
	reference rhf
	basis 6-31G*
}

set_num_threads( 1 )
memory 2 gb

molecule MOL {
0 1

H	 5.015524	 -0.324624	 2.159914
C	 4.488327	 -0.824831	 1.353454
C	 2.980708	 -0.596350	 1.453751
H	 4.878604	 -0.441483	 0.415334
H	 4.730910	 -1.882765	 1.405685
C	 2.205626	 -1.294646	 0.334177
H	 2.777059	 0.469145	 1.424635
H	 2.625532	 -0.958612	 2.417238
C	 0.691758	 -1.098855	 0.418654
H	 2.554058	 -0.935946	 -0.627890
H	 2.414736	 -2.361458	 0.369214
C	 0.222122	 0.308959	 0.082880
H	 0.195133	 -1.766859	 -0.283418
H	 0.318314	 -1.375814	 1.402020
C	 -1.181045	 0.701995	 0.511084
O	 0.918641	 1.075850	 -0.511380
C	 -2.285934	 -0.139295	 -0.145128
H	 -1.307652	 1.748130	 0.259513
H	 -1.251527	 0.608065	 1.593162
C	 -3.651768	 0.085446	 0.506485
H	 -2.346596	 0.110469	 -1.202272
H	 -2.034737	 -1.195320	 -0.088721
C	 -4.759797	 -0.746382	 -0.137905
H	 -3.908762	 1.140117	 0.445781
H	 -3.588286	 -0.154158	 1.565709
H	 -4.868882	 -0.505166	 -1.191300
H	 -4.548009	 -1.809175	 -0.062213
H	 -5.715422	 -0.564821	 0.343442

	symmetry c1
}
set optking {
	frozen_dihedral = ("
		10 6 3 2,
		16 12 15 17
	")
}

ee = energy('scf')
oeprop('DIPOLE', 'QUADRUPOLE', 'MULLIKEN_CHARGES')
f=open( 'psi4out.xyz', 'w' )
f.write( "28  " )
f.write( str(ee) + "\n" )
f.write( MOL.save_string_xyz() )
f.close()
--------------------------------------------------------------------------

    Molecular point group: c1

    Geometry (in Angstrom), charge = 0, multiplicity = 1:

       Center              X                  Y                   Z               Mass
    ------------   -----------------  -----------------  -----------------  -----------------
           H          5.049844878253    -0.069097380537     1.774530813995     1.007825032070
           C          4.522647878253    -0.569304380537     0.968070813995    12.000000000000
           C          3.015028878253    -0.340823380537     1.068367813995    12.000000000000
           H          4.912924878253    -0.185956380537     0.029950813995     1.007825032070
           H          4.765230878253    -1.627238380537     1.020301813995     1.007825032070
           C          2.239946878253    -1.039119380537    -0.051206186005    12.000000000000
           H          2.811379878253     0.724671619463     1.039251813995     1.007825032070
           H          2.659852878253    -0.703085380537     2.031854813995     1.007825032070
           C          0.726078878253    -0.843328380537     0.033270813995    12.000000000000
           H          2.588378878253    -0.680419380537    -1.013273186005     1.007825032070
           H          2.449056878253    -2.105931380537    -0.016169186005     1.007825032070
           C          0.256442878253     0.564485619463    -0.302503186005    12.000000000000
           H          0.229453878253    -1.511332380537    -0.668801186005     1.007825032070
           H          0.352634878253    -1.120287380537     1.016636813995     1.007825032070
           C         -1.146724121747     0.957521619463     0.125700813995    12.000000000000
           O          0.952961878253     1.331376619463    -0.896763186005    15.994914619560
           C         -2.251613121747     0.116231619463    -0.530511186005    12.000000000000
           H         -1.273331121747     2.003656619463    -0.125870186005     1.007825032070
           H         -1.217206121747     0.863591619463     1.207778813995     1.007825032070
           C         -3.617447121747     0.340972619463     0.121101813995    12.000000000000
           H         -2.312275121747     0.365995619463    -1.587655186005     1.007825032070
           H         -2.000416121747    -0.939793380537    -0.474104186005     1.007825032070
           C         -4.725476121747    -0.490855380537    -0.523288186005    12.000000000000
           H         -3.874441121747     1.395643619463     0.060397813995     1.007825032070
           H         -3.553965121747     0.101368619463     1.180325813995     1.007825032070
           H         -4.834561121747    -0.249639380537    -1.576683186005     1.007825032070
           H         -4.513688121747    -1.553648380537    -0.447596186005     1.007825032070
           H         -5.681101121747    -0.309294380537    -0.041941186005     1.007825032070

  Charge       = 0
  Multiplicity = 1
  Basis Set: 6-31G*
  Basis Set:

    Orbital Energies (a.u.)
    -----------------------

    Doubly Occupied:

       1A    -20.548094     2A    -11.322130     3A    -11.232074
       4A    -11.230010     5A    -11.228690     6A    -11.226324
       7A    -11.216559     8A    -11.216502     9A    -11.212402
      10A    -11.205770    11A     -1.393195    12A     -1.095450
      13A     -1.077418    14A     -1.022649    15A     -0.990820
      16A     -0.907295    17A     -0.873580    18A     -0.809706
      19A     -0.799723    20A     -0.722852    21A     -0.667080
      22A     -0.655836    23A     -0.627198    24A     -0.619391
      25A     -0.609680    26A     -0.588930    27A     -0.576239
      28A     -0.574497    29A     -0.543704    30A     -0.534126
      31A     -0.520137    32A     -0.506974    33A     -0.497903
      34A     -0.485780    35A     -0.478055    36A     -0.476853
      37A     -0.471542    38A     -0.465176    39A     -0.454748
      40A     -0.392275

  @DF-RHF Final Energy:  -426.16827477474806

   => Energetics <=

    Nuclear Repulsion Energy =            531.7440805095919814
    One-Electron Energy =               -1631.6700112446621915
    Two-Electron Energy =                 673.7576559603220403
    DFT Exchange-Correlation Energy =       0.0000000000000000
    Empirical Dispersion Energy =           0.0000000000000000
    PCM Polarization Energy =               0.0000000000000000
    EFP Energy =                            0.0000000000000000
    Total Energy =                       -426.1682747747482836

  Mulliken Charges: (a.u.)
   Center  Symbol    Alpha    Beta     Spin     Total
       1     H     0.41933  0.41933  0.00000  0.16134
       2     C     3.24013  3.24013  0.00000 -0.48026
       3     C     3.15649  3.15649  0.00000 -0.31298
       4     H     0.41828  0.41828  0.00000  0.16343
       5     H     0.42362  0.42362  0.00000  0.15277
       6     C     3.14888  3.14888  0.00000 -0.29775
       7     H     0.41046  0.41046  0.00000  0.17907
       8     H     0.42770  0.42770  0.00000  0.14461
       9     C     3.21233  3.21233  0.00000 -0.42465
      10     H     0.40654  0.40654  0.00000  0.18691
      11     H     0.42194  0.42194  0.00000  0.15613
      12     C     2.73156  2.73156  0.00000  0.53687
      13     H     0.40301  0.40301  0.00000  0.19399
      14     H     0.41318  0.41318  0.00000  0.17363
      15     C     3.20214  3.20214  0.00000 -0.40428
      16     O     4.26639  4.26639  0.00000 -0.53278
      17     C     3.16417  3.16417  0.00000 -0.32833
      18     H     0.39927  0.39927  0.00000  0.20147
      19     H     0.41301  0.41301  0.00000  0.17397
      20     C     3.15213  3.15213  0.00000 -0.30426
      21     H     0.41235  0.41235  0.00000  0.17530
      22     H     0.41840  0.41840  0.00000  0.16319
      23     C     3.24036  3.24036  0.00000 -0.48072
      24     H     0.41887  0.41887  0.00000  0.16226
      25     H     0.42174  0.42174  0.00000  0.15651
      26     H     0.41960  0.41960  0.00000  0.16079
      27     H     0.42114  0.42114  0.00000  0.15773
      28     H     0.41698  0.41698  0.00000  0.16604

   Total alpha = 40.00000, Total beta = 40.00000, Total charge = -0.00000
