  ==> Input File <==

--------------------------------------------------------------------------
set {
	reference rhf
	basis 6-31G*
}

set_num_threads( 4 )
memory 2 gb

molecule MOL {
0 1

H	 0.716208	 2.689711	 -4.778060
C	 0.827503	 2.215366	 -3.819209
C	 0.224370	 2.769037	 -2.699912
C	 1.573372	 1.052643	 -3.706574
H	 -0.353812	 3.670812	 -2.788649
C	 0.367926	 2.158550	 -1.467362
H	 2.040177	 0.624908	 -4.575333
C	 1.718437	 0.439802	 -2.473791
H	 -0.091674	 2.572825	 -0.590540
C	 1.115205	 0.992213	 -1.350085
H	 2.294727	 -0.460081	 -2.382016
C	 1.239129	 0.373821	 0.000060
O	 1.970282	 -0.730723	 0.000018
O	 0.736774	 0.818378	 0.984370
C	 3.377318	 -0.566646	 -0.000065
H	 3.695437	 -0.028981	 -0.881264
H	 3.789299	 -1.563704	 0.000236
H	 3.695516	 -0.028316	 0.880770

	symmetry c1
}
set optking {
	frozen_dihedral = ("
		10 12 13 15
	")
}

ee = optimize('scf')
oeprop('DIPOLE', 'QUADRUPOLE', 'MULLIKEN_CHARGES')
f=open( 'psi4out.xyz', 'w' )
f.write( "18  " )
f.write( str(ee) + "\n" )
f.write( MOL.save_string_xyz() )
f.close()
--------------------------------------------------------------------------

    Molecular point group: c1
  Charge       = 0
  Multiplicity = 1
  Basis Set: 6-31G*
  Basis Set:
  @DF-RHF Final Energy:  -457.32689181617576
    Total Energy =                       -457.3268918161760439
    Molecular point group: c1
  Basis Set: 6-31G*
  Basis Set:
  Basis Set: 6-31G*
  Basis Set:
  @DF-RHF Final Energy:  -457.33006677666032
    Total Energy =                       -457.3300667766602601
  Basis Set: 6-31G*
  Basis Set:
  Basis Set: 6-31G*
  Basis Set:
  @DF-RHF Final Energy:  -457.32897065894576
    Total Energy =                       -457.3289706589458774
  Basis Set: 6-31G*
  Basis Set:
  Basis Set: 6-31G*
  Basis Set:
  @DF-RHF Final Energy:  -457.33057859315807
    Total Energy =                       -457.3305785931579521
  Basis Set: 6-31G*
  Basis Set:
  Basis Set: 6-31G*
  Basis Set:
  @DF-RHF Final Energy:  -457.33061714841557
    Total Energy =                       -457.3306171484152856
  Basis Set: 6-31G*
  Basis Set:
  Basis Set: 6-31G*
  Basis Set:
  @DF-RHF Final Energy:  -457.33061877605365
    Total Energy =                       -457.3306187760533703
  Basis Set: 6-31G*
  Basis Set:
  Charge       = 0
  Multiplicity = 1
  Basis Set: 6-31G*
  Basis Set:

    Orbital Energies (a.u.)
    -----------------------

    Doubly Occupied:

       1A    -20.589357     2A    -20.555262     3A    -11.379584
       4A    -11.291682     5A    -11.251261     6A    -11.250381
       7A    -11.249874     8A    -11.246996     9A    -11.243428
      10A    -11.242153    11A     -1.460590    12A     -1.368332
      13A     -1.170118    14A     -1.046243    15A     -1.030321
      16A     -0.975424    17A     -0.872695    18A     -0.841045
      19A     -0.780209    20A     -0.737281    21A     -0.685903
      22A     -0.676221    23A     -0.663231    24A     -0.639357
      25A     -0.627514    26A     -0.609784    27A     -0.598904
      28A     -0.561675    29A     -0.530607    30A     -0.520197
      31A     -0.505730    32A     -0.492369    33A     -0.463334
      34A     -0.442065    35A     -0.349809    36A     -0.346546

  @DF-RHF Final Energy:  -457.33061899360843

   => Energetics <=

    Nuclear Repulsion Energy =            496.5985580234949452
    One-Electron Energy =               -1607.2673927882569842
    Two-Electron Energy =                 653.3382157711532727
    DFT Exchange-Correlation Energy =       0.0000000000000000
    Empirical Dispersion Energy =           0.0000000000000000
    PCM Polarization Energy =               0.0000000000000000
    EFP Energy =                            0.0000000000000000
    Total Energy =                       -457.3306189936088231
    Molecular point group: c1
  Basis Set: 6-31G*
  Basis Set:

  -Total Gradient:
     Atom            X                  Y                   Z
    ------   -----------------  -----------------  -----------------
       1        0.000001895992     0.000003535379     0.000000067108
       2        0.000003531709    -0.000010161907     0.000002041783
       3        0.000001477177     0.000008133412     0.000004089554
       4       -0.000024093948    -0.000004915315    -0.000000917474
       5       -0.000001253940    -0.000000142588    -0.000004248371
       6       -0.000003331074     0.000015361465     0.000002409521
       7        0.000005552841     0.000002541615     0.000002253995
       8        0.000038456423     0.000008844489     0.000007555818
       9       -0.000000130045    -0.000000318682    -0.000003698779
      10        0.001129432550     0.000922767957     0.000406769484
      11       -0.000010766981     0.000009187259     0.000003107604
      12       -0.001639340443    -0.001387568877    -0.001361732129
      13        0.000329792133     0.000401779873     0.002587507908
      14        0.000035199091    -0.000007750199    -0.000016554378
      15        0.000134997324     0.000035376982    -0.001627001187
      16       -0.000015140945    -0.000001525994     0.000004758285
      17        0.000006074747    -0.000000441272     0.000000212689
      18        0.000007647393     0.000005296404    -0.000006621433

  **** Optimization is complete! (in 7 steps) ****
    Final optimized geometry and variables:
    Molecular point group: c1

    Geometry (in Angstrom), charge = 0, multiplicity = 1:

    H           -0.624994661713     1.892757116486    -3.381079932005
    C           -0.520567265027     1.385176057206    -2.438772687352
    C           -1.017201168716     1.967172632960    -1.281146700008
    C            0.104897664516     0.150208252921    -2.385530636465
    H           -1.505615093842     2.923660082080    -1.325266943246
    C           -0.887945179266     1.312781943020    -0.070449493796
    H            0.480099232403    -0.304403966181    -3.284424610319
    C            0.243854618683    -0.501798864772    -1.171631062288
    H           -1.276563490020     1.744430381333     0.832135642002
    C           -0.248504556598     0.078670597196    -0.008865874839
    H            0.717131036549    -1.464211711380    -1.127927857480
    C           -0.139802891627    -0.603383432924     1.314961234518
    O            0.726031591703    -1.637894809215     1.367671415863
    O           -0.771940689488    -0.283590539032     2.263218041752
    C            2.095664485955    -1.315016613931     1.508043799142
    H            2.434475253580    -0.672038000269     0.704816468500
    H            2.633973258342    -2.249319817226     1.474320238773
    H            2.270920148513    -0.830745893460     2.460891436916

  Mulliken Charges: (a.u.)
   Center  Symbol    Alpha    Beta     Spin     Total
       1     H     0.39425  0.39425  0.00000  0.21150
       2     C     3.09067  3.09067  0.00000 -0.18134
       3     C     3.10608  3.10608  0.00000 -0.21215
       4     C     3.10568  3.10568  0.00000 -0.21136
       5     H     0.39411  0.39411  0.00000  0.21178
       6     C     3.08576  3.08576  0.00000 -0.17152
       7     H     0.39511  0.39511  0.00000  0.20978
       8     C     3.09471  3.09471  0.00000 -0.18942
       9     H     0.37665  0.37665  0.00000  0.24670
      10     C     3.07482  3.07482  0.00000 -0.14965
      11     H     0.38353  0.38353  0.00000  0.23294
      12     C     2.59860  2.59860  0.00000  0.80281
      13     O     4.31970  4.31970  0.00000 -0.63941
      14     O     4.25592  4.25592  0.00000 -0.51185
      15     C     3.09525  3.09525  0.00000 -0.19051
      16     H     0.41715  0.41715  0.00000  0.16569
      17     H     0.40306  0.40306  0.00000  0.19389
      18     H     0.40894  0.40894  0.00000  0.18211

   Total alpha = 36.00000, Total beta = 36.00000, Total charge =  0.00000
