  ==> Input File <==

--------------------------------------------------------------------------
set {
	reference rhf
	basis 6-31G*
}

set_num_threads( 4 )
memory 2 gb

molecule MOL {
0 1

O	 3.225979	 0.970355	 -0.599647
C	 2.701189	 0.057885	 -0.047330
C	 1.245376	 -0.013843	 0.345420
O	 3.347903	 -1.046386	 0.304773
C	 0.455112	 1.231400	 -0.050772
H	 0.838542	 -0.913825	 -0.103701
H	 1.208210	 -0.175333	 1.419774
C	 -0.998893	 1.219485	 0.433193
H	 0.482531	 1.345121	 -1.130325
H	 0.957290	 2.103070	 0.354729
C	 -1.883438	 0.145884	 -0.207175
H	 -1.431207	 2.195402	 0.224832
H	 -1.019646	 1.105716	 1.516076
C	 -3.347647	 0.245583	 0.225435
H	 -1.822183	 0.231698	 -1.291012
H	 -1.510341	 -0.844814	 0.042401
C	 -4.239992	 -0.825570	 -0.404234
H	 -3.732888	 1.230466	 -0.033079
H	 -3.408585	 0.170602	 1.310038
C	 -5.076738	 -0.297124	 -1.568838
H	 -3.621684	 -1.651268	 -0.750009
H	 -4.900288	 -1.237065	 0.356333
H	 -5.698292	 -1.079188	 -1.993872
H	 -4.443786	 0.090065	 -2.362344
H	 -5.731746	 0.507853	 -1.247510
C	 4.728119	 -1.109107	 -0.004993
H	 4.882018	 -1.033965	 -1.071845
H	 5.068212	 -2.067527	 0.355250
H	 5.265056	 -0.311663	 0.488280

	symmetry c1
}
set optking {
	frozen_dihedral = ("
		21 17 14 11
	")
}

ee = optimize('scf')
oeprop('DIPOLE', 'QUADRUPOLE', 'MULLIKEN_CHARGES')
f=open( 'psi4out.xyz', 'w' )
f.write( "29  " )
f.write( str(ee) + "\n" )
f.write( MOL.save_string_xyz() )
f.close()
--------------------------------------------------------------------------

    Molecular point group: c1
  Charge       = 0
  Multiplicity = 1
  Basis Set: 6-31G*
  Basis Set:
  @DF-RHF Final Energy:  -501.03922093955339
    Total Energy =                       -501.0392209395529335
    Molecular point group: c1
  Basis Set: 6-31G*
  Basis Set:
  Basis Set: 6-31G*
  Basis Set:
  @DF-RHF Final Energy:  -501.03947586517438
    Total Energy =                       -501.0394758651749498
  Basis Set: 6-31G*
  Basis Set:
  Basis Set: 6-31G*
  Basis Set:
  @DF-RHF Final Energy:  -501.03956548061637
    Total Energy =                       -501.0395654806172843
  Basis Set: 6-31G*
  Basis Set:
  Basis Set: 6-31G*
  Basis Set:
  @DF-RHF Final Energy:  -501.03954768472249
    Total Energy =                       -501.0395476847220380
  Basis Set: 6-31G*
  Basis Set:
  @DF-RHF Final Energy:  -501.03957023714213
    Total Energy =                       -501.0395702371417883
  Basis Set: 6-31G*
  Basis Set:
  @DF-RHF Final Energy:  -501.03957204176459
    Total Energy =                       -501.0395720417646999
  Basis Set: 6-31G*
  Basis Set:
  Basis Set: 6-31G*
  Basis Set:
  @DF-RHF Final Energy:  -501.03955635722491
    Total Energy =                       -501.0395563572247966
  Basis Set: 6-31G*
  Basis Set:
  Basis Set: 6-31G*
  Basis Set:
  @DF-RHF Final Energy:  -501.03957341855278
    Total Energy =                       -501.0395734185523224
  Basis Set: 6-31G*
  Basis Set:
  Charge       = 0
  Multiplicity = 1
  Basis Set: 6-31G*
  Basis Set:

    Orbital Energies (a.u.)
    -----------------------

    Doubly Occupied:

       1A    -20.603415     2A    -20.545241     3A    -11.372055
       4A    -11.280697     5A    -11.234813     6A    -11.219174
       7A    -11.217560     8A    -11.216359     9A    -11.215670
      10A    -11.214250    11A    -11.208925    12A     -1.469113
      13A     -1.362557    14A     -1.097688    15A     -1.065464
      16A     -1.018520    17A     -0.976548    18A     -0.928031
      19A     -0.864035    20A     -0.801022    21A     -0.787620
      22A     -0.764069    23A     -0.700645    24A     -0.682395
      25A     -0.672147    26A     -0.641772    27A     -0.630528
      28A     -0.605983    29A     -0.601189    30A     -0.581792
      31A     -0.563126    32A     -0.553927    33A     -0.533067
      34A     -0.523407    35A     -0.515077    36A     -0.513995
      37A     -0.498765    38A     -0.475481    39A     -0.474169
      40A     -0.459826    41A     -0.456278    42A     -0.453867
      43A     -0.440793    44A     -0.435265

  @DF-RHF Final Energy:  -501.03957339054159

   => Energetics <=

    Nuclear Repulsion Energy =            612.9200469738466381
    One-Electron Energy =               -1896.9665998690429660
    Two-Electron Energy =                 783.0069795046545096
    DFT Exchange-Correlation Energy =       0.0000000000000000
    Empirical Dispersion Energy =           0.0000000000000000
    PCM Polarization Energy =               0.0000000000000000
    EFP Energy =                            0.0000000000000000
    Total Energy =                       -501.0395733905418183
    Molecular point group: c1
  Basis Set: 6-31G*
  Basis Set:

  -Total Gradient:
     Atom            X                  Y                   Z
    ------   -----------------  -----------------  -----------------
       1       -0.000009385812    -0.000017591090    -0.000035092220
       2        0.000024841133     0.000044907025     0.000094485429
       3       -0.000007666227    -0.000015989532    -0.000029294272
       4       -0.000007178173    -0.000013738012    -0.000027535596
       5       -0.000001784567    -0.000000608420    -0.000006030075
       6       -0.000007184992    -0.000002874024     0.000002978073
       7        0.000008588660     0.000001908824    -0.000004531337
       8       -0.000012646672    -0.000004080350    -0.000000958419
       9        0.000002844368     0.000005314770    -0.000002351435
      10       -0.000001769433    -0.000005718283     0.000001722134
      11        0.000455986211    -0.001468552443     0.001729268792
      12       -0.000011631638    -0.000005488170     0.000000804278
      13        0.000003088447     0.000001681241     0.000004083621
      14       -0.000551196507     0.002411308822    -0.003070902502
      15        0.000015268688     0.000000324344    -0.000000684484
      16        0.000003044302    -0.000002769715    -0.000004452302
      17       -0.000185369963    -0.002436294059     0.004135771010
      18       -0.000009573294     0.000003127450     0.000004757417
      19       -0.000004975418    -0.000003154680    -0.000010076673
      20        0.000007128621     0.000018637269    -0.000001477005
      21        0.000286915219     0.001478926558    -0.002775190691
      22        0.000004681405     0.000007754072     0.000001008969
      23        0.000015237970    -0.000003789157     0.000003616792
      24       -0.000004447021     0.000008519048    -0.000003842576
      25       -0.000012376097    -0.000001220287    -0.000004900778
      26       -0.000000097689    -0.000000135427    -0.000000250163
      27        0.000000942759    -0.000000241007    -0.000000364162
      28       -0.000000198397    -0.000000251720    -0.000000604012
      29       -0.000001085887     0.000000086955     0.000000042187

  **** Optimization is complete! (in 9 steps) ****
    Final optimized geometry and variables:
    Molecular point group: c1

    Geometry (in Angstrom), charge = 0, multiplicity = 1:

    O            3.164013145150     0.921102561125    -0.471993669895
    C            2.643544235517     0.018968589156     0.101002999503
    C            1.189261570793    -0.048313797899     0.500165997277
    O            3.294199646606    -1.076361974761     0.473164512604
    C            0.394326530669     1.186274163294     0.080571872149
    H            0.783426748617    -0.958705449725     0.071617000535
    H            1.156206799357    -0.187142711256     1.577811678026
    C           -1.058330851422     1.180506047519     0.568948038673
    H            0.418429440299     1.277853276614    -1.001158732117
    H            0.895277526991     2.067425586141     0.466573925791
    C           -1.942419995573     0.093576429767    -0.047951342540
    H           -1.493374517607     2.151407250742     0.343604710689
    H           -1.075754172925     1.087217585122     1.653980968377
    C           -3.402898370865     0.185783379609     0.403523153251
    H           -1.890968148350     0.165032397002    -1.133851021676
    H           -1.563234754671    -0.891883786269     0.211161842439
    C           -4.316329064151    -0.870001437297    -0.252227589593
    H           -3.786396812620     1.182210848762     0.196206177067
    H           -3.431661653211     0.074449183336     1.485004803113
    C           -5.136343724228    -0.311245419445    -1.417818450172
    H           -3.708952434955    -1.688744687575    -0.630194076670
    H           -4.991286739645    -1.294215763646     0.484725244264
    H           -5.731103673773    -1.087721392028    -1.889422218813
    H           -4.492603928980     0.119650528547    -2.179914649266
    H           -5.814517251737     0.467656765043    -1.081272826333
    C            4.673457633267    -1.142127697761     0.159744260612
    H            4.823359983320    -1.088420506501    -0.908973794802
    H            5.017147290846    -2.092183150142     0.538245681215
    H            5.210192406590    -0.333511142509     0.634706515449

  Mulliken Charges: (a.u.)
   Center  Symbol    Alpha    Beta     Spin     Total
       1     O     4.28595  4.28595  0.00000 -0.57190
       2     C     2.60484  2.60484  0.00000  0.79032
       3     C     3.20968  3.20968  0.00000 -0.41937
       4     O     4.30746  4.30746  0.00000 -0.61492
       5     C     3.15368  3.15368  0.00000 -0.30737
       6     H     0.39890  0.39890  0.00000  0.20219
       7     H     0.40122  0.40122  0.00000  0.19757
       8     C     3.15707  3.15707  0.00000 -0.31413
       9     H     0.41310  0.41310  0.00000  0.17380
      10     H     0.40875  0.40875  0.00000  0.18250
      11     C     3.15662  3.15662  0.00000 -0.31324
      12     H     0.41808  0.41808  0.00000  0.16384
      13     H     0.42391  0.42391  0.00000  0.15217
      14     C     3.15423  3.15423  0.00000 -0.30847
      15     H     0.42273  0.42273  0.00000  0.15454
      16     H     0.42277  0.42277  0.00000  0.15446
      17     C     3.15485  3.15485  0.00000 -0.30970
      18     H     0.42095  0.42095  0.00000  0.15810
      19     H     0.42158  0.42158  0.00000  0.15684
      20     C     3.23989  3.23989  0.00000 -0.47979
      21     H     0.42143  0.42143  0.00000  0.15714
      22     H     0.41961  0.41961  0.00000  0.16078
      23     H     0.42023  0.42023  0.00000  0.15954
      24     H     0.42191  0.42191  0.00000  0.15617
      25     H     0.42143  0.42143  0.00000  0.15715
      26     C     3.09241  3.09241  0.00000 -0.18482
      27     H     0.40908  0.40908  0.00000  0.18184
      28     H     0.40851  0.40851  0.00000  0.18298
      29     H     0.40912  0.40912  0.00000  0.18176

   Total alpha = 44.00000, Total beta = 44.00000, Total charge =  0.00000
