  ==> Input File <==

--------------------------------------------------------------------------
set {
	reference rhf
	basis cc-pvtz
}

set_num_threads( 4 )
memory 2 gb

molecule MOL {
0 1

H	 -0.623130	 2.579853	 -2.819305
O	 -1.091920	 1.834949	 -2.490285
C	 -0.600709	 1.471607	 -1.230589
C	 0.753933	 0.799428	 -1.335059
H	 -0.531684	 2.327804	 -0.567044
H	 -1.312711	 0.781247	 -0.801475
O	 1.172093	 0.457955	 -0.054438
H	 1.470197	 1.476458	 -1.803559
H	 0.674787	 -0.081272	 -1.968841
C	 2.395478	 -0.199028	 -0.000366
H	 2.505946	 -0.901710	 -0.823354
H	 3.174616	 0.545641	 -0.071768
H	 2.513730	 -0.742241	 0.934223

	symmetry c1
}
set optking {
	frozen_dihedral = ("
		4 7 10 13
	")
}

ee = optimize('scf')
oeprop('DIPOLE', 'QUADRUPOLE', 'MULLIKEN_CHARGES')
f=open( 'psi4out.xyz', 'w' )
f.write( "13  " )
f.write( str(ee) + "\n" )
f.write( MOL.save_string_xyz() )
f.close()
--------------------------------------------------------------------------

    Molecular point group: c1
  Charge       = 0
  Multiplicity = 1
  Basis Set: CC-PVTZ
  Basis Set:
  @DF-RHF Final Energy:  -268.06045456709603
    Total Energy =                       -268.0604545670961443
    Molecular point group: c1
  Basis Set: CC-PVTZ
  Basis Set:
  Basis Set: CC-PVTZ
  Basis Set:
  @DF-RHF Final Energy:  -268.06125567756618
    Total Energy =                       -268.0612556775662370
  Basis Set: CC-PVTZ
  Basis Set:
  Basis Set: CC-PVTZ
  Basis Set:
  @DF-RHF Final Energy:  -268.06143940906804
    Total Energy =                       -268.0614394090679298
  Basis Set: CC-PVTZ
  Basis Set:
  Charge       = 0
  Multiplicity = 1
  Basis Set: CC-PVTZ
  Basis Set:

    Orbital Energies (a.u.)
    -----------------------

    Doubly Occupied:

       1A    -20.555259     2A    -20.552801     3A    -11.269429
       4A    -11.267657     5A    -11.267358     6A     -1.391058
       7A     -1.369085     8A     -1.019709     9A     -0.914066
      10A     -0.842780    11A     -0.712012    12A     -0.675745
      13A     -0.662360    14A     -0.639570    15A     -0.597238
      16A     -0.572210    17A     -0.546792    18A     -0.491990
      19A     -0.482592    20A     -0.441585    21A     -0.423725

  @DF-RHF Final Energy:  -268.06144005048316

   => Energetics <=

    Nuclear Repulsion Energy =            190.4309536409984105
    One-Electron Energy =                -743.5947476184099969
    Two-Electron Energy =                 285.1023539269283447
    DFT Exchange-Correlation Energy =       0.0000000000000000
    Empirical Dispersion Energy =           0.0000000000000000
    PCM Polarization Energy =               0.0000000000000000
    EFP Energy =                            0.0000000000000000
    Total Energy =                       -268.0614400504832702
    Molecular point group: c1
  Basis Set: CC-PVTZ
  Basis Set:

  -Total Gradient:
     Atom            X                  Y                   Z
    ------   -----------------  -----------------  -----------------
       1       -0.000000205169     0.000008329127    -0.000013969254
       2        0.000068784948    -0.000004654365     0.000033574727
       3       -0.000025003140    -0.000028948306     0.000073306675
       4       -0.000841681239    -0.001808229346    -0.000275430986
       5       -0.000015298140     0.000021586281    -0.000006196762
       6        0.000007701043    -0.000003305575     0.000011846454
       7        0.001030573822     0.002015442804     0.000075761732
       8        0.000008925681    -0.000003219641     0.000044997173
       9       -0.000000773399    -0.000000450314    -0.000023472093
      10        0.000837342869     0.001656655175     0.001087506250
      11       -0.000032481347     0.000007869947    -0.000009870614
      12       -0.000025354330     0.000022254070     0.000008090795
      13       -0.001012531602    -0.001883329857    -0.001006144093

  **** Optimization is complete! (in 4 steps) ****
    Final optimized geometry and variables:
    Molecular point group: c1

    Geometry (in Angstrom), charge = 0, multiplicity = 1:

    H           -1.159583902435     1.693289460781    -1.766892026147
    O           -1.623890262276     0.945245689593    -1.438580463083
    C           -1.126273647344     0.579966183914    -0.181949212134
    C            0.231451620454    -0.084525305251    -0.294288768125
    H           -1.060027024771     1.434088955718     0.484519769746
    H           -1.832465266048    -0.116380909729     0.247166609598
    O            0.650749757027    -0.436149168646     0.983318498466
    H            0.942169530555     0.601219246643    -0.759124373444
    H            0.156275789298    -0.960475171556    -0.934333964768
    C            1.882957091211    -1.078846669629     1.043245985364
    H            1.987730399346    -1.808737536959     0.244430268248
    H            2.704815379043    -0.371054028518     0.973089010960
    H            1.939976176758    -1.605168439945     1.985215280660

  Mulliken Charges: (a.u.)
   Center  Symbol    Alpha    Beta     Spin     Total
       1     H     0.39416  0.39416  0.00000  0.21167
       2     O     4.20209  4.20209  0.00000 -0.40419
       3     C     2.97384  2.97384  0.00000  0.05231
       4     C     2.96533  2.96533  0.00000  0.06933
       5     H     0.46658  0.46658  0.00000  0.06684
       6     H     0.45284  0.45284  0.00000  0.09431
       7     O     4.17668  4.17668  0.00000 -0.35337
       8     H     0.48311  0.48311  0.00000  0.03378
       9     H     0.46813  0.46813  0.00000  0.06373
      10     C     3.03079  3.03079  0.00000 -0.06159
      11     H     0.47257  0.47257  0.00000  0.05486
      12     H     0.46642  0.46642  0.00000  0.06716
      13     H     0.44743  0.44743  0.00000  0.10514

   Total alpha = 21.00000, Total beta = 21.00000, Total charge = -0.00000
