                              Psi4 1.0.54 Driver

  ==> Input File <==

--------------------------------------------------------------------------
set {
	reference rhf
	basis cc-pvtz
}

set_num_threads( 4 )
memory 2 gb

molecule MOL {
0 1

H	 0.085699	 1.927757	 0.541520
O	 0.057669	 1.301365	 -0.158528
C	 0.004145	 -0.005141	 0.363049
C	 1.199168	 -0.827145	 -0.096690
C	 -1.316386	 -0.602081	 -0.083515
H	 0.012026	 0.043363	 1.450619
H	 1.216685	 -0.896776	 -1.178167
H	 2.129940	 -0.372354	 0.228035
H	 1.160783	 -1.829622	 0.314294
H	 -1.357882	 -0.655920	 -1.165207
H	 -2.140147	 0.011735	 0.257253
H	 -1.440790	 -1.601175	 0.317669

	symmetry c1
}
set optking {
	frozen_dihedral = ("
		1 2 3 4
	")
}

ee,wfn = optimize('scf', return_wfn=True)
oeprop( wfn, 'DIPOLE', 'QUADRUPOLE', 'MULLIKEN_CHARGES')
f=open( 'psi4out.xyz', 'w' )
f.write( "12  " )
f.write( str(ee) + "\n" )
f.write( MOL.save_string_xyz() )
f.close()
--------------------------------------------------------------------------

    Molecular point group: c1
  Charge       = 0
  Multiplicity = 1
  Basis Set: CC-PVTZ
  Basis Set:
  @DF-RHF Final Energy:  -193.19355236811913
    Total Energy =                       -193.1935523681191569
    Molecular point group: c1
  Basis Set: CC-PVTZ
  Basis Set:
  Basis Set: CC-PVTZ
  Basis Set:
  @DF-RHF Final Energy:  -193.18267608530618
    Total Energy =                       -193.1826760853061558
  Basis Set: CC-PVTZ
  Basis Set:
  Basis Set: CC-PVTZ
  Basis Set:
  @DF-RHF Final Energy:  -193.19401898823000
    Total Energy =                       -193.1940189882299137
  Basis Set: CC-PVTZ
  Basis Set:
  Basis Set: CC-PVTZ
  Basis Set:
  @DF-RHF Final Energy:  -193.19413251733690
    Total Energy =                       -193.1941325173368682
  Basis Set: CC-PVTZ
  Basis Set:
  Charge       = 0
  Multiplicity = 1
  Basis Set: CC-PVTZ
  Basis Set:

    Orbital Energies (a.u.)
    -----------------------

    Doubly Occupied:

       1A    -20.542707     2A    -11.274775     3A    -11.204958
       4A    -11.204911     5A     -1.362518     6A     -1.042716
       7A     -0.936146     8A     -0.799866     9A     -0.714997
      10A     -0.609271    11A     -0.599105    12A     -0.559726
      13A     -0.538410    14A     -0.525385    15A     -0.506585
      16A     -0.464945    17A     -0.432267

  @DF-RHF Final Energy:  -193.19413427028556

   => Energetics <=

    Nuclear Repulsion Energy =            135.4810033071779287
    One-Electron Energy =                -530.7116987929957759
    Two-Electron Energy =                 202.0365612155323447
    DFT Exchange-Correlation Energy =       0.0000000000000000
    Empirical Dispersion Energy =           0.0000000000000000
    PCM Polarization Energy =               0.0000000000000000
    EFP Energy =                            0.0000000000000000
    Total Energy =                       -193.1941342702854740
    Molecular point group: c1
  Basis Set: CC-PVTZ
  Basis Set:

  -Total Gradient:
     Atom            X                  Y                   Z
    ------   -----------------  -----------------  -----------------
       1        0.000116508948    -0.000007315739    -0.000063156552
       2       -0.000226537484     0.000005765905     0.000038566038
       3        0.000058884257     0.000185898625    -0.000056322571
       4       -0.000039966971    -0.000039958548     0.000075079887
       5        0.000024075888    -0.000027151197    -0.000022879116
       6        0.000015213280    -0.000113338750     0.000032741242
       7        0.000001043682    -0.000002465450    -0.000006358865
       8       -0.000011029801     0.000021950958     0.000010021903
       9        0.000030518981    -0.000065373929     0.000005055664
      10        0.000006269559     0.000013137726    -0.000032688356
      11        0.000003206680     0.000022665892     0.000014703990
      12        0.000021812981     0.000006184506     0.000005236736

  **** Optimization is complete! (in 5 steps) ****
    Final optimized geometry and variables:
    Molecular point group: c1

    Geometry (in Angstrom), charge = 0, multiplicity = 1:

    H           -0.133301158984     1.925525350800     0.548973877030
    O           -0.178440402558     1.293964272207    -0.142409830176
    C            0.072336859887    -0.006026603076     0.350873679923
    C            1.290797197382    -0.573987827640    -0.357471708174
    C           -1.167187702451    -0.860831871495     0.144612938432
    H            0.284002631763     0.047627877616     1.415751433598
    H            1.115643620646    -0.613104693853    -1.426435498861
    H            2.157682311147     0.051034841366    -0.181330993899
    H            1.512231295022    -1.576521034252    -0.008213255579
    H           -1.414753819442    -0.909158149457    -0.909556567753
    H           -2.013689105643    -0.435369362249     0.669791638618
    H           -1.008936772924    -1.870276756675     0.507846824676

  Mulliken Charges: (a.u.)
   Center  Symbol    Alpha    Beta     Spin     Total
       1     H     0.39023  0.39023  0.00000  0.21954
       2     O     4.21206  4.21206  0.00000 -0.42413
       3     C     2.92613  2.92613  0.00000  0.14773
       4     C     3.13672  3.13672  0.00000 -0.27344
       5     C     3.13667  3.13667  0.00000 -0.27333
       6     H     0.46787  0.46787  0.00000  0.06426
       7     H     0.45249  0.45249  0.00000  0.09503
       8     H     0.45273  0.45273  0.00000  0.09454
       9     H     0.45974  0.45974  0.00000  0.08052
      10     H     0.45251  0.45251  0.00000  0.09497
      11     H     0.45312  0.45312  0.00000  0.09377
      12     H     0.45973  0.45973  0.00000  0.08054

   Total alpha = 17.00000, Total beta = 17.00000, Total charge = -0.00000

*** Psi4 exiting successfully. Buy a developer a beer!
