  ==> Input File <==

--------------------------------------------------------------------------
set {
	reference rhf
	basis 6-31G*
}

set_num_threads( 4 )
memory 2 gb

molecule MOL {
0 1

H	 -3.161837	 0.500524	 -0.000234
C	 -2.367097	 -0.232926	 -0.000000
O	 -1.158440	 0.455814	 -0.000122
H	 -2.468853	 -0.861886	 -0.882833
H	 -2.468942	 -0.861421	 0.883154
C	 -0.029776	 -0.365156	 0.000148
C	 1.212217	 0.508981	 0.000007
H	 -0.036772	 -1.013236	 -0.877259
H	 -0.036869	 -1.012778	 0.877897
C	 1.453935	 1.180708	 -1.351006
H	 1.105449	 1.258870	 0.777779
H	 2.065392	 -0.104978	 0.271752
H	 0.621051	 1.819892	 -1.630600
H	 2.345968	 1.797410	 -1.322716
H	 1.587134	 0.446285	 -2.140490

	symmetry c1
}
set optking {
	frozen_dihedral = ("
		11 7 6 8
	")
}

ee = optimize('scf')
oeprop('DIPOLE', 'QUADRUPOLE', 'MULLIKEN_CHARGES')
f=open( 'psi4out.xyz', 'w' )
f.write( "15  " )
f.write( str(ee) + "\n" )
f.write( MOL.save_string_xyz() )
f.close()
--------------------------------------------------------------------------

    Molecular point group: c1
  Charge       = 0
  Multiplicity = 1
  Basis Set: 6-31G*
  Basis Set:
  @DF-RHF Final Energy:  -232.13905720919738
    Total Energy =                       -232.1390572091974605
    Molecular point group: c1
  Basis Set: 6-31G*
  Basis Set:
  Basis Set: 6-31G*
  Basis Set:
  @DF-RHF Final Energy:  -232.13920326993292
    Total Energy =                       -232.1392032699328638
  Basis Set: 6-31G*
  Basis Set:
  Basis Set: 6-31G*
  Basis Set:
  @DF-RHF Final Energy:  -232.13924522236172
    Total Energy =                       -232.1392452223618079
  Basis Set: 6-31G*
  Basis Set:
  Charge       = 0
  Multiplicity = 1
  Basis Set: 6-31G*
  Basis Set:

    Orbital Energies (a.u.)
    -----------------------

    Doubly Occupied:

       1A    -20.553820     2A    -11.266618     3A    -11.264360
       4A    -11.214705     5A    -11.204289     6A     -1.378273
       7A     -1.054026     8A     -0.950544     9A     -0.884551
      10A     -0.800765    11A     -0.668823    12A     -0.662298
      13A     -0.632372    14A     -0.589129    15A     -0.569963
      16A     -0.545945    17A     -0.497551    18A     -0.483242
      19A     -0.480365    20A     -0.459563    21A     -0.413308

  @DF-RHF Final Energy:  -232.13924621325611

   => Energetics <=

    Nuclear Repulsion Energy =            192.6379230919384327
    One-Electron Energy =                -696.4053187975084711
    Two-Electron Energy =                 271.6281494923139803
    DFT Exchange-Correlation Energy =       0.0000000000000000
    Empirical Dispersion Energy =           0.0000000000000000
    PCM Polarization Energy =               0.0000000000000000
    EFP Energy =                            0.0000000000000000
    Total Energy =                       -232.1392462132560581
    Molecular point group: c1
  Basis Set: 6-31G*
  Basis Set:

  -Total Gradient:
     Atom            X                  Y                   Z
    ------   -----------------  -----------------  -----------------
       1        0.000003467068    -0.000005840078     0.000003259284
       2       -0.000042872987     0.000006902967    -0.000009379450
       3        0.000060005477    -0.000018941288    -0.000024910087
       4        0.000000739022     0.000002095446     0.000005114943
       5        0.000002183665     0.000000878415    -0.000001259575
       6        0.001153433610    -0.001681429414     0.001217775437
       7        0.001037073032    -0.001352437436     0.001601929219
       8       -0.001160907113     0.001640579472    -0.001219585003
       9        0.000055640592    -0.000004944408    -0.000007348479
      10       -0.000058252977     0.000019889638    -0.000026501372
      11       -0.001040112322     0.001434706232    -0.001509367026
      12       -0.000024955806    -0.000030736975     0.000007236542
      13        0.000000463133    -0.000011036217    -0.000028648990
      14       -0.000013052512    -0.000013251781     0.000021617308
      15        0.000027148122     0.000013565425    -0.000029932753

  **** Optimization is complete! (in 4 steps) ****
    Final optimized geometry and variables:
    Molecular point group: c1

    Geometry (in Angstrom), charge = 0, multiplicity = 1:

    H           -2.942031224971     0.214361623748     0.251490992122
    C           -2.152051645287    -0.524284166246     0.255749166079
    O           -0.938804341131     0.155532420103     0.280481356013
    H           -2.244915445558    -1.143823080290    -0.634649554434
    H           -2.270950522647    -1.160885999113     1.130980855221
    C            0.186213777529    -0.675181661416     0.295594870313
    C            1.433020080168     0.194608175002     0.267873999279
    H            0.162579905430    -1.331834645431    -0.574858089030
    H            0.173957765683    -1.301153180942     1.187314369044
    C            1.648302875487     0.883203357965    -1.079853953633
    H            1.331913616702     0.948559482963     1.042472478663
    H            2.295676921599    -0.418557212032     0.515642176394
    H            0.792310644074     1.495238931078    -1.339233999112
    H            2.524881173648     1.523039076782    -1.053778618582
    H            1.794193492505     0.155159474669    -1.873476046536

  Mulliken Charges: (a.u.)
   Center  Symbol    Alpha    Beta     Spin     Total
       1     H     0.41229  0.41229  0.00000  0.17541
       2     C     3.07885  3.07885  0.00000 -0.15771
       3     O     4.30452  4.30452  0.00000 -0.60904
       4     H     0.43028  0.43028  0.00000  0.13944
       5     H     0.43053  0.43053  0.00000  0.13895
       6     C     2.98916  2.98916  0.00000  0.02169
       7     C     3.16005  3.16005  0.00000 -0.32011
       8     H     0.43302  0.43302  0.00000  0.13395
       9     H     0.42956  0.42956  0.00000  0.14089
      10     C     3.24277  3.24277  0.00000 -0.48555
      11     H     0.41268  0.41268  0.00000  0.17464
      12     H     0.42258  0.42258  0.00000  0.15485
      13     H     0.40882  0.40882  0.00000  0.18236
      14     H     0.42018  0.42018  0.00000  0.15964
      15     H     0.42470  0.42470  0.00000  0.15060

   Total alpha = 21.00000, Total beta = 21.00000, Total charge = -0.00000
