                              Psi4 1.0.54 Driver

  ==> Input File <==

--------------------------------------------------------------------------
set {
	reference rhf
	basis cc-pvtz
}

set_num_threads( 4 )
memory 2 gb

molecule MOL {
0 1

H	 -1.156317	 1.683434	 -1.731726
C	 -0.928050	 0.940375	 -0.997089
C	 -1.911816	 0.469892	 -0.069725
C	 0.297866	 0.417287	 -0.916205
H	 -2.907365	 0.870565	 -0.108447
C	 -1.599980	 -0.459743	 0.838633
H	 1.087594	 0.718627	 -1.575497
N	 0.640204	 -0.530428	 -0.000115
H	 -2.309445	 -0.834712	 1.547166
C	 -0.262393	 -1.027928	 0.923813
C	 2.006991	 -1.033007	 -0.000020
O	 0.055999	 -1.863946	 1.725027
H	 2.182444	 -1.636914	 -0.880881
H	 2.678769	 -0.195442	 -0.002236
H	 2.183828	 -1.633244	 0.883082

	symmetry c1
}
set optking {
	frozen_dihedral = ("
		10 8 11 13
	")
}

ee,wfn = optimize('scf', return_wfn=True)
oeprop( wfn, 'DIPOLE', 'QUADRUPOLE', 'MULLIKEN_CHARGES')
f=open( 'psi4out.xyz', 'w' )
f.write( "15  " )
f.write( str(ee) + "\n" )
f.write( MOL.save_string_xyz() )
f.close()
--------------------------------------------------------------------------

    Molecular point group: c1
  Charge       = 0
  Multiplicity = 1
  Basis Set: CC-PVTZ
  Basis Set:
  @DF-RHF Final Energy:  -360.72233864602481
    Total Energy =                       -360.7223386460248093
    Molecular point group: c1
  Basis Set: CC-PVTZ
  Basis Set:
  Basis Set: CC-PVTZ
  Basis Set:
  @DF-RHF Final Energy:  -360.72255583745596
    Total Energy =                       -360.7225558374560705
  Basis Set: CC-PVTZ
  Basis Set:
  Basis Set: CC-PVTZ
  Basis Set:
  @DF-RHF Final Energy:  -360.72256558475345
    Total Energy =                       -360.7225655847536245
  Basis Set: CC-PVTZ
  Basis Set:
  Basis Set: CC-PVTZ
  Basis Set:
  @DF-RHF Final Energy:  -360.72257457395654
    Total Energy =                       -360.7225745739567628
  Basis Set: CC-PVTZ
  Basis Set:
  Charge       = 0
  Multiplicity = 1
  Basis Set: CC-PVTZ
  Basis Set:

    Orbital Energies (a.u.)
    -----------------------

    Doubly Occupied:

       1A    -20.501760     2A    -15.616475     3A    -11.339560
       4A    -11.293216     5A    -11.263538     6A    -11.258220
       7A    -11.230699     8A    -11.228387     9A     -1.390547
      10A     -1.285769    11A     -1.118806    12A     -1.028874
      13A     -0.972308    14A     -0.875760    15A     -0.838563
      16A     -0.719126    17A     -0.703092    18A     -0.663398
      19A     -0.652655    20A     -0.625214    21A     -0.611930
      22A     -0.574082    23A     -0.558057    24A     -0.550516
      25A     -0.529369    26A     -0.482784    27A     -0.420131
      28A     -0.410796    29A     -0.311009

  @DF-RHF Final Energy:  -360.72257938315420

   => Energetics <=

    Nuclear Repulsion Energy =            358.4526203125795973
    One-Electron Energy =               -1200.2411168507983348
    Two-Electron Energy =                 481.0659171550645397
    DFT Exchange-Correlation Energy =       0.0000000000000000
    Empirical Dispersion Energy =           0.0000000000000000
    PCM Polarization Energy =               0.0000000000000000
    EFP Energy =                            0.0000000000000000
    Total Energy =                       -360.7225793831541978
    Molecular point group: c1
  Basis Set: CC-PVTZ
  Basis Set:

  -Total Gradient:
     Atom            X                  Y                   Z
    ------   -----------------  -----------------  -----------------
       1        0.000002635239    -0.000002552474     0.000002561086
       2        0.000011604592    -0.000006355929     0.000006231087
       3       -0.000013512918    -0.000012136039     0.000004275222
       4       -0.000005004145     0.000006747887    -0.000004445547
       5       -0.000003613638     0.000001536631     0.000006425394
       6       -0.000011442312     0.000002478984    -0.000005446858
       7        0.000008888836    -0.000004941303     0.000001987298
       8       -0.000099568239    -0.000205367158    -0.000262914353
       9       -0.000002855067     0.000000566762    -0.000002512835
      10        0.000055610559     0.000243311448     0.000137243189
      11       -0.000075090668    -0.000186243852     0.000208794122
      12        0.000031528369    -0.000018139395    -0.000006089035
      13        0.000097953100     0.000243160207    -0.000140526043
      14       -0.000023995536    -0.000024895262     0.000003167760
      15        0.000026861825    -0.000037170502     0.000051249515

  **** Optimization is complete! (in 5 steps) ****
    Final optimized geometry and variables:
    Molecular point group: c1

    Geometry (in Angstrom), charge = 0, multiplicity = 1:

    H           -0.969874360243     2.135868380145    -1.930914340174
    C           -0.752328490560     1.384571078154    -1.201409652957
    C           -1.747008580238     0.910852177207    -0.287209988524
    C            0.470915879688     0.856291923374    -1.112922208803
    H           -2.739933418393     1.317520884556    -0.330806293831
    C           -1.448249449484    -0.028759780347     0.615174424612
    H            1.268338879779     1.161191621969    -1.761145194309
    N            0.800533701046    -0.099973269294    -0.201173561430
    H           -2.166013434240    -0.407237429418     1.313521508395
    C           -0.115418016955    -0.607863210087     0.703622277458
    C            2.162151999214    -0.616048927477    -0.194666386494
    O            0.189422600248    -1.461504563588     1.491221973687
    H            2.348638145848    -1.206348425351    -1.083101754435
    H            2.864889375994     0.205618381704    -0.162055509244
    H            2.290795860098    -1.233994550241     0.674188674374

  Mulliken Charges: (a.u.)
   Center  Symbol    Alpha    Beta     Spin     Total
       1     H     0.41409  0.41409  0.00000  0.17181
       2     C     3.10219  3.10219  0.00000 -0.20438
       3     C     3.06191  3.06191  0.00000 -0.12383
       4     C     3.03296  3.03296  0.00000 -0.06591
       5     H     0.41833  0.41833  0.00000  0.16333
       6     C     3.11618  3.11618  0.00000 -0.23235
       7     H     0.42058  0.42058  0.00000  0.15883
       8     N     3.51259  3.51259  0.00000 -0.02517
       9     H     0.40888  0.40888  0.00000  0.18223
      10     C     2.84551  2.84551  0.00000  0.30898
      11     C     3.10882  3.10882  0.00000 -0.21764
      12     O     4.23660  4.23660  0.00000 -0.47321
      13     H     0.44817  0.44817  0.00000  0.10367
      14     H     0.45192  0.45192  0.00000  0.09616
      15     H     0.42126  0.42126  0.00000  0.15748

   Total alpha = 29.00000, Total beta = 29.00000, Total charge = -0.00000

*** Psi4 exiting successfully. Buy a developer a beer!
