  ==> Input File <==

--------------------------------------------------------------------------
set {
	reference rhf
	basis cc-pvtz
}

set_num_threads( 4 )
memory 2 gb

molecule MOL {
0 1

H	 -1.759845	 1.065572	 -0.483452
N	 -1.851927	 0.161443	 -0.071573
C	 -0.561396	 -0.500007	 0.035200
H	 -2.474845	 -0.363512	 -0.649267
C	 0.575129	 0.507849	 -0.048832
H	 -0.478089	 -1.200753	 -0.788956
H	 -0.456191	 -1.081816	 0.952176
C	 1.951750	 -0.141983	 0.035101
H	 0.478254	 1.061643	 -0.975981
H	 0.467676	 1.231891	 0.755499
H	 2.101550	 -0.848142	 -0.774949
H	 2.738260	 0.600794	 -0.026526
H	 2.078939	 -0.679792	 0.968824

	symmetry c1
}
set optking {
	frozen_dihedral = ("
		1 2 3 6
	")
}

ee = optimize('scf')
oeprop('DIPOLE', 'QUADRUPOLE', 'MULLIKEN_CHARGES')
f=open( 'psi4out.xyz', 'w' )
f.write( "13  " )
f.write( str(ee) + "\n" )
f.write( MOL.save_string_xyz() )
f.close()
--------------------------------------------------------------------------

    Molecular point group: c1
  Charge       = 0
  Multiplicity = 1
  Basis Set: CC-PVTZ
  Basis Set:
  @DF-RHF Final Energy:  -173.34827632026875
    Total Energy =                       -173.3482763202687238
    Molecular point group: c1
  Basis Set: CC-PVTZ
  Basis Set:
  Basis Set: CC-PVTZ
  Basis Set:
  @DF-RHF Final Energy:  -173.34967499426645
    Total Energy =                       -173.3496749942664508
  Basis Set: CC-PVTZ
  Basis Set:
  Basis Set: CC-PVTZ
  Basis Set:
  @DF-RHF Final Energy:  -173.34985733418173
    Total Energy =                       -173.3498573341816495
  Basis Set: CC-PVTZ
  Basis Set:
  Basis Set: CC-PVTZ
  Basis Set:
  @DF-RHF Final Energy:  -173.34986342190558
    Total Energy =                       -173.3498634219054679
  Basis Set: CC-PVTZ
  Basis Set:
  Charge       = 0
  Multiplicity = 1
  Basis Set: CC-PVTZ
  Basis Set:

    Orbital Energies (a.u.)
    -----------------------

    Doubly Occupied:

       1A    -15.523140     2A    -11.237768     3A    -11.215840
       4A    -11.209587     5A     -1.175699     6A     -1.038504
       7A     -0.900204     8A     -0.806174     9A     -0.654298
      10A     -0.639570    11A     -0.605532    12A     -0.556366
      13A     -0.545421    14A     -0.496394    15A     -0.479238
      16A     -0.471239    17A     -0.378072

  @DF-RHF Final Energy:  -173.34986419883623

   => Energetics <=

    Nuclear Repulsion Energy =            132.0651920676773159
    One-Electron Energy =                -494.9640183698941769
    Two-Electron Energy =                 189.5489621033806316
    DFT Exchange-Correlation Energy =       0.0000000000000000
    Empirical Dispersion Energy =           0.0000000000000000
    PCM Polarization Energy =               0.0000000000000000
    EFP Energy =                            0.0000000000000000
    Total Energy =                       -173.3498641988362579
    Molecular point group: c1
  Basis Set: CC-PVTZ
  Basis Set:

  -Total Gradient:
     Atom            X                  Y                   Z
    ------   -----------------  -----------------  -----------------
       1        0.000541414334     0.001092138338     0.002550477255
       2       -0.000984854881    -0.001897128598    -0.002771784108
       3        0.001468402753     0.002715100290    -0.001304511070
       4        0.000008483184    -0.000000267581     0.000000345554
       5       -0.000090880784    -0.000049510567    -0.000010705358
       6       -0.000997184293    -0.001857070983     0.001505649534
       7       -0.000000073722    -0.000006959218     0.000017294357
       8        0.000043100790     0.000020298989     0.000032403550
       9       -0.000002882715    -0.000009283763     0.000006070356
      10        0.000009594371    -0.000012308893    -0.000019438984
      11       -0.000017356258     0.000015401783    -0.000005301633
      12        0.000024106088    -0.000008924370     0.000006195047
      13       -0.000001868870    -0.000001485428    -0.000006694500

  **** Optimization is complete! (in 5 steps) ****
    Final optimized geometry and variables:
    Molecular point group: c1

    Geometry (in Angstrom), charge = 0, multiplicity = 1:

    H           -1.812749794010     1.061124765502    -0.419170878262
    N           -1.863747367034     0.154042917647    -0.010089695441
    C           -0.564388639900    -0.504259809141     0.012311152816
    H           -2.552333751042    -0.374907328328    -0.496841279766
    C            0.576173106524     0.500121095389    -0.038332516649
    H           -0.458145592221    -1.221461819590    -0.799950615068
    H           -0.482088036369    -1.079575339155     0.930323107374
    C            1.948322143695    -0.151040281217     0.090511534835
    H            0.522637968841     1.052927037224    -0.973011894304
    H            0.437674583844     1.223375456406     0.759902248261
    H            2.121753326970    -0.863040508726    -0.709413089476
    H            2.737333015970     0.590441810292     0.048786626663
    H            2.042823396433    -0.681520619369     1.031692119228

  Mulliken Charges: (a.u.)
   Center  Symbol    Alpha    Beta     Spin     Total
       1     H     0.42934  0.42934  0.00000  0.14132
       2     N     3.69513  3.69513  0.00000 -0.39026
       3     C     3.01176  3.01176  0.00000 -0.02352
       4     H     0.42819  0.42819  0.00000  0.14361
       5     C     3.08500  3.08500  0.00000 -0.16999
       6     H     0.46837  0.46837  0.00000  0.06326
       7     H     0.46397  0.46397  0.00000  0.07207
       8     C     3.15189  3.15189  0.00000 -0.30379
       9     H     0.45895  0.45895  0.00000  0.08209
      10     H     0.44993  0.44993  0.00000  0.10015
      11     H     0.45590  0.45590  0.00000  0.08821
      12     H     0.44787  0.44787  0.00000  0.10425
      13     H     0.45370  0.45370  0.00000  0.09260

   Total alpha = 17.00000, Total beta = 17.00000, Total charge =  0.00000
