                              Psi4 1.0.54 Driver

  ==> Input File <==

--------------------------------------------------------------------------
set {
	reference rhf
	basis cc-pvtz
}

set_num_threads( 4 )
memory 2 gb

molecule MOL {
0 1

H	 3.723460	 -0.884005	 0.241445
O	 2.824271	 -1.154299	 0.131461
C	 2.076458	 -0.067370	 -0.038225
C	 0.626018	 -0.337582	 0.258241
O	 2.538288	 0.965419	 -0.381593
C	 -0.267326	 0.883135	 0.076490
H	 0.325620	 -1.161483	 -0.378003
H	 0.574537	 -0.713685	 1.275261
C	 -1.726822	 0.642622	 0.463839
H	 -0.210803	 1.217591	 -0.953497
H	 0.129920	 1.693110	 0.675679
C	 -2.480891	 -0.340606	 -0.429852
H	 -2.243098	 1.597649	 0.438609
H	 -1.776542	 0.301208	 1.495542
C	 -3.955933	 -0.460128	 -0.060472
H	 -2.393755	 -0.020485	 -1.464726
H	 -2.024244	 -1.323637	 -0.374360
H	 -4.467673	 -1.160944	 -0.709827
H	 -4.458917	 0.497287	 -0.144505
H	 -4.076458	 -0.806900	 0.960497

	symmetry c1
}
set optking {
	frozen_dihedral = ("
		1 2 3 5
	")
}

ee,wfn = optimize('scf', return_wfn=True)
oeprop( wfn, 'DIPOLE', 'QUADRUPOLE', 'MULLIKEN_CHARGES')
f=open( 'psi4out.xyz', 'w' )
f.write( "20  " )
f.write( str(ee) + "\n" )
f.write( MOL.save_string_xyz() )
f.close()
--------------------------------------------------------------------------

    Molecular point group: c1
  Charge       = 0
  Multiplicity = 1
  Basis Set: CC-PVTZ
  Basis Set:
  @DF-RHF Final Energy:  -384.09268478062802
    Total Energy =                       -384.0926847806279056
    Molecular point group: c1
  Basis Set: CC-PVTZ
  Basis Set:
  Basis Set: CC-PVTZ
  Basis Set:
  @DF-RHF Final Energy:  -384.08934757539498
    Total Energy =                       -384.0893475753947541
  Basis Set: CC-PVTZ
  Basis Set:
  Basis Set: CC-PVTZ
  Basis Set:
  @DF-RHF Final Energy:  -384.09261588477290
    Total Energy =                       -384.0926158847727265
  Basis Set: CC-PVTZ
  Basis Set:
  Basis Set: CC-PVTZ
  Basis Set:
  @DF-RHF Final Energy:  -384.09290132209782
    Total Energy =                       -384.0929013220981005
  Basis Set: CC-PVTZ
  Basis Set:
  @DF-RHF Final Energy:  -384.09290835470676
    Total Energy =                       -384.0929083547067080
  @DF-RHF Final Energy:  -384.09290282245985
    Total Energy =                       -384.0929028224595640
  @DF-RHF Final Energy:  -384.09286144321209
    Total Energy =                       -384.0928614432116319
  @DF-RHF Final Energy:  -384.09291342232859
    Total Energy =                       -384.0929134223283654
  @DF-RHF Final Energy:  -384.09291423724653
    Total Energy =                       -384.0929142372459069
  @DF-RHF Final Energy:  -384.09282706060253
    Total Energy =                       -384.0928270606026445
  @DF-RHF Final Energy:  -384.06739674712082
    Total Energy =                       -384.0673967471204833
  @DF-RHF Final Energy:  -384.09278781735264
    Total Energy =                       -384.0927878173521322
  @DF-RHF Final Energy:  -384.09288512182360
    Total Energy =                       -384.0928851218237696
  @DF-RHF Final Energy:  -384.09289638579349
    Total Energy =                       -384.0928963857936651
  @DF-RHF Final Energy:  -384.09291034607315
    Total Energy =                       -384.0929103460736087
  @DF-RHF Final Energy:  -384.09291404921140
    Total Energy =                       -384.0929140492115152
  @DF-RHF Final Energy:  -384.09290895029096
    Total Energy =                       -384.0929089502911324
  @DF-RHF Final Energy:  -384.09291390413568
    Total Energy =                       -384.0929139041360827
  Basis Set: CC-PVTZ
  Basis Set:
  @DF-RHF Final Energy:  -384.09285956880137
    Total Energy =                       -384.0928595688018845
  Basis Set: CC-PVTZ
  Basis Set:
  Basis Set: CC-PVTZ
  Basis Set:
  @DF-RHF Final Energy:  -384.09291146127663
    Total Energy =                       -384.0929114612761168
  Basis Set: CC-PVTZ
  Basis Set:
  Basis Set: CC-PVTZ
  Basis Set:
  @DF-RHF Final Energy:  -384.09291359167491
    Total Energy =                       -384.0929135916744599
  Basis Set: CC-PVTZ
  Basis Set:
  Charge       = 0
  Multiplicity = 1
  Basis Set: CC-PVTZ
  Basis Set:

    Orbital Energies (a.u.)
    -----------------------

    Doubly Occupied:

       1A    -20.602120     2A    -20.541361     3A    -11.373519
       4A    -11.238579     5A    -11.220954     6A    -11.218742
       7A    -11.218122     8A    -11.210501     9A     -1.475570
      10A     -1.369237    11A     -1.097451    12A     -1.042069
      13A     -0.962247    14A     -0.870039    15A     -0.817532
      16A     -0.778723    17A     -0.704662    18A     -0.692154
      19A     -0.663702    20A     -0.639551    21A     -0.605009
      22A     -0.593502    23A     -0.578317    24A     -0.557086
      25A     -0.538572    26A     -0.514370    27A     -0.495515
      28A     -0.485926    29A     -0.471593    30A     -0.467893
      31A     -0.458082    32A     -0.446383

  @DF-RHF Final Energy:  -384.09291405677448

   => Energetics <=

    Nuclear Repulsion Energy =            376.4923586479391133
    One-Electron Energy =               -1269.2723865654493238
    Two-Electron Energy =                 508.6871138607355078
    DFT Exchange-Correlation Energy =       0.0000000000000000
    Empirical Dispersion Energy =           0.0000000000000000
    PCM Polarization Energy =               0.0000000000000000
    EFP Energy =                            0.0000000000000000
    Total Energy =                       -384.0929140567747027
    Molecular point group: c1
  Basis Set: CC-PVTZ
  Basis Set:

  -Total Gradient:
     Atom            X                  Y                   Z
    ------   -----------------  -----------------  -----------------
       1       -0.000726306979    -0.000141176548     0.006884746140
       2        0.000548894469    -0.000261140096    -0.011142011557
       3        0.001053121490     0.001363847596     0.009888953348
       4        0.000039473219    -0.000012165130     0.000163282577
       5       -0.000878979737    -0.000985238181    -0.005797759393
       6       -0.000017753592     0.000005362673     0.000006000471
       7        0.000002138245     0.000015732057     0.000008371600
       8       -0.000002779147     0.000016275664    -0.000006648661
       9       -0.000005635583     0.000009599778    -0.000007707783
      10       -0.000000282011    -0.000007880960     0.000005802033
      11        0.000001865125    -0.000002829495    -0.000003600929
      12       -0.000003724799    -0.000001512493     0.000005247863
      13       -0.000003431663    -0.000001067862     0.000000618325
      14       -0.000002518266    -0.000000476548    -0.000001989526
      15       -0.000002475822    -0.000003096549     0.000000233215
      16       -0.000003233130     0.000005548225     0.000000916508
      17       -0.000000975375     0.000001061820    -0.000005531894
      18        0.000001918424    -0.000001013225     0.000004380448
      19        0.000000894006    -0.000003641569    -0.000002725663
      20       -0.000000208862     0.000003810841    -0.000000577121

  **** Optimization is complete! (in 22 steps) ****
    Final optimized geometry and variables:
    Molecular point group: c1

    Geometry (in Angstrom), charge = 0, multiplicity = 1:

    H            3.723560656863    -0.906040690713     0.211478725580
    O            2.816954545601    -1.147548461257     0.098253549351
    C            2.079716056031    -0.038226268103     0.033050180213
    C            0.623525719824    -0.323310150863     0.283336049108
    O            2.547926852836     1.013181668117    -0.234028032445
    C           -0.279415895210     0.883226265334     0.059501277089
    H            0.353404678725    -1.161062724113    -0.347786326100
    H            0.546290262124    -0.684700857644     1.304658234676
    C           -1.746282198542     0.630099344251     0.409348799223
    H           -0.198521518013     1.203385654394    -0.973695447803
    H            0.091443117074     1.706445148546     0.657183446350
    C           -2.463682037476    -0.374142238293    -0.491238489705
    H           -2.272969657210     1.578323516822     0.356971417014
    H           -1.820523807239     0.301935177318     1.443931036493
    C           -3.945137041603    -0.513001585690    -0.155531592468
    H           -2.356838679611    -0.063623523125    -1.527207786994
    H           -1.993252090690    -1.349193186810    -0.414424419826
    H           -4.429583960805    -1.231148844385    -0.806869935079
    H           -4.461527102097     0.434643212523    -0.265200466969
    H           -4.084728599967    -0.847551410567     0.867107497255

  Mulliken Charges: (a.u.)
   Center  Symbol    Alpha    Beta     Spin     Total
       1     H     0.38122  0.38122  0.00000  0.23756
       2     O     4.16336  4.16336  0.00000 -0.32671
       3     C     2.80390  2.80390  0.00000  0.39220
       4     C     3.11137  3.11137  0.00000 -0.22273
       5     O     4.18804  4.18804  0.00000 -0.37607
       6     C     3.09352  3.09352  0.00000 -0.18705
       7     H     0.43645  0.43645  0.00000  0.12710
       8     H     0.43962  0.43962  0.00000  0.12075
       9     C     3.09919  3.09919  0.00000 -0.19839
      10     H     0.44609  0.44609  0.00000  0.10783
      11     H     0.43854  0.43854  0.00000  0.12293
      12     C     3.08672  3.08672  0.00000 -0.17343
      13     H     0.44549  0.44549  0.00000  0.10902
      14     H     0.45413  0.45413  0.00000  0.09174
      15     C     3.14958  3.14958  0.00000 -0.29916
      16     H     0.45251  0.45251  0.00000  0.09499
      17     H     0.45409  0.45409  0.00000  0.09182
      18     H     0.44767  0.44767  0.00000  0.10466
      19     H     0.45363  0.45363  0.00000  0.09274
      20     H     0.45490  0.45490  0.00000  0.09019

   Total alpha = 32.00000, Total beta = 32.00000, Total charge = -0.00000

*** Psi4 exiting successfully. Buy a developer a beer!
