  ==> Input File <==

--------------------------------------------------------------------------
set {
	reference rhf
	basis 6-31G*
}

set_num_threads( 4 )
memory 2 gb

molecule MOL {
0 1

O	 2.862325	 1.357334	 0.000267
C	 2.843464	 0.164689	 -0.000222
C	 1.546494	 -0.624492	 -0.000609
C	 4.124123	 -0.644674	 -0.000428
C	 0.291004	 0.242674	 0.000989
H	 1.557904	 -1.283758	 -0.867573
H	 1.558622	 -1.285963	 0.864672
C	 0.258582	 1.225202	 1.172889
H	 -0.584188	 -0.398559	 0.032440
H	 0.232072	 0.785073	 -0.937349
C	 -0.996675	 2.099217	 1.185472
H	 0.321516	 0.674835	 2.110536
H	 1.139825	 1.864053	 1.136190
C	 -1.036550	 3.084597	 2.354852
H	 -1.878223	 1.461649	 1.222863
H	 -1.060167	 2.650523	 0.248975
C	 -2.293496	 3.953929	 2.360715
H	 -0.974351	 2.534590	 3.291573
H	 -0.156599	 3.723474	 2.317686
H	 -3.190610	 3.345386	 2.431502
H	 -2.293062	 4.641215	 3.201154
H	 -2.366486	 4.543571	 1.451243
H	 4.165367	 -1.288615	 -0.874074
H	 4.976217	 0.020734	 -0.001915
H	 4.166763	 -1.286207	 0.874930

	symmetry c1
}
set optking {
	frozen_dihedral = ("
		9 5 3 6
	")
}

ee = optimize('scf')
oeprop('DIPOLE', 'QUADRUPOLE', 'MULLIKEN_CHARGES')
f=open( 'psi4out.xyz', 'w' )
f.write( "25  " )
f.write( str(ee) + "\n" )
f.write( MOL.save_string_xyz() )
f.close()
--------------------------------------------------------------------------

    Molecular point group: c1
  Charge       = 0
  Multiplicity = 1
  Basis Set: 6-31G*
  Basis Set:
  @DF-RHF Final Energy:  -387.13119968469556
    Total Energy =                       -387.1311996846958436
    Molecular point group: c1
  Basis Set: 6-31G*
  Basis Set:
  Basis Set: 6-31G*
  Basis Set:
  @DF-RHF Final Energy:  -387.13438308588587
    Total Energy =                       -387.1343830858860429
  Basis Set: 6-31G*
  Basis Set:
  Basis Set: 6-31G*
  Basis Set:
  @DF-RHF Final Energy:  -387.13371062377269
    Total Energy =                       -387.1337106237725720
  Basis Set: 6-31G*
  Basis Set:
  Basis Set: 6-31G*
  Basis Set:
  @DF-RHF Final Energy:  -387.13501390167704
    Total Energy =                       -387.1350139016768708
  Basis Set: 6-31G*
  Basis Set:
  @DF-RHF Final Energy:  -387.13531714345231
    Total Energy =                       -387.1353171434523119
  @DF-RHF Final Energy:  -387.13538498212586
    Total Energy =                       -387.1353849821248332
  Basis Set: 6-31G*
  Basis Set:
  @DF-RHF Final Energy:  -387.13540751643006
    Total Energy =                       -387.1354075164305186
  Basis Set: 6-31G*
  Basis Set:
  Basis Set: 6-31G*
  Basis Set:
  @DF-RHF Final Energy:  -387.13541271310999
    Total Energy =                       -387.1354127131103269
  Basis Set: 6-31G*
  Basis Set:
  Basis Set: 6-31G*
  Basis Set:
  @DF-RHF Final Energy:  -387.13541616162718
    Total Energy =                       -387.1354161616278589
  Basis Set: 6-31G*
  Basis Set:
  Charge       = 0
  Multiplicity = 1
  Basis Set: 6-31G*
  Basis Set:

    Orbital Energies (a.u.)
    -----------------------

    Doubly Occupied:

       1A    -20.550033     2A    -11.327054     3A    -11.232600
       4A    -11.228869     5A    -11.219116     6A    -11.211915
       7A    -11.210420     8A    -11.209802     9A    -11.205812
      10A     -1.395851    11A     -1.090779    12A     -1.054716
      13A     -1.013485    14A     -0.967624    15A     -0.888975
      16A     -0.815451    17A     -0.787811    18A     -0.726002
      19A     -0.667737    20A     -0.637456    21A     -0.631952
      22A     -0.622889    23A     -0.593905    24A     -0.584654
      25A     -0.571179    26A     -0.557706    27A     -0.534442
      28A     -0.526741    29A     -0.516326    30A     -0.495343
      31A     -0.482257    32A     -0.475468    33A     -0.460335
      34A     -0.458675    35A     -0.439512    36A     -0.399150

  @DF-RHF Final Energy:  -387.13541671927800

   => Energetics <=

    Nuclear Repulsion Energy =            448.7833416050789879
    One-Electron Energy =               -1414.2534328338233536
    Two-Electron Energy =                 578.3346745094665948
    DFT Exchange-Correlation Energy =       0.0000000000000000
    Empirical Dispersion Energy =           0.0000000000000000
    PCM Polarization Energy =               0.0000000000000000
    EFP Energy =                            0.0000000000000000
    Total Energy =                       -387.1354167192778277
    Molecular point group: c1
  Basis Set: 6-31G*
  Basis Set:

  -Total Gradient:
     Atom            X                  Y                   Z
    ------   -----------------  -----------------  -----------------
       1        0.000089741635     0.000023555882    -0.000008985796
       2       -0.000050669119    -0.000055052678     0.000006884760
       3       -0.001954195597    -0.002796880750     0.002670669151
       4        0.000008602081    -0.000024437744    -0.000109929276
       5        0.000235967069     0.000456809561    -0.004283144798
       6        0.001574448119     0.002249961125    -0.001621109891
       7        0.000018727800     0.000005206778     0.000049088158
       8       -0.000122048930    -0.000053681697     0.000085562775
       9        0.000088696302     0.000026386705     0.003145577442
      10       -0.000009637134     0.000012759638     0.000001613577
      11        0.000004333044     0.000031875224    -0.000019672017
      12        0.000022417961     0.000018211143     0.000009510119
      13        0.000012754168     0.000047519046    -0.000000383407
      14        0.000015139766     0.000021250047    -0.000000096672
      15        0.000028525085    -0.000000485077    -0.000008923412
      16        0.000017599682     0.000004763851    -0.000001752274
      17       -0.000014287039    -0.000027279517     0.000010763536
      18        0.000012431805     0.000000011685    -0.000000111818
      19       -0.000006757231     0.000004473658    -0.000015826784
      20       -0.000010865860     0.000002535290    -0.000006621953
      21       -0.000000137458    -0.000011156479     0.000005403457
      22        0.000009831820     0.000000698736     0.000004361861
      23       -0.000001662802     0.000051980191     0.000019099858
      24        0.000033678986     0.000000507600     0.000024272086
      25       -0.000002634151     0.000010467779     0.000043751320

  **** Optimization is complete! (in 10 steps) ****
    Final optimized geometry and variables:
    Molecular point group: c1

    Geometry (in Angstrom), charge = 0, multiplicity = 1:

    O            2.107184780798     0.033703306671    -1.337739792772
    C            2.017537163834    -1.084528527014    -0.931004378250
    C            0.681153230817    -1.799844536005    -0.814692474878
    C            3.243408899949    -1.882375098026    -0.540638686521
    C           -0.540390808773    -0.880519788437    -0.777913633926
    H            0.634273102171    -2.435197759250    -1.699607366610
    H            0.698409377228    -2.466567507908     0.043467586429
    C           -0.578530208836     0.055385264244     0.434563362063
    H           -1.427225601958    -1.509266996447    -0.743869173417
    H           -0.583292719026    -0.300235327288    -1.692691464500
    C           -1.850973408751     0.903072366703     0.484034614212
    H           -0.509037875737    -0.537551895588     1.346504928438
    H            0.286344532428     0.709571494017     0.418403574222
    C           -1.904575319524     1.841109995688     1.691190690597
    H           -2.722449411301     0.250026826747     0.498700851178
    H           -1.925130801563     1.490537286592    -0.429364279888
    C           -3.178417107493     2.684289003815     1.736587439930
    H           -1.826772876983     1.256329347105     2.605565558809
    H           -1.037612106669     2.497732954062     1.674230717989
    H           -4.063408916021     2.055954871598     1.786519277514
    H           -3.187683720009     3.337555801337     2.603721825676
    H           -3.266809979133     3.308196469473     0.851685845658
    H            3.228854237707    -2.867110896662    -0.997666438239
    H            4.137665673139    -1.352041452566    -0.837243848445
    H            3.254111318188    -2.027118569303     0.536477945625

  Mulliken Charges: (a.u.)
   Center  Symbol    Alpha    Beta     Spin     Total
       1     O     4.26423  4.26423  0.00000 -0.52846
       2     C     2.73438  2.73438  0.00000  0.53124
       3     C     3.21119  3.21119  0.00000 -0.42238
       4     C     3.28765  3.28765  0.00000 -0.57529
       5     C     3.14860  3.14860  0.00000 -0.29721
       6     H     0.40405  0.40405  0.00000  0.19190
       7     H     0.41245  0.41245  0.00000  0.17509
       8     C     3.15931  3.15931  0.00000 -0.31861
       9     H     0.42112  0.42112  0.00000  0.15776
      10     H     0.40876  0.40876  0.00000  0.18249
      11     C     3.15129  3.15129  0.00000 -0.30258
      12     H     0.42916  0.42916  0.00000  0.14168
      13     H     0.40685  0.40685  0.00000  0.18631
      14     C     3.15151  3.15151  0.00000 -0.30302
      15     H     0.42619  0.42619  0.00000  0.14763
      16     H     0.42137  0.42137  0.00000  0.15727
      17     C     3.23929  3.23929  0.00000 -0.47858
      18     H     0.42456  0.42456  0.00000  0.15089
      19     H     0.42114  0.42114  0.00000  0.15772
      20     H     0.42267  0.42267  0.00000  0.15467
      21     H     0.41978  0.41978  0.00000  0.16044
      22     H     0.42123  0.42123  0.00000  0.15755
      23     H     0.41003  0.41003  0.00000  0.17993
      24     H     0.39682  0.39682  0.00000  0.20636
      25     H     0.40638  0.40638  0.00000  0.18723

   Total alpha = 36.00000, Total beta = 36.00000, Total charge = -0.00000
