  ==> Input File <==

--------------------------------------------------------------------------
set {
	reference rhf
	basis 6-31G*
}

set_num_threads( 1 )
memory 2 gb

molecule MOL {
0 1

O	 1.055443	 1.223052	 1.210792
C	 -0.066857	 1.209804	 0.820229
C	 -1.025066	 2.366681	 0.908647
O	 -0.632575	 0.154573	 0.251549
H	 -1.896041	 2.077554	 1.485497
H	 -0.535218	 3.208344	 1.375001
H	 -1.364304	 2.637792	 -0.084416
C	 0.160891	 -1.019931	 0.106212
C	 1.589627	 -0.672828	 0.480843
H	 0.089836	 -1.367806	 -0.916050
H	 -0.238459	 -1.792301	 0.749618
C	 2.246377	 0.346236	 -0.452210
H	 2.163194	 -1.597435	 0.473358
H	 1.604769	 -0.303424	 1.502885
C	 3.691736	 0.652107	 -0.061850
H	 2.219579	 -0.032311	 -1.472055
H	 1.666466	 1.263317	 -0.447249
H	 4.134505	 1.377213	 -0.737283
H	 4.305508	 -0.243868	 -0.089969
H	 3.748266	 1.059562	 0.943567

	symmetry c1
}
set optking {
	frozen_dihedral = ("
		16 12 9 8,
		12 9 8 10,
		1 2 4 8
	")
}

ee = energy('scf')
oeprop('DIPOLE', 'QUADRUPOLE', 'MULLIKEN_CHARGES')
f=open( 'psi4out.xyz', 'w' )
f.write( "20  " )
f.write( str(ee) + "\n" )
f.write( MOL.save_string_xyz() )
f.close()
--------------------------------------------------------------------------

    Molecular point group: c1

    Geometry (in Angstrom), charge = 0, multiplicity = 1:

       Center              X                  Y                   Z               Mass
    ------------   -----------------  -----------------  -----------------  -----------------
           O          0.177225716357     0.680722316134     0.798872500966    15.994914619560
           C         -0.945074283643     0.667474316134     0.408309500966    12.000000000000
           C         -1.903283283643     1.824351316134     0.496727500966    12.000000000000
           O         -1.510792283643    -0.387756683866    -0.160370499034    15.994914619560
           H         -2.774258283643     1.535224316134     1.073577500966     1.007825032070
           H         -1.413435283643     2.666014316134     0.963081500966     1.007825032070
           H         -2.242521283643     2.095462316134    -0.496335499034     1.007825032070
           C         -0.717326283643    -1.562260683866    -0.305707499034    12.000000000000
           C          0.711409716357    -1.215157683866     0.068923500966    12.000000000000
           H         -0.788381283643    -1.910135683866    -1.327969499034     1.007825032070
           H         -1.116676283643    -2.334630683866     0.337698500966     1.007825032070
           C          1.368159716357    -0.196093683866    -0.864129499034    12.000000000000
           H          1.284976716357    -2.139764683866     0.061438500966     1.007825032070
           H          0.726551716357    -0.845753683866     1.090965500966     1.007825032070
           C          2.813518716357     0.109777316134    -0.473769499034    12.000000000000
           H          1.341361716357    -0.574640683866    -1.883974499034     1.007825032070
           H          0.788248716357     0.720987316134    -0.859168499034     1.007825032070
           H          3.256287716357     0.834883316134    -1.149202499034     1.007825032070
           H          3.427290716357    -0.786197683866    -0.501888499034     1.007825032070
           H          2.870048716357     0.517232316134     0.531647500966     1.007825032070

  Charge       = 0
  Multiplicity = 1
  Basis Set: 6-31G*
  Basis Set:

    Orbital Energies (a.u.)
    -----------------------

    Doubly Occupied:

       1A    -20.607804     2A    -20.536531     3A    -11.381897
       4A    -11.283317     5A    -11.236531     6A    -11.195017
       7A    -11.194201     8A    -11.193619     9A     -1.483431
      10A     -1.377375    11A     -1.079842    12A     -1.019180
      13A     -0.972308    14A     -0.887631    15A     -0.809116
      16A     -0.771623    17A     -0.703407    18A     -0.686706
      19A     -0.681305    20A     -0.622550    21A     -0.596771
      22A     -0.579348    23A     -0.567291    24A     -0.562572
      25A     -0.543882    26A     -0.532300    27A     -0.516550
      28A     -0.482620    29A     -0.462374    30A     -0.451555
      31A     -0.412288    32A     -0.387921

  @DF-RHF Final Energy:  -383.84095192081941

   => Energetics <=

    Nuclear Repulsion Energy =            419.2524206441680690
    One-Electron Energy =               -1354.5490140175634224
    Two-Electron Energy =                 551.4556414525759465
    DFT Exchange-Correlation Energy =       0.0000000000000000
    Empirical Dispersion Energy =           0.0000000000000000
    PCM Polarization Energy =               0.0000000000000000
    EFP Energy =                            0.0000000000000000
    Total Energy =                       -383.8409519208194070

  Mulliken Charges: (a.u.)
   Center  Symbol    Alpha    Beta     Spin     Total
       1     O     4.28949  4.28949  0.00000 -0.57898
       2     C     2.61247  2.61247  0.00000  0.77506
       3     C     3.28029  3.28029  0.00000 -0.56058
       4     O     4.31147  4.31147  0.00000 -0.62294
       5     H     0.39909  0.39909  0.00000  0.20182
       6     H     0.39724  0.39724  0.00000  0.20551
       7     H     0.40031  0.40031  0.00000  0.19937
       8     C     2.99114  2.99114  0.00000  0.01771
       9     C     3.19347  3.19347  0.00000 -0.38695
      10     H     0.41228  0.41228  0.00000  0.17545
      11     H     0.41183  0.41183  0.00000  0.17634
      12     C     3.14520  3.14520  0.00000 -0.29039
      13     H     0.43054  0.43054  0.00000  0.13892
      14     H     0.38019  0.38019  0.00000  0.23961
      15     C     3.23582  3.23582  0.00000 -0.47164
      16     H     0.43496  0.43496  0.00000  0.13009
      17     H     0.40911  0.40911  0.00000  0.18178
      18     H     0.42351  0.42351  0.00000  0.15298
      19     H     0.42539  0.42539  0.00000  0.14922
      20     H     0.41620  0.41620  0.00000  0.16761

   Total alpha = 32.00000, Total beta = 32.00000, Total charge =  0.00000
