  ==> Input File <==

--------------------------------------------------------------------------
set {
	reference rhf
	basis 6-31G*
}

set_num_threads( 1 )
memory 2 gb

molecule MOL {
0 1

O	 -3.690015	 -0.454670	 -0.172714
C	 -2.668563	 0.129746	 -0.000350
C	 -2.581194	 1.614791	 0.241055
O	 -1.481751	 -0.454642	 0.000584
H	 -3.163883	 1.859080	 1.121203
H	 -1.560565	 1.942111	 0.373778
H	 -3.027071	 2.130930	 -0.600773
C	 -0.334255	 0.388708	 0.000906
C	 0.891947	 -0.504646	 0.000751
H	 -0.365390	 1.025305	 -0.873475
H	 -0.365484	 1.024911	 0.875569
C	 2.191998	 0.301789	 0.000897
H	 0.855148	 -1.151283	 -0.871571
H	 0.855132	 -1.151660	 0.872805
C	 3.441114	 -0.581407	 0.000108
H	 2.215074	 0.954890	 -0.869742
H	 2.215465	 0.953923	 0.872248
C	 4.739576	 0.224112	 -0.001102
H	 3.419457	 -1.233487	 -0.870178
H	 3.420834	 -1.233096	 0.870717
H	 4.804918	 0.861552	 -0.878265
H	 5.606527	 -0.429058	 -0.001824
H	 4.806469	 0.861674	 0.875853

	symmetry c1
}
set optking {
	frozen_dihedral = ("
		13 9 8 10,
		2 4 8 10,
		16 12 9 13,
		19 15 12 16
	")
}

ee = energy('scf')
oeprop('DIPOLE', 'QUADRUPOLE', 'MULLIKEN_CHARGES')
f=open( 'psi4out.xyz', 'w' )
f.write( "23  " )
f.write( str(ee) + "\n" )
f.write( MOL.save_string_xyz() )
f.close()
--------------------------------------------------------------------------

    Molecular point group: c1

    Geometry (in Angstrom), charge = 0, multiplicity = 1:

       Center              X                  Y                   Z               Mass
    ------------   -----------------  -----------------  -----------------  -----------------
           O         -3.730879412115    -0.537673808331    -0.180841127719    15.994914619560
           C         -2.709427412115     0.046742191669    -0.008477127719    12.000000000000
           C         -2.622058412115     1.531787191669     0.232927872281    12.000000000000
           O         -1.522615412115    -0.537645808331    -0.007543127719    15.994914619560
           H         -3.204747412115     1.776076191669     1.113075872281     1.007825032070
           H         -1.601429412115     1.859107191669     0.365650872281     1.007825032070
           H         -3.067935412115     2.047926191669    -0.608900127719     1.007825032070
           C         -0.375119412115     0.305704191669    -0.007221127719    12.000000000000
           C          0.851082587885    -0.587649808331    -0.007376127719    12.000000000000
           H         -0.406254412115     0.942301191669    -0.881602127719     1.007825032070
           H         -0.406348412115     0.941907191669     0.867441872281     1.007825032070
           C          2.151133587885     0.218785191669    -0.007230127719    12.000000000000
           H          0.814283587885    -1.234286808331    -0.879698127719     1.007825032070
           H          0.814267587885    -1.234663808331     0.864677872281     1.007825032070
           C          3.400249587885    -0.664410808331    -0.008019127719    12.000000000000
           H          2.174209587885     0.871886191669    -0.877869127719     1.007825032070
           H          2.174600587885     0.870919191669     0.864120872281     1.007825032070
           C          4.698711587885     0.141108191669    -0.009229127719    12.000000000000
           H          3.378592587885    -1.316490808331    -0.878305127719     1.007825032070
           H          3.379969587885    -1.316099808331     0.862589872281     1.007825032070
           H          4.764053587885     0.778548191669    -0.886392127719     1.007825032070
           H          5.565662587885    -0.512061808331    -0.009951127719     1.007825032070
           H          4.765604587885     0.778670191669     0.867725872281     1.007825032070

  Charge       = 0
  Multiplicity = 1
  Basis Set: 6-31G*
  Basis Set:

    Orbital Energies (a.u.)
    -----------------------

    Doubly Occupied:

       1A    -20.605784     2A    -20.538512     3A    -11.375469
       4A    -11.299915     5A    -11.232579     6A    -11.232058
       7A    -11.231463     8A    -11.227051     9A    -11.217694
      10A     -1.467102    11A     -1.366255    12A     -1.100621
      13A     -1.038012    14A     -1.020852    15A     -0.948049
      16A     -0.852766    17A     -0.811587    18A     -0.781727
      19A     -0.706987    20A     -0.699302    21A     -0.664711
      22A     -0.652542    23A     -0.612346    24A     -0.602818
      25A     -0.586517    26A     -0.570849    27A     -0.558388
      28A     -0.539471    29A     -0.533574    30A     -0.511274
      31A     -0.501446    32A     -0.483503    33A     -0.477711
      34A     -0.475887    35A     -0.446181    36A     -0.427130

  @DF-RHF Final Energy:  -422.94546453660479

   => Energetics <=

    Nuclear Repulsion Energy =            453.1064946407437333
    One-Electron Energy =               -1473.3075602024905493
    Two-Electron Energy =                 597.2556010251429370
    DFT Exchange-Correlation Energy =       0.0000000000000000
    Empirical Dispersion Energy =           0.0000000000000000
    PCM Polarization Energy =               0.0000000000000000
    EFP Energy =                            0.0000000000000000
    Total Energy =                       -422.9454645366039358

  Mulliken Charges: (a.u.)
   Center  Symbol    Alpha    Beta     Spin     Total
       1     O     4.27627  4.27627  0.00000 -0.55255
       2     C     2.59864  2.59864  0.00000  0.80272
       3     C     3.31592  3.31592  0.00000 -0.63185
       4     O     4.30409  4.30409  0.00000 -0.60817
       5     H     0.39323  0.39323  0.00000  0.21355
       6     H     0.40246  0.40246  0.00000  0.19509
       7     H     0.39366  0.39366  0.00000  0.21267
       8     C     3.01989  3.01989  0.00000 -0.03977
       9     C     3.16019  3.16019  0.00000 -0.32037
      10     H     0.41073  0.41073  0.00000  0.17854
      11     H     0.41100  0.41100  0.00000  0.17800
      12     C     3.16124  3.16124  0.00000 -0.32248
      13     H     0.40865  0.40865  0.00000  0.18270
      14     H     0.40938  0.40938  0.00000  0.18124
      15     C     3.15195  3.15195  0.00000 -0.30391
      16     H     0.42197  0.42197  0.00000  0.15606
      17     H     0.42247  0.42247  0.00000  0.15506
      18     C     3.24013  3.24013  0.00000 -0.48026
      19     H     0.41962  0.41962  0.00000  0.16076
      20     H     0.41989  0.41989  0.00000  0.16021
      21     H     0.42094  0.42094  0.00000  0.15811
      22     H     0.41657  0.41657  0.00000  0.16686
      23     H     0.42110  0.42110  0.00000  0.15780

   Total alpha = 36.00000, Total beta = 36.00000, Total charge = -0.00000
