  ==> Input File <==

--------------------------------------------------------------------------
set {
	reference rhf
	basis 6-31G*
}

set_num_threads( 4 )
memory 2 gb

molecule MOL {
0 1

H	 -0.216825	 0.021369	 -3.357402
C	 0.374198	 0.036393	 -2.447010
C	 -0.521757	 -0.028637	 -1.217342
H	 0.969602	 0.942322	 -2.434777
H	 1.053364	 -0.811668	 -2.481329
N	 0.263400	 0.031178	 0.000000
H	 -1.199035	 0.820290	 -1.219355
H	 -1.147901	 -0.924895	 -1.265384
C	 -0.521757	 -0.028637	 1.217342
H	 0.935769	 -0.712709	 0.000000
C	 -0.137340	 1.096227	 2.169156
H	 -1.568130	 0.071639	 0.944512
H	 -0.425451	 -0.991721	 1.728064
H	 -0.269727	 2.059856	 1.690350
H	 -0.746339	 1.067969	 3.067304
H	 0.902760	 1.012427	 2.473822

	symmetry c1
}
set optking {
	frozen_dihedral = ("
		12 9 6 3
	")
}

ee = optimize('scf')
oeprop('DIPOLE', 'QUADRUPOLE', 'MULLIKEN_CHARGES')
f=open( 'psi4out.xyz', 'w' )
f.write( "16  " )
f.write( str(ee) + "\n" )
f.write( MOL.save_string_xyz() )
f.close()
--------------------------------------------------------------------------

    Molecular point group: c1
  Charge       = 0
  Multiplicity = 1
  Basis Set: 6-31G*
  Basis Set:
  @DF-RHF Final Energy:  -212.30890366941787
    Total Energy =                       -212.3089036694178731
    Molecular point group: c1
  Basis Set: 6-31G*
  Basis Set:
  Basis Set: 6-31G*
  Basis Set:
  @DF-RHF Final Energy:  -212.30936434892686
    Total Energy =                       -212.3093643489269198
  Basis Set: 6-31G*
  Basis Set:
  Basis Set: 6-31G*
  Basis Set:
  @DF-RHF Final Energy:  -212.30951167256430
    Total Energy =                       -212.3095116725643265
  Basis Set: 6-31G*
  Basis Set:
  Basis Set: 6-31G*
  Basis Set:
  @DF-RHF Final Energy:  -212.30951578300474
    Total Energy =                       -212.3095157830048265
  Basis Set: 6-31G*
  Basis Set:
  Charge       = 0
  Multiplicity = 1
  Basis Set: 6-31G*
  Basis Set:

    Orbital Energies (a.u.)
    -----------------------

    Doubly Occupied:

       1A    -15.531218     2A    -11.241508     3A    -11.240717
       4A    -11.208066     5A    -11.200994     6A     -1.200510
       7A     -1.025462     8A     -0.962340     9A     -0.835318
      10A     -0.814702    11A     -0.663559    12A     -0.624985
      13A     -0.606718    14A     -0.564840    15A     -0.559561
      16A     -0.523924    17A     -0.505400    18A     -0.489619
      19A     -0.483083    20A     -0.470660    21A     -0.353142

  @DF-RHF Final Energy:  -212.30951640230856

   => Energetics <=

    Nuclear Repulsion Energy =            189.1494488086992476
    One-Electron Energy =                -660.7052781819470511
    Two-Electron Energy =                 259.2463129709391865
    DFT Exchange-Correlation Energy =       0.0000000000000000
    Empirical Dispersion Energy =           0.0000000000000000
    PCM Polarization Energy =               0.0000000000000000
    EFP Energy =                            0.0000000000000000
    Total Energy =                       -212.3095164023085886
    Molecular point group: c1
  Basis Set: 6-31G*
  Basis Set:

  -Total Gradient:
     Atom            X                  Y                   Z
    ------   -----------------  -----------------  -----------------
       1        0.000008643247    -0.000003249222    -0.000019886501
       2       -0.000009499383    -0.000006738431    -0.000009755002
       3       -0.000106212076     0.001438881365     0.000011237646
       4       -0.000014757117    -0.000003610163     0.000010905085
       5       -0.000005284842    -0.000000161284     0.000004883679
       6        0.000151625633    -0.002448880702    -0.000039703753
       7       -0.000000994749    -0.000004336482     0.000000402258
       8        0.000015259957     0.000008519821    -0.000002027911
       9        0.000119741893     0.002875260820     0.000209912384
      10        0.000012740738    -0.000018139063    -0.000004031606
      11       -0.000015380825    -0.000031457715    -0.000015935728
      12       -0.000148852191    -0.001790961966    -0.000145224267
      13        0.000004686196    -0.000008557536     0.000017585510
      14        0.000000173408    -0.000007278465    -0.000001402581
      15        0.000002726240     0.000014905265    -0.000003687148
      16       -0.000014616128    -0.000014196243    -0.000013272066

  **** Optimization is complete! (in 5 steps) ****
    Final optimized geometry and variables:
    Molecular point group: c1

    Geometry (in Angstrom), charge = 0, multiplicity = 1:

    H           -0.073468235757    -0.207636400901    -3.314105237538
    C            0.498571690786    -0.183654481918    -2.391795142104
    C           -0.421033665697    -0.263958643575    -1.180828246513
    H            1.079078430378     0.731637534215    -2.366446707461
    H            1.191739514142    -1.020851871650    -2.412669792665
    N            0.342283184602    -0.189219194411     0.049302491383
    H           -1.110209772481     0.574595038634    -1.197368244924
    H           -1.031257921375    -1.169933858810    -1.246183193174
    C           -0.431537640457    -0.225325290264     1.284662290046
    H            1.053426585069    -0.891998686795     0.058477460808
    C           -0.010752104242     0.879189495936     2.246680942875
    H           -1.486651782938    -0.126664875453     1.047592109430
    H           -0.333596315348    -1.192067746588     1.777860425271
    H           -0.146178902938     1.852580244958     1.787800960561
    H           -0.593685540742     0.843788375238     3.163453780301
    H            1.038037721643     0.779833734266     2.508078096929

  Mulliken Charges: (a.u.)
   Center  Symbol    Alpha    Beta     Spin     Total
       1     H     0.42023  0.42023  0.00000  0.15954
       2     C     3.24320  3.24320  0.00000 -0.48641
       3     C     3.05155  3.05155  0.00000 -0.10310
       4     H     0.41206  0.41206  0.00000  0.17587
       5     H     0.42496  0.42496  0.00000  0.15007
       6     N     3.85494  3.85494  0.00000 -0.70988
       7     H     0.42024  0.42024  0.00000  0.15952
       8     H     0.43556  0.43556  0.00000  0.12888
       9     C     3.06023  3.06023  0.00000 -0.12046
      10     H     0.33264  0.33264  0.00000  0.33471
      11     C     3.22677  3.22677  0.00000 -0.45353
      12     H     0.42200  0.42200  0.00000  0.15601
      13     H     0.42821  0.42821  0.00000  0.14357
      14     H     0.41816  0.41816  0.00000  0.16368
      15     H     0.42754  0.42754  0.00000  0.14493
      16     H     0.42169  0.42169  0.00000  0.15661

   Total alpha = 21.00000, Total beta = 21.00000, Total charge =  0.00000
