  ==> Input File <==

--------------------------------------------------------------------------
set {
	reference rhf
	basis cc-pvtz
}

set_num_threads( 4 )
memory 2 gb

molecule MOL {
0 1

H	 2.828711	 -0.346904	 0.001083
C	 1.876752	 0.015931	 -0.363450
C	 0.776285	 -0.474665	 0.563092
H	 1.728113	 -0.357244	 -1.367440
H	 1.906171	 1.096574	 -0.386153
N	 -0.540022	 0.017605	 0.071630
H	 0.707111	 -1.548969	 0.573035
H	 0.886169	 -0.084184	 1.560432
O	 -1.283651	 -0.784963	 -0.383447
O	 -0.743386	 1.182929	 0.142755

	symmetry c1
}
set optking {
	frozen_dihedral = ("
		9 6 3 2
	")
}

ee = optimize('scf')
oeprop('DIPOLE', 'QUADRUPOLE', 'MULLIKEN_CHARGES')
f=open( 'psi4out.xyz', 'w' )
f.write( "10  " )
f.write( str(ee) + "\n" )
f.write( MOL.save_string_xyz() )
f.close()
--------------------------------------------------------------------------

    Molecular point group: c1
  Charge       = 0
  Multiplicity = 1
  Basis Set: CC-PVTZ
  Basis Set:
  @DF-RHF Final Energy:  -282.81321117114476
    Total Energy =                       -282.8132111711447010
    Molecular point group: c1
  Basis Set: CC-PVTZ
  Basis Set:
  Basis Set: CC-PVTZ
  Basis Set:
  @DF-RHF Final Energy:  -282.80827206881918
    Total Energy =                       -282.8082720688191216
  Basis Set: CC-PVTZ
  Basis Set:
  Basis Set: CC-PVTZ
  Basis Set:
  @DF-RHF Final Energy:  -282.81314179178355
    Total Energy =                       -282.8131417917834369
  Basis Set: CC-PVTZ
  Basis Set:
  Basis Set: CC-PVTZ
  Basis Set:
  @DF-RHF Final Energy:  -282.81329356130141
    Total Energy =                       -282.8132935613011796
  Basis Set: CC-PVTZ
  Basis Set:
  Charge       = 0
  Multiplicity = 1
  Basis Set: CC-PVTZ
  Basis Set:

    Orbital Energies (a.u.)
    -----------------------

    Doubly Occupied:

       1A    -20.593657     2A    -20.590356     3A    -15.838536
       4A    -11.302001     5A    -11.249804     6A     -1.637839
       7A     -1.422148     8A     -1.126137     9A     -0.966864
      10A     -0.839202    11A     -0.763975    12A     -0.740685
      13A     -0.730362    14A     -0.658015    15A     -0.590664
      16A     -0.561304    17A     -0.547224    18A     -0.488866
      19A     -0.479387    20A     -0.455075

  @DF-RHF Final Energy:  -282.81329430681956

   => Energetics <=

    Nuclear Repulsion Energy =            186.7236197410155114
    One-Electron Energy =                -755.9096273121809872
    Two-Electron Energy =                 286.3727132643458049
    DFT Exchange-Correlation Energy =       0.0000000000000000
    Empirical Dispersion Energy =           0.0000000000000000
    PCM Polarization Energy =               0.0000000000000000
    EFP Energy =                            0.0000000000000000
    Total Energy =                       -282.8132943068196141
    Molecular point group: c1
  Basis Set: CC-PVTZ
  Basis Set:

  -Total Gradient:
     Atom            X                  Y                   Z
    ------   -----------------  -----------------  -----------------
       1       -0.000032973518    -0.000006500656     0.000023197921
       2       -0.000018135887     0.000087276467     0.000022082108
       3       -0.000055930858    -0.000247773956     0.000022054524
       4       -0.000000109600    -0.000000106704     0.000009700211
       5       -0.000010363917     0.000018308409     0.000003698547
       6        0.000368028114     0.000333679743    -0.000104609083
       7        0.000069074682    -0.000036949911     0.000001661389
       8        0.000005624816    -0.000004364394    -0.000017905419
       9       -0.000165979576     0.000032713398     0.000127001290
      10       -0.000159234258    -0.000176282397    -0.000086881488

  **** Optimization is complete! (in 5 steps) ****
    Final optimized geometry and variables:
    Molecular point group: c1

    Geometry (in Angstrom), charge = 0, multiplicity = 1:

    H            2.834319360702    -0.352163778300     0.002311236688
    C            1.886597925591     0.019077662510    -0.365169777451
    C            0.780977824655    -0.469272901877     0.554364045178
    H            1.742834646720    -0.351531365362    -1.371790669697
    H            1.920532663452     1.098326646393    -0.386639312217
    N           -0.540568228041     0.017813364801     0.068261026152
    H            0.710829366536    -1.542313526250     0.580760899763
    H            0.887774817106    -0.069281908735     1.550134850560
    O           -1.286770964738    -0.781920373801    -0.385923457311
    O           -0.751435394381     1.180758871699     0.160607777517

  Mulliken Charges: (a.u.)
   Center  Symbol    Alpha    Beta     Spin     Total
       1     H     0.44822  0.44822  0.00000  0.10356
       2     C     3.14118  3.14118  0.00000 -0.28236
       3     C     3.03763  3.03763  0.00000 -0.07527
       4     H     0.44378  0.44378  0.00000  0.11244
       5     H     0.43785  0.43785  0.00000  0.12430
       6     N     3.27740  3.27740  0.00000  0.44521
       7     H     0.43308  0.43308  0.00000  0.13385
       8     H     0.43659  0.43659  0.00000  0.12681
       9     O     4.16941  4.16941  0.00000 -0.33883
      10     O     4.17486  4.17486  0.00000 -0.34971

   Total alpha = 20.00000, Total beta = 20.00000, Total charge =  0.00000
