  ==> Input File <==

--------------------------------------------------------------------------
set {
	reference rhf
	basis 6-31G*
}

set_num_threads( 4 )
memory 2 gb

molecule MOL {
0 1

H	 3.276176	 0.174363	 -0.109463
N	 2.434251	 -0.367735	 -0.081097
C	 1.267428	 0.496480	 0.024474
H	 2.501951	 -0.965776	 0.720575
C	 -0.016086	 -0.325158	 -0.029487
H	 1.288818	 1.183521	 -0.816092
H	 1.267576	 1.109062	 0.929528
C	 -1.282277	 0.529072	 0.046735
H	 -0.012495	 -0.908639	 -0.945788
H	 -0.015903	 -1.041248	 0.791956
C	 -2.415451	 -0.008494	 -0.826558
H	 -1.048334	 1.547880	 -0.255405
H	 -1.620687	 0.587293	 1.079229
H	 -2.120314	 -0.045937	 -1.871169
H	 -3.299234	 0.617784	 -0.754276
H	 -2.697200	 -1.014179	 -0.527498

	symmetry c1
}
set optking {
	frozen_dihedral = ("
		12 8 5 9
	")
}

ee = optimize('scf')
oeprop('DIPOLE', 'QUADRUPOLE', 'MULLIKEN_CHARGES')
f=open( 'psi4out.xyz', 'w' )
f.write( "16  " )
f.write( str(ee) + "\n" )
f.write( MOL.save_string_xyz() )
f.close()
--------------------------------------------------------------------------

    Molecular point group: c1
  Charge       = 0
  Multiplicity = 1
  Basis Set: 6-31G*
  Basis Set:
  @DF-RHF Final Energy:  -212.31339724669624
    Total Energy =                       -212.3133972466962405
    Molecular point group: c1
  Basis Set: 6-31G*
  Basis Set:
  Basis Set: 6-31G*
  Basis Set:
  @DF-RHF Final Energy:  -212.31366948083652
    Total Energy =                       -212.3136694808366087
  Basis Set: 6-31G*
  Basis Set:
  Basis Set: 6-31G*
  Basis Set:
  @DF-RHF Final Energy:  -212.31372296658512
    Total Energy =                       -212.3137229665851464
  Basis Set: 6-31G*
  Basis Set:
  Basis Set: 6-31G*
  Basis Set:
  @DF-RHF Final Energy:  -212.31372568339833
    Total Energy =                       -212.3137256833985589
  Basis Set: 6-31G*
  Basis Set:
  Charge       = 0
  Multiplicity = 1
  Basis Set: 6-31G*
  Basis Set:

    Orbital Energies (a.u.)
    -----------------------

    Doubly Occupied:

       1A    -15.532728     2A    -11.240499     3A    -11.214919
       4A    -11.209420     5A    -11.207996     6A     -1.176998
       7A     -1.057598     8A     -0.958751     9A     -0.844772
      10A     -0.792345    11A     -0.663272    12A     -0.628804
      13A     -0.614247    14A     -0.575907    15A     -0.560446
      16A     -0.529227    17A     -0.497916    18A     -0.473434
      19A     -0.463100    20A     -0.456751    21A     -0.381262

  @DF-RHF Final Energy:  -212.31372577260589

   => Energetics <=

    Nuclear Repulsion Energy =            186.2326918256556496
    One-Electron Energy =                -654.9320491671272748
    Two-Electron Energy =                 256.3856315688656196
    DFT Exchange-Correlation Energy =       0.0000000000000000
    Empirical Dispersion Energy =           0.0000000000000000
    PCM Polarization Energy =               0.0000000000000000
    EFP Energy =                            0.0000000000000000
    Total Energy =                       -212.3137257726060056
    Molecular point group: c1
  Basis Set: 6-31G*
  Basis Set:

  -Total Gradient:
     Atom            X                  Y                   Z
    ------   -----------------  -----------------  -----------------
       1        0.000001921048     0.000000041881    -0.000000423865
       2        0.000007244659     0.000005684868    -0.000019508678
       3       -0.000010453874    -0.000006043112     0.000034480032
       4       -0.000008157728     0.000005835091     0.000000235010
       5        0.002568056071     0.004007026872    -0.001471407115
       6        0.000001730798    -0.000010775597     0.000003128533
       7        0.000006290489     0.000002681913    -0.000000799433
       8       -0.001564709649    -0.001897432556    -0.004257166089
       9       -0.001887320748    -0.003032903753     0.001896429211
      10        0.000006030167     0.000003729029     0.000005322410
      11       -0.000004051787     0.000007742125    -0.000000704066
      12        0.000884868996     0.000908727535     0.003796945192
      13       -0.000005777973     0.000001255701     0.000008060137
      14       -0.000000298212     0.000002042229     0.000005705436
      15       -0.000001170591    -0.000001010046    -0.000000673603
      16        0.000005798335     0.000003397819     0.000000376889

  **** Optimization is complete! (in 5 steps) ****
    Final optimized geometry and variables:
    Molecular point group: c1

    Geometry (in Angstrom), charge = 0, multiplicity = 1:

    H            3.258489183539     0.103971839111     0.124644313828
    N            2.413498957930    -0.434043550035     0.130224000091
    C            1.248049562727     0.435240954975     0.188445042376
    H            2.451728996123    -1.025745935094     0.938430061470
    C           -0.036425657405    -0.378840024264     0.094984351267
    H            1.300414599253     1.116506269007    -0.655363971242
    H            1.217209266477     1.054778351493     1.088682618175
    C           -1.312539542025     0.475568004542     0.188679724614
    H           -0.028953519414    -0.960108904188    -0.822420618925
    H           -0.043898829615    -1.117110579542     0.896022376848
    C           -2.474251253792    -0.073306712382    -0.636548414193
    H           -1.095029442551     1.500129083709    -0.106565029745
    H           -1.618746302622     0.546037749665     1.229978971660
    H           -2.227431912264    -0.091959457759    -1.694030142582
    H           -3.367057855996     0.531950490837    -0.513031750553
    H           -2.718653079622    -1.088908302751    -0.337774173971

  Mulliken Charges: (a.u.)
   Center  Symbol    Alpha    Beta     Spin     Total
       1     H     0.33239  0.33239  0.00000  0.33521
       2     N     3.92191  3.92191  0.00000 -0.84382
       3     C     3.06218  3.06218  0.00000 -0.12435
       4     H     0.33522  0.33522  0.00000  0.32957
       5     C     3.15233  3.15233  0.00000 -0.30465
       6     H     0.42038  0.42038  0.00000  0.15925
       7     H     0.43443  0.43443  0.00000  0.13114
       8     C     3.15755  3.15755  0.00000 -0.31511
       9     H     0.41217  0.41217  0.00000  0.17566
      10     H     0.42634  0.42634  0.00000  0.14732
      11     C     3.23895  3.23895  0.00000 -0.47790
      12     H     0.42242  0.42242  0.00000  0.15517
      13     H     0.42189  0.42189  0.00000  0.15622
      14     H     0.42030  0.42030  0.00000  0.15940
      15     H     0.42043  0.42043  0.00000  0.15914
      16     H     0.42112  0.42112  0.00000  0.15775

   Total alpha = 21.00000, Total beta = 21.00000, Total charge = -0.00000
