  ==> Input File <==

--------------------------------------------------------------------------
set {
	reference rhf
	basis cc-pvtz
}

set_num_threads( 4 )
memory 2 gb

molecule MOL {
0 1

O	 -2.817697	 1.304178	 0.001046
C	 -2.664672	 0.129869	 0.003507
C	 -3.797908	 -0.860100	 -0.001145
O	 -1.481217	 -0.452708	 0.001092
H	 -4.408836	 -0.679689	 -0.875387
H	 -3.443486	 -1.878443	 -0.002770
H	 -4.412123	 -0.683688	 0.871605
C	 -0.332055	 0.384012	 -0.000250
C	 0.892252	 -0.506059	 -0.000295
H	 -0.360822	 1.020205	 -0.874146
H	 -0.359817	 1.021310	 0.872861
C	 1.050976	 -1.264862	 1.314005
H	 1.770687	 0.103913	 -0.184564
H	 0.818212	 -1.206316	 -0.826021
C	 2.279539	 -2.169974	 1.337034
H	 1.113947	 -0.556485	 2.136328
H	 0.162455	 -1.864314	 1.496112
C	 2.437863	 -2.929323	 2.649791
H	 3.168257	 -1.571815	 1.156917
H	 2.217655	 -2.878398	 0.515819
H	 2.536838	 -2.246901	 3.487257
H	 3.317854	 -3.561658	 2.633213
H	 1.578707	 -3.563366	 2.841348

	symmetry c1
}
set optking {
	frozen_dihedral = ("
		13 9 8 10
	")
}

ee = optimize('scf')
oeprop('DIPOLE', 'QUADRUPOLE', 'MULLIKEN_CHARGES')
f=open( 'psi4out.xyz', 'w' )
f.write( "23  " )
f.write( str(ee) + "\n" )
f.write( MOL.save_string_xyz() )
f.close()
--------------------------------------------------------------------------

    Molecular point group: c1
  Charge       = 0
  Multiplicity = 1
  Basis Set: CC-PVTZ
  Basis Set:
  @DF-RHF Final Energy:  -423.13430567113556
    Total Energy =                       -423.1343056711355075
    Molecular point group: c1
  Basis Set: CC-PVTZ
  Basis Set:
  Basis Set: CC-PVTZ
  Basis Set:
  @DF-RHF Final Energy:  -423.13435697235849
    Total Energy =                       -423.1343569723579776
  Basis Set: CC-PVTZ
  Basis Set:
  Basis Set: CC-PVTZ
  Basis Set:
  @DF-RHF Final Energy:  -423.13439512878074
    Total Energy =                       -423.1343951287808522
  Basis Set: CC-PVTZ
  Basis Set:
  Basis Set: CC-PVTZ
  Basis Set:
  @DF-RHF Final Energy:  -423.13453819316800
    Total Energy =                       -423.1345381931679412
  Basis Set: CC-PVTZ
  Basis Set:
  Basis Set: CC-PVTZ
  Basis Set:
  @DF-RHF Final Energy:  -423.13456230315376
    Total Energy =                       -423.1345623031537571
  Basis Set: CC-PVTZ
  Basis Set:
  Basis Set: CC-PVTZ
  Basis Set:
  @DF-RHF Final Energy:  -423.13456443468135
    Total Energy =                       -423.1345644346811241
  Basis Set: CC-PVTZ
  Basis Set:
  Charge       = 0
  Multiplicity = 1
  Basis Set: CC-PVTZ
  Basis Set:

    Orbital Energies (a.u.)
    -----------------------

    Doubly Occupied:

       1A    -20.596382     2A    -20.529949     3A    -11.366895
       4A    -11.280044     5A    -11.231234     6A    -11.223334
       7A    -11.217611     8A    -11.216487     9A    -11.209618
      10A     -1.471585    11A     -1.364471    12A     -1.093191
      13A     -1.042615    14A     -1.003789    15A     -0.931915
      16A     -0.843628    17A     -0.802059    18A     -0.778408
      19A     -0.691350    20A     -0.686147    21A     -0.669915
      22A     -0.644672    23A     -0.608902    24A     -0.586368
      25A     -0.579719    26A     -0.573315    27A     -0.560233
      28A     -0.533702    29A     -0.530867    30A     -0.509161
      31A     -0.495626    32A     -0.474984    33A     -0.469412
      34A     -0.462640    35A     -0.449372    36A     -0.441152

  @DF-RHF Final Energy:  -423.13456491234660

   => Energetics <=

    Nuclear Repulsion Energy =            458.5755638480668495
    One-Electron Energy =               -1485.0787564457161807
    Two-Electron Energy =                 603.3686276853031814
    DFT Exchange-Correlation Energy =       0.0000000000000000
    Empirical Dispersion Energy =           0.0000000000000000
    PCM Polarization Energy =               0.0000000000000000
    EFP Energy =                            0.0000000000000000
    Total Energy =                       -423.1345649123461499
    Molecular point group: c1
  Basis Set: CC-PVTZ
  Basis Set:

  -Total Gradient:
     Atom            X                  Y                   Z
    ------   -----------------  -----------------  -----------------
       1       -0.000005664028     0.000003925961     0.000024878776
       2        0.000002208123    -0.000003035940    -0.000033083017
       3       -0.000001629916     0.000001852308     0.000047007472
       4       -0.000003253674    -0.000005388745    -0.000038184755
       5        0.000007198930    -0.000007185039    -0.000013161142
       6        0.000000710322     0.000000899171    -0.000002330955
       7       -0.000007884564     0.000006931351    -0.000013231911
       8       -0.000528580422    -0.000759095186    -0.000669874534
       9        0.000196169445     0.000311856182     0.001046862131
      10        0.000398564264     0.000553781158     0.000419726274
      11        0.000010467210     0.000027124957     0.000015202461
      12       -0.000000928562     0.000004349417    -0.000002031014
      13       -0.000066412979    -0.000130633793    -0.000778387165
      14        0.000001876061    -0.000008596938    -0.000000995309
      15       -0.000001932491    -0.000000102737    -0.000004426467
      16       -0.000001913186     0.000000237073     0.000000946066
      17        0.000002397036     0.000002260380     0.000001193339
      18       -0.000001325608     0.000000753850     0.000001072393
      19       -0.000000417215    -0.000000311172     0.000001543360
      20        0.000000886092    -0.000000180317    -0.000001852788
      21        0.000000031439     0.000000111321     0.000000388043
      22       -0.000000533981     0.000000720199    -0.000001078090
      23       -0.000000032303    -0.000000273468    -0.000000183168

  **** Optimization is complete! (in 7 steps) ****
    Final optimized geometry and variables:
    Molecular point group: c1

    Geometry (in Angstrom), charge = 0, multiplicity = 1:

    O           -2.306474759847     2.022083362031    -0.609018937810
    C           -2.165765679291     0.846275612529    -0.605612958347
    C           -3.309900012227    -0.131366639970    -0.609664088309
    O           -0.988368326692     0.251665873375    -0.598046972055
    H           -3.919273792353     0.056089136551    -1.483535147088
    H           -2.967139549209    -1.153761205824    -0.611737960977
    H           -3.921591044439     0.051674776671     0.263590097435
    C            0.169868277062     1.077147686314    -0.595356613929
    C            1.393499020744     0.185468354452    -0.561023161186
    H            0.161794043584     1.697287324565    -1.480367847656
    H            0.132054057723     1.732610810942     0.264273934839
    C            1.572842068608    -0.579653013956     0.746844910930
    H            2.259934397952     0.815340974085    -0.741968821725
    H            1.339799787224    -0.510232787440    -1.392816142202
    C            2.812703207914    -1.469129670703     0.752413586766
    H            1.636124580216     0.129124940364     1.569340621667
    H            0.693138527433    -1.187295713782     0.931598636748
    C            2.995995472002    -2.230223584896     2.061006532850
    H            3.693290342786    -0.861012244089     0.563283986725
    H            2.749476522435    -2.176797690490    -0.069642708476
    H            3.097212048262    -1.548914729761     2.899227539584
    H            3.882891743532    -2.852589920605     2.032238389486
    H            2.146164746005    -2.874231019586     2.260973043412

  Mulliken Charges: (a.u.)
   Center  Symbol    Alpha    Beta     Spin     Total
       1     O     4.20259  4.20259  0.00000 -0.40518
       2     C     2.81259  2.81259  0.00000  0.37481
       3     C     3.13992  3.13992  0.00000 -0.27984
       4     O     4.14840  4.14840  0.00000 -0.29681
       5     H     0.44156  0.44156  0.00000  0.11689
       6     H     0.44229  0.44229  0.00000  0.11541
       7     H     0.44197  0.44197  0.00000  0.11606
       8     C     2.99150  2.99150  0.00000  0.01701
       9     C     3.08767  3.08767  0.00000 -0.17534
      10     H     0.44449  0.44449  0.00000  0.11102
      11     H     0.45164  0.45164  0.00000  0.09671
      12     C     3.08923  3.08923  0.00000 -0.17847
      13     H     0.45074  0.45074  0.00000  0.09851
      14     H     0.45141  0.45141  0.00000  0.09718
      15     C     3.08529  3.08529  0.00000 -0.17058
      16     H     0.45513  0.45513  0.00000  0.08974
      17     H     0.44778  0.44778  0.00000  0.10443
      18     C     3.14959  3.14959  0.00000 -0.29918
      19     H     0.45479  0.45479  0.00000  0.09042
      20     H     0.45375  0.45375  0.00000  0.09251
      21     H     0.45479  0.45479  0.00000  0.09043
      22     H     0.44804  0.44804  0.00000  0.10392
      23     H     0.45482  0.45482  0.00000  0.09035

   Total alpha = 36.00000, Total beta = 36.00000, Total charge =  0.00000
