                              Psi4 1.0.54 Driver

  ==> Input File <==

--------------------------------------------------------------------------
set {
	reference rhf
	basis cc-pvtz
}

set_num_threads( 4 )
memory 2 gb

molecule MOL {
0 1

H	 2.135413	 0.199768	 -0.854025
O	 1.371592	 -0.355673	 -0.893129
C	 0.489979	 0.078084	 0.002623
C	 -0.763662	 -0.754014	 0.000816
O	 0.700789	 1.014214	 0.693369
C	 -2.038001	 0.074705	 -0.000833
H	 -0.712945	 -1.405886	 -0.864342
H	 -0.715137	 -1.405770	 0.866182
H	 -2.087267	 0.710831	 -0.874232
H	 -2.903419	 -0.576199	 -0.001922
H	 -2.089467	 0.710909	 0.872389

	symmetry c1
}
set optking {
	frozen_dihedral = ("
		2 3 4 7
	")
}

ee,wfn = optimize('scf', return_wfn=True)
oeprop( wfn, 'DIPOLE', 'QUADRUPOLE', 'MULLIKEN_CHARGES')
f=open( 'psi4out.xyz', 'w' )
f.write( "11  " )
f.write( str(ee) + "\n" )
f.write( MOL.save_string_xyz() )
f.close()
--------------------------------------------------------------------------

    Molecular point group: c1
  Charge       = 0
  Multiplicity = 1
  Basis Set: CC-PVTZ
  Basis Set:
  @DF-RHF Final Energy:  -266.95124075269854
    Total Energy =                       -266.9512407526985953
    Molecular point group: c1
  Basis Set: CC-PVTZ
  Basis Set:
  Basis Set: CC-PVTZ
  Basis Set:
  @DF-RHF Final Energy:  -266.95159795971989
    Total Energy =                       -266.9515979597198339
  Basis Set: CC-PVTZ
  Basis Set:
  Basis Set: CC-PVTZ
  Basis Set:
  @DF-RHF Final Energy:  -266.95159993911022
    Total Energy =                       -266.9515999391102241
  Basis Set: CC-PVTZ
  Basis Set:
  Basis Set: CC-PVTZ
  Basis Set:
  @DF-RHF Final Energy:  -266.95168978072081
    Total Energy =                       -266.9516897807208125
  Basis Set: CC-PVTZ
  Basis Set:
  Basis Set: CC-PVTZ
  Basis Set:
  @DF-RHF Final Energy:  -266.95171922562974
    Total Energy =                       -266.9517192256296312
  Basis Set: CC-PVTZ
  Basis Set:
  Charge       = 0
  Multiplicity = 1
  Basis Set: CC-PVTZ
  Basis Set:

    Orbital Energies (a.u.)
    -----------------------

    Doubly Occupied:

       1A    -20.607251     2A    -20.539284     3A    -11.374537
       4A    -11.242078     5A    -11.223185     6A     -1.479344
       7A     -1.369624     8A     -1.066521     9A     -0.917308
      10A     -0.809961    11A     -0.707038    12A     -0.692317
      13A     -0.655189    14A     -0.607868    15A     -0.596676
      16A     -0.536856    17A     -0.527553    18A     -0.509789
      19A     -0.480311    20A     -0.446928

  @DF-RHF Final Energy:  -266.95172142710805

   => Energetics <=

    Nuclear Repulsion Energy =            180.0655579267536268
    One-Electron Energy =                -721.2553235781552985
    Two-Electron Energy =                 274.2380442242936738
    DFT Exchange-Correlation Energy =       0.0000000000000000
    Empirical Dispersion Energy =           0.0000000000000000
    PCM Polarization Energy =               0.0000000000000000
    EFP Energy =                            0.0000000000000000
    Total Energy =                       -266.9517214271079979
    Molecular point group: c1
  Basis Set: CC-PVTZ
  Basis Set:

  -Total Gradient:
     Atom            X                  Y                   Z
    ------   -----------------  -----------------  -----------------
       1        0.000004670631     0.000013286347    -0.000005607826
       2       -0.000392593983     0.000554537072    -0.000694231126
       3        0.000637666277    -0.000982846695     0.001136492860
       4       -0.000933982064     0.001359542782    -0.001154490256
       5        0.000012715327     0.000003407043    -0.000005197985
       6        0.000056206677    -0.000050299135     0.000021314248
       7        0.000583060343    -0.000866028496     0.000663654324
       8        0.000011653063    -0.000030616292     0.000024218348
       9        0.000006789514    -0.000006093809     0.000000359729
      10        0.000006497297    -0.000010504854    -0.000002311575
      11        0.000007316919     0.000015616036     0.000015799258

  **** Optimization is complete! (in 6 steps) ****
    Final optimized geometry and variables:
    Molecular point group: c1

    Geometry (in Angstrom), charge = 0, multiplicity = 1:

    H            2.159951226153     0.223615762055    -0.778060580858
    O            1.404306769261    -0.341127562121    -0.846772443899
    C            0.500745503548     0.059592724043     0.040088848516
    C           -0.739318023017    -0.797061585000     0.044038109997
    O            0.681923429953     0.990881655378     0.746815357735
    C           -2.017542660889     0.034042534711     0.080941278961
    H           -0.715821629885    -1.466206191415    -0.803755240283
    H           -0.674342650975    -1.411714268994     0.936391419390
    H           -2.116367990348     0.638127481101    -0.813079335584
    H           -2.881286624235    -0.615526820667     0.143679495930
    H           -2.018942588985     0.695211821226     0.935776511176

  Mulliken Charges: (a.u.)
   Center  Symbol    Alpha    Beta     Spin     Total
       1     H     0.38025  0.38025  0.00000  0.23950
       2     O     4.15843  4.15843  0.00000 -0.31687
       3     C     2.80403  2.80403  0.00000  0.39194
       4     C     3.09245  3.09245  0.00000 -0.18490
       5     O     4.19701  4.19701  0.00000 -0.39401
       6     C     3.14330  3.14330  0.00000 -0.28661
       7     H     0.43726  0.43726  0.00000  0.12549
       8     H     0.44467  0.44467  0.00000  0.11067
       9     H     0.45242  0.45242  0.00000  0.09516
      10     H     0.44883  0.44883  0.00000  0.10234
      11     H     0.44135  0.44135  0.00000  0.11730

   Total alpha = 20.00000, Total beta = 20.00000, Total charge = -0.00000

*** Psi4 exiting successfully. Buy a developer a beer!
