  ==> Input File <==

--------------------------------------------------------------------------
set {
	reference rhf
	basis 6-31G*
}

set_num_threads( 1 )
memory 2 gb

molecule MOL {
0 1

H	 2.994032	 0.338615	 1.126923
O	 2.292888	 0.891066	 0.812464
C	 1.135793	 0.118896	 0.612333
C	 0.031547	 1.023609	 0.088541
H	 0.813992	 -0.334389	 1.548210
H	 1.333210	 -0.690030	 -0.087501
C	 -1.134819	 0.293262	 -0.585751
H	 0.474374	 1.714721	 -0.623187
H	 -0.338529	 1.620940	 0.920081
C	 -1.917817	 -0.639439	 0.339494
H	 -0.758119	 -0.268455	 -1.433105
H	 -1.813832	 1.041889	 -0.986690
H	 -2.777680	 -1.057197	 -0.174994
H	 -1.310268	 -1.471279	 0.680599
H	 -2.283753	 -0.111424	 1.216626

	symmetry c1
}
set optking {
	frozen_dihedral = ("
		8 4 7 11,
		1 2 3 4
	")
}

ee = energy('scf')
oeprop('DIPOLE', 'QUADRUPOLE', 'MULLIKEN_CHARGES')
f=open( 'psi4out.xyz', 'w' )
f.write( "15  " )
f.write( str(ee) + "\n" )
f.write( MOL.save_string_xyz() )
f.close()
--------------------------------------------------------------------------

    Molecular point group: c1

    Geometry (in Angstrom), charge = 0, multiplicity = 1:

       Center              X                  Y                   Z               Mass
    ------------   -----------------  -----------------  -----------------  -----------------
           H          2.854227905639     0.006538172043     0.848080164327     1.007825032070
           O          2.153083905639     0.558989172043     0.533621164327    15.994914619560
           C          0.995988905639    -0.213180827957     0.333490164327    12.000000000000
           C         -0.108257094361     0.691532172043    -0.190301835673    12.000000000000
           H          0.674187905639    -0.666465827957     1.269367164327     1.007825032070
           H          1.193405905639    -1.022106827957    -0.366343835673     1.007825032070
           C         -1.274623094361    -0.038814827957    -0.864593835673    12.000000000000
           H          0.334569905639     1.382644172043    -0.902029835673     1.007825032070
           H         -0.478333094361     1.288863172043     0.641238164327     1.007825032070
           C         -2.057621094361    -0.971515827957     0.060651164327    12.000000000000
           H         -0.897923094361    -0.600531827957    -1.711947835673     1.007825032070
           H         -1.953636094361     0.709812172043    -1.265532835673     1.007825032070
           H         -2.917484094361    -1.389273827957    -0.453836835673     1.007825032070
           H         -1.450072094361    -1.803355827957     0.401756164327     1.007825032070
           H         -2.423557094361    -0.443500827957     0.937783164327     1.007825032070

  Charge       = 0
  Multiplicity = 1
  Basis Set: 6-31G*
  Basis Set:

    Orbital Energies (a.u.)
    -----------------------

    Doubly Occupied:

       1A    -20.552312     2A    -11.267018     3A    -11.218442
       4A    -11.211695     5A    -11.211182     6A     -1.358606
       7A     -1.070130     8A     -0.971028     9A     -0.870409
      10A     -0.783530    11A     -0.696546    12A     -0.650789
      13A     -0.614503    14A     -0.586594    15A     -0.557245
      16A     -0.537367    17A     -0.507819    18A     -0.474828
      19A     -0.472081    20A     -0.456860    21A     -0.431845

  @DF-RHF Final Energy:  -232.14234410686964

   => Energetics <=

    Nuclear Repulsion Energy =            188.0247568630163073
    One-Electron Energy =                -687.3325278787186789
    Two-Electron Energy =                 267.1654269088319325
    DFT Exchange-Correlation Energy =       0.0000000000000000
    Empirical Dispersion Energy =           0.0000000000000000
    PCM Polarization Energy =               0.0000000000000000
    EFP Energy =                            0.0000000000000000
    Total Energy =                       -232.1423441068704392

  Mulliken Charges: (a.u.)
   Center  Symbol    Alpha    Beta     Spin     Total
       1     H     0.28110  0.28110  0.00000  0.43780
       2     O     4.37176  4.37176  0.00000 -0.74351
       3     C     2.99153  2.99153  0.00000  0.01695
       4     C     3.16136  3.16136  0.00000 -0.32273
       5     H     0.43122  0.43122  0.00000  0.13756
       6     H     0.43305  0.43305  0.00000  0.13391
       7     C     3.15932  3.15932  0.00000 -0.31864
       8     H     0.40990  0.40990  0.00000  0.18020
       9     H     0.41830  0.41830  0.00000  0.16341
      10     C     3.24246  3.24246  0.00000 -0.48492
      11     H     0.42135  0.42135  0.00000  0.15730
      12     H     0.41814  0.41814  0.00000  0.16371
      13     H     0.41811  0.41811  0.00000  0.16378
      14     H     0.42199  0.42199  0.00000  0.15602
      15     H     0.42041  0.42041  0.00000  0.15917

   Total alpha = 21.00000, Total beta = 21.00000, Total charge =  0.00000
