  ==> Input File <==

--------------------------------------------------------------------------
set {
	reference rhf
	basis cc-pvtz
}

set_num_threads( 4 )
memory 2 gb

molecule MOL {
0 1

H	 1.651322	 -0.822465	 0.000000
O	 0.729993	 -1.034364	 0.000000
C	 0.037305	 0.100061	 0.000000
C	 -1.164416	 0.024911	 0.893474
O	 0.360035	 1.038691	 -0.641572
H	 -1.808162	 -0.781241	 0.566091
H	 -1.695407	 0.961877	 0.864021
H	 -0.849212	 -0.195698	 1.905129

	symmetry c1
}
set optking {
	frozen_dihedral = ("
		4 3 2 1
	")
}

ee = optimize('scf')
oeprop('DIPOLE', 'QUADRUPOLE', 'MULLIKEN_CHARGES')
f=open( 'psi4out.xyz', 'w' )
f.write( "8  " )
f.write( str(ee) + "\n" )
f.write( MOL.save_string_xyz() )
f.close()
--------------------------------------------------------------------------

    Molecular point group: c1
  Charge       = 0
  Multiplicity = 1
  Basis Set: CC-PVTZ
  Basis Set:
  @DF-RHF Final Energy:  -227.89625387293631
    Total Energy =                       -227.8962538729362279
    Molecular point group: c1
  Basis Set: CC-PVTZ
  Basis Set:
  Basis Set: CC-PVTZ
  Basis Set:
  @DF-RHF Final Energy:  -227.89361495404484
    Total Energy =                       -227.8936149540446650
  Basis Set: CC-PVTZ
  Basis Set:
  Basis Set: CC-PVTZ
  Basis Set:
  @DF-RHF Final Energy:  -227.89683451442232
    Total Energy =                       -227.8968345144223235
  Basis Set: CC-PVTZ
  Basis Set:
  Basis Set: CC-PVTZ
  Basis Set:
  @DF-RHF Final Energy:  -227.89696009169347
    Total Energy =                       -227.8969600916935008
  Basis Set: CC-PVTZ
  Basis Set:
  @DF-RHF Final Energy:  -227.89704220786876
    Total Energy =                       -227.8970422078687363
  @DF-RHF Final Energy:  -227.89706396028180
    Total Energy =                       -227.8970639602816846
  @DF-RHF Final Energy:  -227.89561314904887
    Total Energy =                       -227.8956131490489554
  @DF-RHF Final Energy:  -227.89706194950827
    Total Energy =                       -227.8970619495082985
  @DF-RHF Final Energy:  -227.89706335336155
    Total Energy =                       -227.8970633533616308
  @DF-RHF Final Energy:  -227.89686501370733
    Total Energy =                       -227.8968650137075542
  @DF-RHF Final Energy:  -227.89706311306105
    Total Energy =                       -227.8970631130612787
  @DF-RHF Final Energy:  -227.89593552555982
    Total Energy =                       -227.8959355255597075
  Basis Set: CC-PVTZ
  Basis Set:
  @DF-RHF Final Energy:  -227.89705903318475
    Total Energy =                       -227.8970590331846608
  Basis Set: CC-PVTZ
  Basis Set:
  Basis Set: CC-PVTZ
  Basis Set:
  @DF-RHF Final Energy:  -227.89706126756383
    Total Energy =                       -227.8970612675639131
  Basis Set: CC-PVTZ
  Basis Set:
  Basis Set: CC-PVTZ
  Basis Set:
  @DF-RHF Final Energy:  -227.89706370103150
    Total Energy =                       -227.8970637010314135
  Basis Set: CC-PVTZ
  Basis Set:
  Charge       = 0
  Multiplicity = 1
  Basis Set: CC-PVTZ
  Basis Set:

    Orbital Energies (a.u.)
    -----------------------

    Doubly Occupied:

       1A    -20.600274     2A    -20.545571     3A    -11.379023
       4A    -11.239795     5A     -1.474649     6A     -1.372453
       7A     -1.026824     8A     -0.832840     9A     -0.707659
      10A     -0.683251    11A     -0.659858    12A     -0.584151
      13A     -0.580348    14A     -0.546261    15A     -0.489531
      16A     -0.452610

  @DF-RHF Final Energy:  -227.89706449120843

   => Energetics <=

    Nuclear Repulsion Energy =            122.5465860706531345
    One-Electron Energy =                -554.5371047508095899
    Two-Electron Energy =                 204.0934541889481295
    DFT Exchange-Correlation Energy =       0.0000000000000000
    Empirical Dispersion Energy =           0.0000000000000000
    PCM Polarization Energy =               0.0000000000000000
    EFP Energy =                            0.0000000000000000
    Total Energy =                       -227.8970644912083401
    Molecular point group: c1
  Basis Set: CC-PVTZ
  Basis Set:

  -Total Gradient:
     Atom            X                  Y                   Z
    ------   -----------------  -----------------  -----------------
       1       -0.000120601195    -0.000923813523     0.011330207561
       2        0.001699487242     0.001830962799    -0.011698233657
       3       -0.005208766637    -0.002829152003    -0.005187163170
       4        0.003873674763     0.001863355782     0.005658662385
       5       -0.000248235927     0.000052599495    -0.000123715084
       6        0.000025785595     0.000000417410     0.000015470266
       7       -0.000016833114    -0.000017211647    -0.000018112779
       8       -0.000004510727     0.000022841689     0.000022884476

  **** Optimization is complete! (in 16 steps) ****
    Final optimized geometry and variables:
    Molecular point group: c1

    Geometry (in Angstrom), charge = 0, multiplicity = 1:

    H            1.592745285829    -0.922068298290    -0.138759563479
    O            0.661978470291    -1.078913625419    -0.162092498041
    C            0.008988346720     0.088258688009    -0.074973877759
    C           -1.206683217628    -0.003407037458     0.798626116427
    O            0.417029027236     1.079270939869    -0.566247710027
    H           -1.779350403207    -0.892740922214     0.574038827215
    H           -1.812770558320     0.880490590189     0.683810741161
    H           -0.864508683253    -0.081666275947     1.823794408201

  Mulliken Charges: (a.u.)
   Center  Symbol    Alpha    Beta     Spin     Total
       1     H     0.37830  0.37830  0.00000  0.24340
       2     O     4.17029  4.17029  0.00000 -0.34057
       3     C     2.80416  2.80416  0.00000  0.39168
       4     C     3.13632  3.13632  0.00000 -0.27265
       5     O     4.18144  4.18144  0.00000 -0.36287
       6     H     0.44390  0.44390  0.00000  0.11221
       7     H     0.43861  0.43861  0.00000  0.12277
       8     H     0.44698  0.44698  0.00000  0.10604

   Total alpha = 16.00000, Total beta = 16.00000, Total charge =  0.00000
