  ==> Input File <==

--------------------------------------------------------------------------
set {
	reference rhf
	basis 6-31G*
}

set_num_threads( 1 )
memory 2 gb

molecule MOL {
0 1

H	 3.557202	 3.519408	 -2.921299
C	 3.689976	 2.701814	 -2.219563
C	 2.445233	 2.508838	 -1.354375
H	 3.908158	 1.805827	 -2.793101
H	 4.561874	 2.926318	 -1.611128
C	 2.601507	 1.366766	 -0.347865
H	 1.590990	 2.312760	 -1.994238
H	 2.232423	 3.433105	 -0.819460
C	 1.377643	 1.161302	 0.545000
H	 2.811623	 0.443154	 -0.875535
H	 3.459254	 1.569743	 0.289403
C	 0.169600	 0.576866	 -0.172154
H	 1.622737	 0.471821	 1.351421
H	 1.090343	 2.091225	 1.030673
C	 -1.181045	 0.701995	 0.511084
O	 0.274582	 0.022555	 -1.224829
C	 -2.285934	 -0.139295	 -0.145128
H	 -1.449051	 1.751551	 0.493206
H	 -1.071135	 0.403303	 1.551943
C	 -3.651768	 0.085446	 0.506485
H	 -2.346596	 0.110469	 -1.202272
H	 -2.034737	 -1.195320	 -0.088721
C	 -4.759797	 -0.746382	 -0.137905
H	 -3.908762	 1.140117	 0.445781
H	 -3.588286	 -0.154158	 1.565709
H	 -4.868882	 -0.505166	 -1.191300
H	 -4.548009	 -1.809175	 -0.062213
H	 -5.715422	 -0.564821	 0.343442

	symmetry c1
}
set optking {
	frozen_dihedral = ("
		10 6 3 2,
		12 15 17 21
	")
}

ee = energy('scf')
oeprop('DIPOLE', 'QUADRUPOLE', 'MULLIKEN_CHARGES')
f=open( 'psi4out.xyz', 'w' )
f.write( "28  " )
f.write( str(ee) + "\n" )
f.write( MOL.save_string_xyz() )
f.close()
--------------------------------------------------------------------------

    Molecular point group: c1

    Geometry (in Angstrom), charge = 0, multiplicity = 1:

       Center              X                  Y                   Z               Mass
    ------------   -----------------  -----------------  -----------------  -----------------
           H          3.694226828602     2.697250243179    -2.499853049573     1.007825032070
           C          3.827000828602     1.879656243179    -1.798117049573    12.000000000000
           C          2.582257828602     1.686680243179    -0.932929049573    12.000000000000
           H          4.045182828602     0.983669243179    -2.371655049573     1.007825032070
           H          4.698898828602     2.104160243179    -1.189682049573     1.007825032070
           C          2.738531828602     0.544608243179     0.073580950427    12.000000000000
           H          1.728014828602     1.490602243179    -1.572792049573     1.007825032070
           H          2.369447828602     2.610947243179    -0.398014049573     1.007825032070
           C          1.514667828602     0.339144243179     0.966445950427    12.000000000000
           H          2.948647828602    -0.379003756821    -0.454089049573     1.007825032070
           H          3.596278828602     0.747585243179     0.710848950427     1.007825032070
           C          0.306624828602    -0.245291756821     0.249291950427    12.000000000000
           H          1.759761828602    -0.350336756821     1.772866950427     1.007825032070
           H          1.227367828602     1.269067243179     1.452118950427     1.007825032070
           C         -1.044020171398    -0.120162756821     0.932529950427    12.000000000000
           O          0.411606828602    -0.799602756821    -0.803383049573    15.994914619560
           C         -2.148909171398    -0.961452756821     0.276317950427    12.000000000000
           H         -1.312026171398     0.929393243179     0.914651950427     1.007825032070
           H         -0.934110171398    -0.418854756821     1.973388950427     1.007825032070
           C         -3.514743171398    -0.736711756821     0.927930950427    12.000000000000
           H         -2.209571171398    -0.711688756821    -0.780826049573     1.007825032070
           H         -1.897712171398    -2.017477756821     0.332724950427     1.007825032070
           C         -4.622772171398    -1.568539756821     0.283540950427    12.000000000000
           H         -3.771737171398     0.317959243179     0.867226950427     1.007825032070
           H         -3.451261171398    -0.976315756821     1.987154950427     1.007825032070
           H         -4.731857171398    -1.327323756821    -0.769854049573     1.007825032070
           H         -4.410984171398    -2.631332756821     0.359232950427     1.007825032070
           H         -5.578397171398    -1.386978756821     0.764887950427     1.007825032070

  Charge       = 0
  Multiplicity = 1
  Basis Set: 6-31G*
  Basis Set:

    Orbital Energies (a.u.)
    -----------------------

    Doubly Occupied:

       1A    -20.548932     2A    -11.323696     3A    -11.231402
       4A    -11.231127     5A    -11.218193     6A    -11.217282
       7A    -11.216987     8A    -11.213191     9A    -11.209612
      10A    -11.206396    11A     -1.394850    12A     -1.086965
      13A     -1.077186    14A     -1.021149    15A     -0.990691
      16A     -0.909791    17A     -0.866258    18A     -0.805691
      19A     -0.790773    20A     -0.722997    21A     -0.668655
      22A     -0.655843    23A     -0.624382    24A     -0.619140
      25A     -0.609173    26A     -0.583471    27A     -0.578580
      28A     -0.574360    29A     -0.535507    30A     -0.526677
      31A     -0.520764    32A     -0.508702    33A     -0.490086
      34A     -0.480800    35A     -0.472335    36A     -0.468702
      37A     -0.468132    38A     -0.466535    39A     -0.456738
      40A     -0.395081

  @DF-RHF Final Energy:  -426.17108399541621

   => Energetics <=

    Nuclear Repulsion Energy =            529.8466869910889727
    One-Electron Energy =               -1628.0618965498938451
    Two-Electron Energy =                 672.0441255633883202
    DFT Exchange-Correlation Energy =       0.0000000000000000
    Empirical Dispersion Energy =           0.0000000000000000
    PCM Polarization Energy =               0.0000000000000000
    EFP Energy =                            0.0000000000000000
    Total Energy =                       -426.1710839954165522

  Mulliken Charges: (a.u.)
   Center  Symbol    Alpha    Beta     Spin     Total
       1     H     0.41929  0.41929  0.00000  0.16143
       2     C     3.24012  3.24012  0.00000 -0.48024
       3     C     3.15656  3.15656  0.00000 -0.31313
       4     H     0.41823  0.41823  0.00000  0.16354
       5     H     0.42345  0.42345  0.00000  0.15310
       6     C     3.14974  3.14974  0.00000 -0.29949
       7     H     0.41071  0.41071  0.00000  0.17858
       8     H     0.42751  0.42751  0.00000  0.14498
       9     C     3.20855  3.20855  0.00000 -0.41710
      10     H     0.40646  0.40646  0.00000  0.18708
      11     H     0.42157  0.42157  0.00000  0.15686
      12     C     2.73309  2.73309  0.00000  0.53383
      13     H     0.40414  0.40414  0.00000  0.19172
      14     H     0.41243  0.41243  0.00000  0.17513
      15     C     3.20797  3.20797  0.00000 -0.41594
      16     O     4.26788  4.26788  0.00000 -0.53575
      17     C     3.14741  3.14741  0.00000 -0.29482
      18     H     0.40689  0.40689  0.00000  0.18622
      19     H     0.41135  0.41135  0.00000  0.17729
      20     C     3.15329  3.15329  0.00000 -0.30658
      21     H     0.40966  0.40966  0.00000  0.18068
      22     H     0.41617  0.41617  0.00000  0.16766
      23     C     3.23922  3.23922  0.00000 -0.47844
      24     H     0.42393  0.42393  0.00000  0.15214
      25     H     0.42474  0.42474  0.00000  0.15052
      26     H     0.41979  0.41979  0.00000  0.16043
      27     H     0.42058  0.42058  0.00000  0.15885
      28     H     0.41926  0.41926  0.00000  0.16148

   Total alpha = 40.00000, Total beta = 40.00000, Total charge = -0.00000
