  ==> Input File <==

--------------------------------------------------------------------------
set {
	reference rhf
	basis cc-pvtz
}

set_num_threads( 4 )
memory 2 gb

molecule MOL {
0 1

H	 -2.355497	 -0.444887	 -0.079161
O	 -1.432053	 -0.565244	 -0.200812
C	 -0.727158	 0.534527	 0.310686
C	 0.680222	 0.664433	 -0.252229
H	 -1.306802	 1.408001	 0.044211
H	 -0.690821	 0.490158	 1.397609
C	 1.605391	 -0.489360	 0.123098
H	 0.615089	 0.745647	 -1.332226
H	 1.101414	 1.597893	 0.110950
H	 1.247627	 -1.432485	 -0.275204
H	 2.601435	 -0.332816	 -0.273062
H	 1.691776	 -0.589902	 1.200774

	symmetry c1
}
set optking {
	frozen_dihedral = ("
		1 2 3 4
	")
}

ee = optimize('scf')
oeprop('DIPOLE', 'QUADRUPOLE', 'MULLIKEN_CHARGES')
f=open( 'psi4out.xyz', 'w' )
f.write( "12  " )
f.write( str(ee) + "\n" )
f.write( MOL.save_string_xyz() )
f.close()
--------------------------------------------------------------------------

    Molecular point group: c1
  Charge       = 0
  Multiplicity = 1
  Basis Set: CC-PVTZ
  Basis Set:
  @DF-RHF Final Energy:  -193.18913876566415
    Total Energy =                       -193.1891387656642678
    Molecular point group: c1
  Basis Set: CC-PVTZ
  Basis Set:
  Basis Set: CC-PVTZ
  Basis Set:
  @DF-RHF Final Energy:  -193.19049339892285
    Total Energy =                       -193.1904933989227970
  Basis Set: CC-PVTZ
  Basis Set:
  Basis Set: CC-PVTZ
  Basis Set:
  @DF-RHF Final Energy:  -193.19083748513444
    Total Energy =                       -193.1908374851343524
  Basis Set: CC-PVTZ
  Basis Set:
  Basis Set: CC-PVTZ
  Basis Set:
  @DF-RHF Final Energy:  -193.19084211647876
    Total Energy =                       -193.1908421164787342
  Basis Set: CC-PVTZ
  Basis Set:
  Charge       = 0
  Multiplicity = 1
  Basis Set: CC-PVTZ
  Basis Set:

    Orbital Energies (a.u.)
    -----------------------

    Doubly Occupied:

       1A    -20.546077     2A    -11.266202     3A    -11.212848
       4A    -11.201115     5A     -1.364088     6A     -1.047877
       7A     -0.919036     8A     -0.799251     9A     -0.707681
      10A     -0.644069    11A     -0.587437    12A     -0.578006
      13A     -0.541340    14A     -0.499971    15A     -0.481248
      16A     -0.465161    17A     -0.435786

  @DF-RHF Final Energy:  -193.19084277160744

   => Energetics <=

    Nuclear Repulsion Energy =            133.3967298209375940
    One-Electron Energy =                -526.5807623972799547
    Two-Electron Energy =                 199.9931898047349250
    DFT Exchange-Correlation Energy =       0.0000000000000000
    Empirical Dispersion Energy =           0.0000000000000000
    PCM Polarization Energy =               0.0000000000000000
    EFP Energy =                            0.0000000000000000
    Total Energy =                       -193.1908427716074357
    Molecular point group: c1
  Basis Set: CC-PVTZ
  Basis Set:

  -Total Gradient:
     Atom            X                  Y                   Z
    ------   -----------------  -----------------  -----------------
       1       -0.000064419741     0.000618210654    -0.001250134288
       2       -0.000015928826    -0.000564201210     0.001303409817
       3        0.000396014904    -0.000525714237     0.000599508231
       4       -0.000305073897     0.000442286774    -0.000657348007
       5        0.000011955189     0.000000823786    -0.000003677972
       6        0.000012314985     0.000001955660    -0.000005300555
       7       -0.000013303399     0.000008275646     0.000009867222
       8       -0.000009347868     0.000000055885    -0.000003403619
       9       -0.000004083684     0.000014600733    -0.000002806508
      10       -0.000000968444     0.000000774404    -0.000001925423
      11       -0.000013738316     0.000014537706     0.000004310464
      12        0.000006579094    -0.000011605801     0.000007500637

  **** Optimization is complete! (in 5 steps) ****
    Final optimized geometry and variables:
    Molecular point group: c1

    Geometry (in Angstrom), charge = 0, multiplicity = 1:

    H           -2.275524966564    -0.531114630272    -0.119183006798
    O           -1.343475980440    -0.599785577567    -0.205742332545
    C           -0.720955476820     0.542700694158     0.323905610697
    C            0.680439898992     0.659371769569    -0.244318300527
    H           -1.287142644313     1.434431167757     0.068826767243
    H           -0.679532297482     0.478653840254     1.409438432243
    C            1.585405758689    -0.511056928467     0.126032654328
    H            0.607146309496     0.741750975098    -1.323649402039
    H            1.113380155597     1.588032210587     0.116699098999
    H            1.176525477213    -1.445472482262    -0.234585283831
    H            2.572766638477    -0.385603771433    -0.303087478181
    H            1.699577355021    -0.589448536162     1.202539302144

  Mulliken Charges: (a.u.)
   Center  Symbol    Alpha    Beta     Spin     Total
       1     H     0.39377  0.39377  0.00000  0.21247
       2     O     4.20073  4.20073  0.00000 -0.40146
       3     C     2.96821  2.96821  0.00000  0.06357
       4     C     3.08101  3.08101  0.00000 -0.16201
       5     H     0.46774  0.46774  0.00000  0.06452
       6     H     0.47458  0.47458  0.00000  0.05084
       7     C     3.14828  3.14828  0.00000 -0.29657
       8     H     0.45438  0.45438  0.00000  0.09124
       9     H     0.45635  0.45635  0.00000  0.08730
      10     H     0.44505  0.44505  0.00000  0.10989
      11     H     0.45111  0.45111  0.00000  0.09778
      12     H     0.45879  0.45879  0.00000  0.08242

   Total alpha = 17.00000, Total beta = 17.00000, Total charge = -0.00000
