  ==> Input File <==

--------------------------------------------------------------------------
set {
	reference rhf
	basis 6-31G*
}

set_num_threads( 4 )
memory 2 gb

molecule MOL {
0 1

H	 -2.147241	 -0.234329	 1.027916
O	 -2.035884	 -0.060112	 0.102722
C	 -0.955155	 0.788182	 -0.092531
C	 0.353668	 0.040312	 -0.004810
H	 -0.985057	 1.290372	 -1.054184
H	 -0.974469	 1.533190	 0.688632
F	 0.394464	 -0.937475	 -0.903053
F	 1.368604	 0.853376	 -0.249821
F	 0.546173	 -0.502608	 1.179981

	symmetry c1
}
set optking {
	frozen_dihedral = ("
		1 2 3 5
	")
}

ee = optimize('scf')
oeprop('DIPOLE', 'QUADRUPOLE', 'MULLIKEN_CHARGES')
f=open( 'psi4out.xyz', 'w' )
f.write( "9  " )
f.write( str(ee) + "\n" )
f.write( MOL.save_string_xyz() )
f.close()
--------------------------------------------------------------------------

    Molecular point group: c1
  Charge       = 0
  Multiplicity = 1
  Basis Set: 6-31G*
  Basis Set:
  @DF-RHF Final Energy:  -450.66035544116676
    Total Energy =                       -450.6603554411667574
    Molecular point group: c1
  Basis Set: 6-31G*
  Basis Set:
  Basis Set: 6-31G*
  Basis Set:
  @DF-RHF Final Energy:  -450.66210367355228
    Total Energy =                       -450.6621036735521102
  Basis Set: 6-31G*
  Basis Set:
  Basis Set: 6-31G*
  Basis Set:
  @DF-RHF Final Energy:  -450.66246621760735
    Total Energy =                       -450.6624662176074594
  Basis Set: 6-31G*
  Basis Set:
  Basis Set: 6-31G*
  Basis Set:
  @DF-RHF Final Energy:  -450.66247795685655
    Total Energy =                       -450.6624779568563781
  Basis Set: 6-31G*
  Basis Set:
  Basis Set: 6-31G*
  Basis Set:
  @DF-RHF Final Energy:  -450.66247978487900
    Total Energy =                       -450.6624797848792241
  Basis Set: 6-31G*
  Basis Set:
  Charge       = 0
  Multiplicity = 1
  Basis Set: 6-31G*
  Basis Set:

    Orbital Energies (a.u.)
    -----------------------

    Doubly Occupied:

       1A    -26.341051     2A    -26.340563     3A    -26.336881
       4A    -20.590666     5A    -11.497825     6A    -11.309782
       7A     -1.737663     8A     -1.636305     9A     -1.634415
      10A     -1.402491    11A     -1.047505    12A     -0.921832
      13A     -0.828197    14A     -0.826548    15A     -0.800874
      16A     -0.730357    17A     -0.709421    18A     -0.697497
      19A     -0.662909    20A     -0.656041    21A     -0.640007
      22A     -0.629262    23A     -0.608525    24A     -0.532288
      25A     -0.480543

  @DF-RHF Final Energy:  -450.66247991302890

   => Energetics <=

    Nuclear Repulsion Energy =            276.9090283328143300
    One-Electron Energy =               -1175.9441202922400862
    Two-Electron Energy =                 448.3726120463970233
    DFT Exchange-Correlation Energy =       0.0000000000000000
    Empirical Dispersion Energy =           0.0000000000000000
    PCM Polarization Energy =               0.0000000000000000
    EFP Energy =                            0.0000000000000000
    Total Energy =                       -450.6624799130286760
    Molecular point group: c1
  Basis Set: 6-31G*
  Basis Set:

  -Total Gradient:
     Atom            X                  Y                   Z
    ------   -----------------  -----------------  -----------------
       1       -0.001016241111     0.001280425982     0.000092540416
       2        0.001057198597    -0.001346167688     0.000042365887
       3        0.000675705093    -0.001016987447    -0.000680034275
       4       -0.000007245165    -0.000073213221     0.000001479497
       5       -0.000733608679     0.001091931107     0.000554455523
       6        0.000008881461    -0.000001184296    -0.000006087144
       7       -0.000008726266    -0.000001999847    -0.000029587039
       8        0.000024968460     0.000027340169     0.000013258364
       9       -0.000000932395     0.000039855244     0.000011608768

  **** Optimization is complete! (in 6 steps) ****
    Final optimized geometry and variables:
    Molecular point group: c1

    Geometry (in Angstrom), charge = 0, multiplicity = 1:

    H           -2.150711571091    -0.226551307960     1.026678930537
    O           -2.033074687477    -0.067012621053     0.100451845132
    C           -0.954987768995     0.783601021391    -0.104250759475
    C            0.352267586450     0.031376920913    -0.038966954132
    H           -1.054239506146     1.223826930279    -1.085476931762
    H           -0.909805786610     1.585280321232     0.625367258558
    F            0.440638946984    -0.904822945475    -0.961438870987
    F            1.369622982179     0.863255193317    -0.205116229841
    F            0.500377164166    -0.553779054032     1.142389448720

  Mulliken Charges: (a.u.)
   Center  Symbol    Alpha    Beta     Spin     Total
       1     H     0.27199  0.27199  0.00000  0.45602
       2     O     4.36097  4.36097  0.00000 -0.72194
       3     C     3.05765  3.05765  0.00000 -0.11530
       4     C     2.46020  2.46020  0.00000  1.07959
       5     H     0.39593  0.39593  0.00000  0.20814
       6     H     0.40975  0.40975  0.00000  0.18051
       7     F     4.67529  4.67529  0.00000 -0.35058
       8     F     4.68290  4.68290  0.00000 -0.36581
       9     F     4.68532  4.68532  0.00000 -0.37064

   Total alpha = 25.00000, Total beta = 25.00000, Total charge =  0.00000
