  ==> Input File <==

--------------------------------------------------------------------------
set {
	reference rhf
	basis cc-pvtz
}

set_num_threads( 4 )
memory 2 gb

molecule MOL {
0 1

H	 1.069906	 -2.315705	 1.184850
C	 1.163795	 -1.309870	 1.615122
C	 -0.074430	 -0.461119	 1.530159
O	 2.187662	 -0.965400	 2.095402
C	 -0.554654	 -0.292621	 0.086567
H	 0.133372	 0.495736	 1.990685
H	 -0.848819	 -0.955982	 2.112663
C	 -1.846385	 0.513195	 -0.016346
H	 0.222869	 0.196233	 -0.493448
H	 -0.705200	 -1.270952	 -0.362741
C	 -3.089953	 -0.365049	 -0.098564
H	 -1.798267	 1.154820	 -0.891143
H	 -1.925398	 1.173265	 0.842889
H	 -3.055079	 -1.012299	 -0.968245
H	 -3.988403	 0.236438	 -0.170014
H	 -3.183055	 -0.995885	 0.779079

	symmetry c1
}
set optking {
	frozen_dihedral = ("
		9 5 8 12
	")
}

ee = optimize('scf')
oeprop('DIPOLE', 'QUADRUPOLE', 'MULLIKEN_CHARGES')
f=open( 'psi4out.xyz', 'w' )
f.write( "16  " )
f.write( str(ee) + "\n" )
f.write( MOL.save_string_xyz() )
f.close()
--------------------------------------------------------------------------

    Molecular point group: c1
  Charge       = 0
  Multiplicity = 1
  Basis Set: CC-PVTZ
  Basis Set:
  @DF-RHF Final Energy:  -270.11497677108872
    Total Energy =                       -270.1149767710883793
    Molecular point group: c1
  Basis Set: CC-PVTZ
  Basis Set:
  Basis Set: CC-PVTZ
  Basis Set:
  @DF-RHF Final Energy:  -270.11526635387628
    Total Energy =                       -270.1152663538761090
  Basis Set: CC-PVTZ
  Basis Set:
  Basis Set: CC-PVTZ
  Basis Set:
  @DF-RHF Final Energy:  -270.11469857194129
    Total Energy =                       -270.1146985719412896
  Basis Set: CC-PVTZ
  Basis Set:
  Basis Set: CC-PVTZ
  Basis Set:
  @DF-RHF Final Energy:  -270.11532169875215
    Total Energy =                       -270.1153216987522683
  Basis Set: CC-PVTZ
  Basis Set:
  Basis Set: CC-PVTZ
  Basis Set:
  @DF-RHF Final Energy:  -270.11532960159639
    Total Energy =                       -270.1153296015961587
  Basis Set: CC-PVTZ
  Basis Set:
  Basis Set: CC-PVTZ
  Basis Set:
  @DF-RHF Final Energy:  -270.11533742599147
    Total Energy =                       -270.1153374259915836
  Basis Set: CC-PVTZ
  Basis Set:
  Basis Set: CC-PVTZ
  Basis Set:
  @DF-RHF Final Energy:  -270.11533913704477
    Total Energy =                       -270.1153391370448844
  Basis Set: CC-PVTZ
  Basis Set:
  Charge       = 0
  Multiplicity = 1
  Basis Set: CC-PVTZ
  Basis Set:

    Orbital Energies (a.u.)
    -----------------------

    Doubly Occupied:

       1A    -20.552205     2A    -11.321274     3A    -11.234786
       4A    -11.234132     5A    -11.227405     6A    -11.218514
       7A     -1.406938     8A     -1.096810     9A     -1.018533
      10A     -0.910704    11A     -0.811452    12A     -0.794682
      13A     -0.681173    14A     -0.644041    15A     -0.634000
      16A     -0.609785    17A     -0.574494    18A     -0.563101
      19A     -0.528822    20A     -0.515241    21A     -0.488497
      22A     -0.483770    23A     -0.472177    24A     -0.411675

  @DF-RHF Final Energy:  -270.11533918357543

   => Energetics <=

    Nuclear Repulsion Energy =            230.9492223256267778
    One-Electron Energy =                -823.2607007044560987
    Two-Electron Energy =                 322.1961391952538065
    DFT Exchange-Correlation Energy =       0.0000000000000000
    Empirical Dispersion Energy =           0.0000000000000000
    PCM Polarization Energy =               0.0000000000000000
    EFP Energy =                            0.0000000000000000
    Total Energy =                       -270.1153391835754860
    Molecular point group: c1
  Basis Set: CC-PVTZ
  Basis Set:

  -Total Gradient:
     Atom            X                  Y                   Z
    ------   -----------------  -----------------  -----------------
       1        0.000001814981     0.000001644866    -0.000005518178
       2       -0.000002133463    -0.000003848671     0.000009536936
       3        0.000005374460     0.000001117657    -0.000030333928
       4       -0.000002737075    -0.000000306072     0.000006164746
       5        0.001402856111     0.003018740438     0.004034678215
       6       -0.000000472438     0.000000258612     0.000001630386
       7        0.000004050831    -0.000001490187     0.000009212685
       8       -0.001893294735    -0.003709404264    -0.003124559687
       9       -0.000870341494    -0.001936247393    -0.002870021826
      10        0.000002411840     0.000000457123     0.000000831098
      11       -0.000005979295    -0.000000263494    -0.000000398595
      12        0.001360409902     0.002629845794     0.001969732491
      13       -0.000001043175     0.000001290210    -0.000001519074
      14        0.000000461700     0.000000001806     0.000001027039
      15       -0.000000370745    -0.000001840101    -0.000000761440
      16       -0.000001007409     0.000000043676     0.000000299132

  **** Optimization is complete! (in 8 steps) ****
    Final optimized geometry and variables:
    Molecular point group: c1

    Geometry (in Angstrom), charge = 0, multiplicity = 1:

    H            1.400258841062    -1.843993465829     0.324303016256
    C            1.519374733130    -0.838913187912     0.750013945520
    C            0.303536606259     0.041156912443     0.659362540210
    O            2.551004542521    -0.518115374807     1.230084412132
    C           -0.159329149536     0.230460051303    -0.787372093661
    H            0.530815796869     0.990728727312     1.125251212544
    H           -0.486789395798    -0.437427849216     1.233883346485
    C           -1.480931831843     1.005632688986    -0.908275838778
    H            0.616986114698     0.727280294253    -1.358652491656
    H           -0.278122919636    -0.744372713572    -1.254212836168
    C           -2.715326631603     0.112004777644    -0.958844298531
    H           -1.446419284090     1.643627089851    -1.784080079552
    H           -1.568831729848     1.687337807907    -0.067127467250
    H           -2.698446636549    -0.526256987583    -1.835502351538
    H           -3.623383093670     0.702190797514    -0.995340007505
    H           -2.776218500303    -0.529065606984    -0.085474742461

  Mulliken Charges: (a.u.)
   Center  Symbol    Alpha    Beta     Spin     Total
       1     H     0.46495  0.46495  0.00000  0.07010
       2     C     2.90887  2.90887  0.00000  0.18227
       3     C     3.07784  3.07784  0.00000 -0.15567
       4     O     4.16362  4.16362  0.00000 -0.32724
       5     C     3.10950  3.10950  0.00000 -0.21901
       6     H     0.44196  0.44196  0.00000  0.11607
       7     H     0.45045  0.45045  0.00000  0.09909
       8     C     3.09062  3.09062  0.00000 -0.18124
       9     H     0.43835  0.43835  0.00000  0.12330
      10     H     0.45344  0.45344  0.00000  0.09312
      11     C     3.14713  3.14713  0.00000 -0.29426
      12     H     0.44481  0.44481  0.00000  0.11037
      13     H     0.45316  0.45316  0.00000  0.09368
      14     H     0.45363  0.45363  0.00000  0.09274
      15     H     0.44614  0.44614  0.00000  0.10773
      16     H     0.45553  0.45553  0.00000  0.08893

   Total alpha = 24.00000, Total beta = 24.00000, Total charge = -0.00000
