                              Psi4 1.0.54 Driver

  ==> Input File <==

--------------------------------------------------------------------------
set {
	reference rhf
	basis cc-pvtz
}

set_num_threads( 4 )
memory 2 gb

molecule MOL {
0 1

H	 1.246132	 -1.648126	 -2.670704
C	 1.271321	 -0.887488	 -1.897671
C	 0.045081	 -1.006103	 -1.002813
H	 1.296071	 0.085366	 -2.372922
H	 2.195173	 -1.012192	 -1.346600
N	 0.000297	 0.000045	 0.046090
H	 -0.833590	 -0.892564	 -1.622622
H	 -0.010804	 -2.013462	 -0.580870
C	 -1.359159	 0.315706	 0.454404
C	 0.854443	 -0.335702	 1.174023
C	 -2.416729	 -0.286720	 -0.460525
H	 -1.478729	 1.390261	 0.442008
H	 -1.539692	 0.003361	 1.486761
C	 1.363104	 0.885937	 1.927215
H	 1.711293	 -0.881135	 0.803388
H	 0.341988	 -1.010996	 1.864877
H	 -2.285276	 0.073129	 -1.473515
H	 -2.371743	 -1.368476	 -0.483209
H	 -3.408658	 -0.007405	 -0.121593
H	 1.931327	 1.525930	 1.263559
H	 0.556708	 1.474291	 2.347146
H	 2.006165	 0.580634	 2.745796

	symmetry c1
}
set optking {
	frozen_dihedral = ("
		3 6 9 11
	")
}

ee,wfn = optimize('scf', return_wfn=True)
oeprop( wfn, 'DIPOLE', 'QUADRUPOLE', 'MULLIKEN_CHARGES')
f=open( 'psi4out.xyz', 'w' )
f.write( "22  " )
f.write( str(ee) + "\n" )
f.write( MOL.save_string_xyz() )
f.close()
--------------------------------------------------------------------------

    Molecular point group: c1
  Charge       = 0
  Multiplicity = 1
  Basis Set: CC-PVTZ
  Basis Set:
  @DF-RHF Final Energy:  -290.45732902814802
    Total Energy =                       -290.4573290281479103
    Molecular point group: c1
  Basis Set: CC-PVTZ
  Basis Set:
  Basis Set: CC-PVTZ
  Basis Set:
  @DF-RHF Final Energy:  -290.27115063434661
    Total Energy =                       -290.2711506343464407
  Basis Set: CC-PVTZ
  Basis Set:
  Basis Set: CC-PVTZ
  Basis Set:
  @DF-RHF Final Energy:  -290.39274733431125
    Total Energy =                       -290.3927473343113093
  Basis Set: CC-PVTZ
  Basis Set:
  Basis Set: CC-PVTZ
  Basis Set:
  @DF-RHF Final Energy:  -290.45786343616294
    Total Energy =                       -290.4578634361629952
  Basis Set: CC-PVTZ
  Basis Set:
  @DF-RHF Final Energy:  -290.32373059579925
    Total Energy =                       -290.3237305957993044
  @DF-RHF Final Energy:  -290.44811045683412
    Total Energy =                       -290.4481104568341721
  @DF-RHF Final Energy:  -290.46703656585646
    Total Energy =                       -290.4670365658564037
  @DF-RHF Final Energy:  -290.46761144097422
    Total Energy =                       -290.4676114409743377
  Basis Set: CC-PVTZ
  Basis Set:
  @DF-RHF Final Energy:  -290.46785473573294
    Total Energy =                       -290.4678547357329990
  Basis Set: CC-PVTZ
  Basis Set:
  Basis Set: CC-PVTZ
  Basis Set:
  @DF-RHF Final Energy:  -290.46785871361561
    Total Energy =                       -290.4678587136153851
  Basis Set: CC-PVTZ
  Basis Set:
  Basis Set: CC-PVTZ
  Basis Set:
  @DF-RHF Final Energy:  -290.46786147878481
    Total Energy =                       -290.4678614787848119
  Basis Set: CC-PVTZ
  Basis Set:
  Charge       = 0
  Multiplicity = 1
  Basis Set: CC-PVTZ
  Basis Set:

    Orbital Energies (a.u.)
    -----------------------

    Doubly Occupied:

       1A    -15.527924     2A    -11.240081     3A    -11.237456
       4A    -11.236870     5A    -11.210881     6A    -11.202407
       7A    -11.201620     8A     -1.220226     9A     -1.025540
      10A     -1.023716    11A     -0.957436    12A     -0.858172
      13A     -0.844036    14A     -0.758824    15A     -0.653810
      16A     -0.643180    17A     -0.625822    18A     -0.593999
      19A     -0.590349    20A     -0.546935    21A     -0.534690
      22A     -0.519475    23A     -0.514308    24A     -0.502330
      25A     -0.492395    26A     -0.487836    27A     -0.467687
      28A     -0.460290    29A     -0.330273

  @DF-RHF Final Energy:  -290.46786197327202

   => Energetics <=

    Nuclear Repulsion Energy =            337.7012118388016120
    One-Electron Energy =               -1061.3210041913794157
    Two-Electron Energy =                 433.1519303793053837
    DFT Exchange-Correlation Energy =       0.0000000000000000
    Empirical Dispersion Energy =           0.0000000000000000
    PCM Polarization Energy =               0.0000000000000000
    EFP Energy =                            0.0000000000000000
    Total Energy =                       -290.4678619732724769
    Molecular point group: c1
  Basis Set: CC-PVTZ
  Basis Set:

  -Total Gradient:
     Atom            X                  Y                   Z
    ------   -----------------  -----------------  -----------------
       1        0.000008785893     0.000000086236     0.000010673144
       2        0.000006726431    -0.000008554081    -0.000006639479
       3        0.000595781342     0.002735983801    -0.000865921913
       4       -0.000001710195    -0.000000689450     0.000000249667
       5       -0.000008996884     0.000008446053     0.000000962899
       6       -0.001384810777    -0.005257963504     0.001600117552
       7        0.000001230538     0.000006039603     0.000015014035
       8        0.000000079073     0.000000965600     0.000000320366
       9        0.001750474036     0.005011912242    -0.001323295258
      10        0.000018350307    -0.000003563508    -0.000029099279
      11       -0.000996764749    -0.002481849499     0.000602477390
      12        0.000006080369    -0.000019031378     0.000008920354
      13        0.000012379444     0.000014522485    -0.000016393091
      14       -0.000006763961     0.000008630531     0.000008777351
      15       -0.000004122262    -0.000002440362     0.000005394532
      16       -0.000003149950     0.000002832057    -0.000000168761
      17       -0.000002765517    -0.000018217552    -0.000003817897
      18       -0.000004308356     0.000004107601     0.000001133183
      19        0.000015880919     0.000003768518    -0.000014197651
      20       -0.000005620896    -0.000013123974     0.000002019977
      21        0.000004442257     0.000004983436     0.000003115021
      22       -0.000001197061     0.000003155144     0.000000357858

  **** Optimization is complete! (in 12 steps) ****
    Final optimized geometry and variables:
    Molecular point group: c1

    Geometry (in Angstrom), charge = 0, multiplicity = 1:

    H           -0.917994522641     0.037029699598    -3.262355042636
    C           -0.184945003359     0.125354108706    -2.467159981604
    C           -0.852005614778    -0.110854907071    -1.115850634603
    H            0.244427710751     1.119220119880    -2.503534390994
    H            0.603954523496    -0.586750532570    -2.672734184923
    N            0.062816568884     0.044317007803    -0.002363660678
    H           -1.647362763464     0.609034707153    -1.023264695844
    H           -1.329252022414    -1.095799579812    -1.117308976211
    C           -0.432649147000     0.558685807784     1.272301147256
    C            0.975823560738    -1.065612661744     0.168027300197
    C           -1.845256790195     1.127522850532     1.300821918316
    H            0.248012522859     1.323823845727     1.630893399396
    H           -0.404158024009    -0.239541754772     2.015134810884
    C            2.285683083740    -0.678177037076     0.842958844852
    H            1.207394602746    -1.473906909592    -0.805289878610
    H            0.503679637958    -1.874183997976     0.735870462050
    H           -1.961094632417     1.982796051639     0.646011705139
    H           -2.590876483103     0.388883463539     1.035026838041
    H           -2.056170698581     1.461167271306     2.310275576722
    H            2.783086543376     0.103795182496     0.281575873596
    H            2.133223457938    -0.321085990469     1.853836472077
    H            2.945562985596    -1.537269530601     0.895622785211

  Mulliken Charges: (a.u.)
   Center  Symbol    Alpha    Beta     Spin     Total
       1     H     0.45375  0.45375  0.00000  0.09249
       2     C     3.14042  3.14042  0.00000 -0.28083
       3     C     3.04445  3.04445  0.00000 -0.08889
       4     H     0.45327  0.45327  0.00000  0.09346
       5     H     0.45555  0.45555  0.00000  0.08891
       6     N     3.61927  3.61927  0.00000 -0.23855
       7     H     0.44640  0.44640  0.00000  0.10720
       8     H     0.46699  0.46699  0.00000  0.06601
       9     C     3.02400  3.02400  0.00000 -0.04799
      10     C     3.04428  3.04428  0.00000 -0.08856
      11     C     3.16381  3.16381  0.00000 -0.32762
      12     H     0.45590  0.45590  0.00000  0.08821
      13     H     0.46994  0.46994  0.00000  0.06012
      14     C     3.14461  3.14461  0.00000 -0.28922
      15     H     0.44975  0.44975  0.00000  0.10050
      16     H     0.46508  0.46508  0.00000  0.06984
      17     H     0.45137  0.45137  0.00000  0.09725
      18     H     0.45028  0.45028  0.00000  0.09943
      19     H     0.44436  0.44436  0.00000  0.11128
      20     H     0.45172  0.45172  0.00000  0.09657
      21     H     0.45344  0.45344  0.00000  0.09312
      22     H     0.45136  0.45136  0.00000  0.09727

   Total alpha = 29.00000, Total beta = 29.00000, Total charge = -0.00000

*** Psi4 exiting successfully. Buy a developer a beer!
