  ==> Input File <==

--------------------------------------------------------------------------
set {
	reference rhf
	basis 6-31G*
}

set_num_threads( 1 )
memory 2 gb

molecule MOL {
0 1

H	 -3.417878	 0.329358	 -0.381068
C	 -3.032894	 0.674307	 -1.348756
C	 -2.084600	 1.844010	 -1.277020
O	 -3.368772	 0.133795	 -2.352142
C	 -0.930889	 1.606897	 -0.292650
H	 -1.719715	 2.050382	 -2.276509
H	 -2.664151	 2.705921	 -0.948562
C	 0.029978	 0.499864	 -0.733684
H	 -0.381433	 2.536354	 -0.176493
H	 -1.336965	 1.370728	 0.689736
C	 1.180775	 0.282413	 0.250794
H	 0.432338	 0.747461	 -1.713811
H	 -0.515296	 -0.433610	 -0.859553
C	 2.148627	 -0.814315	 -0.201312
H	 1.715135	 1.220169	 0.380430
H	 0.775219	 0.023061	 1.227853
C	 3.580890	 -0.659131	 0.322722
H	 2.166869	 -0.852443	 -1.289387
H	 1.762857	 -1.776509	 0.128956
C	 4.324889	 0.564933	 -0.213704
H	 4.142010	 -1.551473	 0.056605
H	 3.564836	 -0.624694	 1.410140
H	 4.342616	 0.565491	 -1.300421
H	 3.866655	 1.493402	 0.110242
H	 5.353900	 0.572371	 0.132816

	symmetry c1
}
set optking {
	frozen_dihedral = ("
		6 3 5 8,
		6 3 2 4,
		3 5 8 12,
		12 8 11 14,
		20 17 14 18
	")
}

ee = energy('scf')
oeprop('DIPOLE', 'QUADRUPOLE', 'MULLIKEN_CHARGES')
f=open( 'psi4out.xyz', 'w' )
f.write( "25  " )
f.write( str(ee) + "\n" )
f.write( MOL.save_string_xyz() )
f.close()
--------------------------------------------------------------------------

    Molecular point group: c1

    Geometry (in Angstrom), charge = 0, multiplicity = 1:

       Center              X                  Y                   Z               Mass
    ------------   -----------------  -----------------  -----------------  -----------------
           H         -3.628201100248    -0.127785570055     0.277628623542     1.007825032070
           C         -3.243217100248     0.217163429945    -0.690059376458    12.000000000000
           C         -2.294923100248     1.386866429945    -0.618323376458    12.000000000000
           O         -3.579095100248    -0.323348570055    -1.693445376458    15.994914619560
           C         -1.141212100248     1.149753429945     0.366046623542    12.000000000000
           H         -1.930038100248     1.593238429945    -1.617812376458     1.007825032070
           H         -2.874474100248     2.248777429945    -0.289865376458     1.007825032070
           C         -0.180345100248     0.042720429945    -0.074987376458    12.000000000000
           H         -0.591756100248     2.079210429945     0.482203623542     1.007825032070
           H         -1.547288100248     0.913584429945     1.348432623542     1.007825032070
           C          0.970451899752    -0.174730570055     0.909490623542    12.000000000000
           H          0.222014899752     0.290317429945    -1.055114376458     1.007825032070
           H         -0.725619100248    -0.890753570055    -0.200856376458     1.007825032070
           C          1.938303899752    -1.271458570055     0.457384623542    12.000000000000
           H          1.504811899752     0.763025429945     1.039126623542     1.007825032070
           H          0.564895899752    -0.434082570055     1.886549623542     1.007825032070
           C          3.370566899752    -1.116274570055     0.981418623542    12.000000000000
           H          1.956545899752    -1.309586570055    -0.630690376458     1.007825032070
           H          1.552533899752    -2.233652570055     0.787652623542     1.007825032070
           C          4.114565899752     0.107789429945     0.444992623542    12.000000000000
           H          3.931686899752    -2.008616570055     0.715301623542     1.007825032070
           H          3.354512899752    -1.081837570055     2.068836623542     1.007825032070
           H          4.132292899752     0.108347429945    -0.641724376458     1.007825032070
           H          3.656331899752     1.036258429945     0.768938623542     1.007825032070
           H          5.143576899752     0.115227429945     0.791512623542     1.007825032070

  Charge       = 0
  Multiplicity = 1
  Basis Set: 6-31G*
  Basis Set:

    Orbital Energies (a.u.)
    -----------------------

    Doubly Occupied:

       1A    -20.561876     2A    -11.326040     3A    -11.235073
       4A    -11.234458     5A    -11.223908     6A    -11.218997
       7A    -11.218198     8A    -11.216363     9A    -11.211010
      10A     -1.401869    11A     -1.103985    12A     -1.069752
      13A     -1.013086    14A     -0.942746    15A     -0.875410
      16A     -0.820426    17A     -0.788105    18A     -0.781288
      19A     -0.664005    20A     -0.662224    21A     -0.631201
      22A     -0.627359    23A     -0.604356    24A     -0.593145
      25A     -0.574792    26A     -0.549245    27A     -0.537373
      28A     -0.523022    29A     -0.509139    30A     -0.495606
      31A     -0.491126    32A     -0.480866    33A     -0.463394
      34A     -0.457350    35A     -0.440768    36A     -0.409441

  @DF-RHF Final Energy:  -387.11925851947041

   => Energetics <=

    Nuclear Repulsion Energy =            440.7210237360856695
    One-Electron Energy =               -1397.7665734390002399
    Two-Electron Energy =                 569.9262911834441638
    DFT Exchange-Correlation Energy =       0.0000000000000000
    Empirical Dispersion Energy =           0.0000000000000000
    PCM Polarization Energy =               0.0000000000000000
    EFP Energy =                            0.0000000000000000
    Total Energy =                       -387.1192585194703497

  Mulliken Charges: (a.u.)
   Center  Symbol    Alpha    Beta     Spin     Total
       1     H     0.43262  0.43262  0.00000  0.13475
       2     C     2.83080  2.83080  0.00000  0.33840
       3     C     3.20813  3.20813  0.00000 -0.41625
       4     O     4.23779  4.23779  0.00000 -0.47558
       5     C     3.16678  3.16678  0.00000 -0.33355
       6     H     0.39977  0.39977  0.00000  0.20046
       7     H     0.40674  0.40674  0.00000  0.18651
       8     C     3.15602  3.15602  0.00000 -0.31205
       9     H     0.41287  0.41287  0.00000  0.17427
      10     H     0.41968  0.41968  0.00000  0.16064
      11     C     3.15484  3.15484  0.00000 -0.30968
      12     H     0.41780  0.41780  0.00000  0.16440
      13     H     0.41817  0.41817  0.00000  0.16366
      14     C     3.15452  3.15452  0.00000 -0.30903
      15     H     0.42092  0.42092  0.00000  0.15816
      16     H     0.42191  0.42191  0.00000  0.15619
      17     C     3.15351  3.15351  0.00000 -0.30702
      18     H     0.42188  0.42188  0.00000  0.15624
      19     H     0.41968  0.41968  0.00000  0.16065
      20     C     3.24111  3.24111  0.00000 -0.48222
      21     H     0.42009  0.42009  0.00000  0.15983
      22     H     0.42330  0.42330  0.00000  0.15340
      23     H     0.42162  0.42162  0.00000  0.15676
      24     H     0.42118  0.42118  0.00000  0.15764
      25     H     0.41828  0.41828  0.00000  0.16344

   Total alpha = 36.00000, Total beta = 36.00000, Total charge =  0.00000
