  ==> Input File <==

--------------------------------------------------------------------------
set {
	reference rhf
	basis 6-31G*
}

set_num_threads( 4 )
memory 2 gb

molecule MOL {
0 1

H	 -0.000158	 1.970498	 0.756846
O	 -0.000074	 1.880206	 -0.189275
C	 -0.000015	 0.544847	 -0.545111
C	 1.278853	 0.210530	 -1.305844
C	 -1.278737	 0.210477	 -1.306075
H	 -0.000082	 -0.038730	 0.363482
F	 2.323317	 0.453454	 -0.543199
F	 1.326182	 -1.053063	 -1.671152
F	 1.389224	 0.958575	 -2.392050
F	 -2.323352	 0.453609	 -0.543708
F	 -1.326062	 -1.053195	 -1.671139
F	 -1.388821	 0.958305	 -2.392450

	symmetry c1
}
set optking {
	frozen_dihedral = ("
		6 3 2 1
	")
}

ee = optimize('scf')
oeprop('DIPOLE', 'QUADRUPOLE', 'MULLIKEN_CHARGES')
f=open( 'psi4out.xyz', 'w' )
f.write( "12  " )
f.write( str(ee) + "\n" )
f.write( MOL.save_string_xyz() )
f.close()
--------------------------------------------------------------------------

    Molecular point group: c1
  Charge       = 0
  Multiplicity = 1
  Basis Set: 6-31G*
  Basis Set:
  @DF-RHF Final Energy:  -786.27354959824402
    Total Energy =                       -786.2735495982442444
    Molecular point group: c1
  Basis Set: 6-31G*
  Basis Set:
  Basis Set: 6-31G*
  Basis Set:
  @DF-RHF Final Energy:  -786.27516589445906
    Total Energy =                       -786.2751658944591782
  Basis Set: 6-31G*
  Basis Set:
  Basis Set: 6-31G*
  Basis Set:
  @DF-RHF Final Energy:  -786.27546025055585
    Total Energy =                       -786.2754602505556250
  Basis Set: 6-31G*
  Basis Set:
  Basis Set: 6-31G*
  Basis Set:
  @DF-RHF Final Energy:  -786.27548557090711
    Total Energy =                       -786.2754855709075628
  Basis Set: 6-31G*
  Basis Set:
  Basis Set: 6-31G*
  Basis Set:
  @DF-RHF Final Energy:  -786.27548950237656
    Total Energy =                       -786.2754895023767858
  Basis Set: 6-31G*
  Basis Set:
  Charge       = 0
  Multiplicity = 1
  Basis Set: 6-31G*
  Basis Set:

    Orbital Energies (a.u.)
    -----------------------

    Doubly Occupied:

       1A    -26.354684     2A    -26.354679     3A    -26.353381
       4A    -26.353381     5A    -26.351537     6A    -26.351533
       7A    -20.616764     8A    -11.519680     9A    -11.519664
      10A    -11.349591    11A     -1.757260    12A     -1.751541
      13A     -1.653353    14A     -1.651374    15A     -1.649089
      16A     -1.648309    17A     -1.434328    18A     -1.101634
      19A     -0.990515    20A     -0.931027    21A     -0.857670
      22A     -0.854498    23A     -0.848982    24A     -0.836501
      25A     -0.825818    26A     -0.777903    27A     -0.766993
      28A     -0.724014    29A     -0.717032    30A     -0.716264
      31A     -0.710273    32A     -0.676963    33A     -0.672179
      34A     -0.665253    35A     -0.663465    36A     -0.654731
      37A     -0.649352    38A     -0.618557    39A     -0.616405
      40A     -0.558841    41A     -0.504289

  @DF-RHF Final Energy:  -786.27549002150363

   => Energetics <=

    Nuclear Repulsion Energy =            669.6049275776765626
    One-Electron Energy =               -2426.5422189369037369
    Two-Electron Energy =                 970.6618013377237730
    DFT Exchange-Correlation Energy =       0.0000000000000000
    Empirical Dispersion Energy =           0.0000000000000000
    PCM Polarization Energy =               0.0000000000000000
    EFP Energy =                            0.0000000000000000
    Total Energy =                       -786.2754900215034013
    Molecular point group: c1
  Basis Set: 6-31G*
  Basis Set:

  -Total Gradient:
     Atom            X                  Y                   Z
    ------   -----------------  -----------------  -----------------
       1        0.000000000607     0.000021680373     0.000012457670
       2        0.000000036951    -0.000025738107     0.000023929156
       3        0.000000027486     0.000057502142     0.000002357255
       4       -0.000020492604     0.000094072602    -0.000103109207
       5        0.000020419438     0.000094105933    -0.000103096329
       6        0.000000017125     0.000015543871    -0.000013785764
       7        0.000022642492    -0.000012837385     0.000038277604
       8       -0.000022891890    -0.000087230905    -0.000006181116
       9       -0.000013980342    -0.000028466112     0.000058548199
      10       -0.000022644141    -0.000012904684     0.000038269024
      11        0.000022847705    -0.000087180109    -0.000006215419
      12        0.000014017160    -0.000028547619     0.000058548931

  **** Optimization is complete! (in 6 steps) ****
    Final optimized geometry and variables:
    Molecular point group: c1

    Geometry (in Angstrom), charge = 0, multiplicity = 1:

    H           -0.000204368600     1.635419650986     2.014438622907
    O           -0.000113220543     1.517891761637     1.075961332279
    C           -0.000072526718     0.174019367004     0.739880998273
    C            1.278839020672    -0.121368562160    -0.033741912939
    C           -1.278831011207    -0.121384606318    -0.033988939859
    H           -0.000151761518    -0.478580186226     1.604219669232
    F            2.316933739623     0.143227252374     0.738166656249
    F            1.346480728424    -1.394577735692    -0.375527256962
    F            1.382431180451     0.603442619333    -1.123339040865
    F           -2.317078252519     0.143197905804     0.737718962240
    F           -1.346390933597    -1.394594493321    -0.375787769573
    F           -1.382221497949     0.603425266719    -1.123606113716

  Mulliken Charges: (a.u.)
   Center  Symbol    Alpha    Beta     Spin     Total
       1     H     0.26416  0.26416  0.00000  0.47169
       2     O     4.36171  4.36171  0.00000 -0.72342
       3     C     3.05785  3.05785  0.00000 -0.11571
       4     C     2.43511  2.43511  0.00000  1.12979
       5     C     2.43511  2.43511  0.00000  1.12979
       6     H     0.38664  0.38664  0.00000  0.22671
       7     F     4.68133  4.68133  0.00000 -0.36265
       8     F     4.67771  4.67771  0.00000 -0.35542
       9     F     4.67068  4.67068  0.00000 -0.34136
      10     F     4.68133  4.68133  0.00000 -0.36265
      11     F     4.67771  4.67771  0.00000 -0.35542
      12     F     4.67068  4.67068  0.00000 -0.34136

   Total alpha = 41.00000, Total beta = 41.00000, Total charge = -0.00000
