                              Psi4 1.0.54 Driver

  ==> Input File <==

--------------------------------------------------------------------------
set {
	reference rhf
	basis cc-pvtz
}

set_num_threads( 4 )
memory 2 gb

molecule MOL {
0 1

H	 -2.644180	 -0.653737	 1.272255
C	 -2.092774	 -0.380414	 0.391915
O	 -0.808934	 -0.154049	 0.752536
F	 -2.163230	 -1.351640	 -0.507133
F	 -2.627232	 0.691260	 -0.169301
C	 0.085006	 0.250800	 -0.215074
C	 1.370439	 -0.548013	 -0.012993
Cl	 0.421658	 1.987697	 -0.091007
H	 -0.272219	 0.063284	 -1.212508
F	 1.846663	 -0.352975	 1.190417
F	 2.269383	 -0.135746	 -0.875112
F	 1.190601	 -1.828101	 -0.189872

	symmetry c1
}
set optking {
	frozen_dihedral = ("
		10 7 6 9
	")
}

ee,wfn = optimize('scf', return_wfn=True)
oeprop( wfn, 'DIPOLE', 'QUADRUPOLE', 'MULLIKEN_CHARGES')
f=open( 'psi4out.xyz', 'w' )
f.write( "12  " )
f.write( str(ee) + "\n" )
f.write( MOL.save_string_xyz() )
f.close()
--------------------------------------------------------------------------

    Molecular point group: c1
  Charge       = 0
  Multiplicity = 1
  Basis Set: CC-PVTZ
  Basis Set:
  @DF-RHF Final Energy: -1146.61954641603461
    Total Energy =                      -1146.6195464160355186
    Molecular point group: c1
  Basis Set: CC-PVTZ
  Basis Set:
  Basis Set: CC-PVTZ
  Basis Set:
  @DF-RHF Final Energy: -1146.62018255437624
    Total Energy =                      -1146.6201825543766972
  Basis Set: CC-PVTZ
  Basis Set:
  Basis Set: CC-PVTZ
  Basis Set:
  @DF-RHF Final Energy: -1146.62043092530507
    Total Energy =                      -1146.6204309253048450
  Basis Set: CC-PVTZ
  Basis Set:
  Basis Set: CC-PVTZ
  Basis Set:
  @DF-RHF Final Energy: -1146.62044242355364
    Total Energy =                      -1146.6204424235529586
  Basis Set: CC-PVTZ
  Basis Set:
  Charge       = 0
  Multiplicity = 1
  Basis Set: CC-PVTZ
  Basis Set:

    Orbital Energies (a.u.)
    -----------------------

    Doubly Occupied:

       1A   -104.856506     2A    -26.355043     3A    -26.353800
       4A    -26.353257     5A    -26.343374     6A    -26.343340
       7A    -20.641337     8A    -11.520155     9A    -11.484081
      10A    -11.401018    11A    -10.582038    12A     -8.048836
      13A     -8.046849    14A     -8.046773    15A     -1.767961
      16A     -1.724945    17A     -1.663070    18A     -1.661213
      19A     -1.644964    20A     -1.487542    21A     -1.178351
      22A     -1.053265    23A     -0.990960    24A     -0.924671
      25A     -0.864995    26A     -0.858734    27A     -0.852234
      28A     -0.829689    29A     -0.818301    30A     -0.793991
      31A     -0.733630    32A     -0.733142    33A     -0.712746
      34A     -0.708458    35A     -0.684910    36A     -0.681577
      37A     -0.665388    38A     -0.664116    39A     -0.649585
      40A     -0.638919    41A     -0.598968    42A     -0.582014
      43A     -0.525613    44A     -0.478242    45A     -0.469853

  @DF-RHF Final Energy: -1146.62044396789611

   => Energetics <=

    Nuclear Repulsion Energy =            738.3803631454077276
    One-Electron Energy =               -3059.9647044264393116
    Two-Electron Energy =                1174.9638973131350212
    DFT Exchange-Correlation Energy =       0.0000000000000000
    Empirical Dispersion Energy =           0.0000000000000000
    PCM Polarization Energy =               0.0000000000000000
    EFP Energy =                            0.0000000000000000
    Total Energy =                      -1146.6204439678967901
    Molecular point group: c1
  Basis Set: CC-PVTZ
  Basis Set:

  -Total Gradient:
     Atom            X                  Y                   Z
    ------   -----------------  -----------------  -----------------
       1        0.000004606571     0.000003958188     0.000003097545
       2        0.000016546766     0.000014725523     0.000007446834
       3       -0.000017970914     0.000010510275     0.000038363895
       4        0.000006646413    -0.000027086293    -0.000017047687
       5       -0.000016560565     0.000007369939     0.000003535002
       6        0.000284407084     0.000305770900    -0.000151842188
       7        0.000279788225     0.000162700385     0.000046559429
       8       -0.000022742374    -0.000109356014     0.000003897595
       9       -0.000145762378    -0.000201032834     0.000083536772
      10       -0.000238401484    -0.000160801258     0.000106085076
      11       -0.000185952489    -0.000026588572    -0.000063558592
      12        0.000035395175     0.000019829909    -0.000060073687

  **** Optimization is complete! (in 5 steps) ****
    Final optimized geometry and variables:
    Molecular point group: c1

    Geometry (in Angstrom), charge = 0, multiplicity = 1:

    H           -2.669534343914    -0.610058988591     1.238897949380
    C           -2.101719197061    -0.353376178464     0.363945017184
    O           -0.821116694042    -0.137045248012     0.741214915884
    F           -2.169550092717    -1.334439614118    -0.524708648646
    F           -2.615550967943     0.717412659949    -0.218003416426
    C            0.091761868003     0.247117812310    -0.217737569919
    C            1.365159534206    -0.562356837498     0.015740732465
    CL           0.442456283587     1.981687112427    -0.110433553045
    H           -0.252817220030     0.048174035701    -1.217439938298
    F            1.854394268129    -0.379769187969     1.211306225146
    F            2.278238232201    -0.245434445374    -0.866492697924
    F            1.091678914663    -1.837798444449    -0.126300185947

  Mulliken Charges: (a.u.)
   Center  Symbol    Alpha    Beta     Spin     Total
       1     H     0.45194  0.45194  0.00000  0.09612
       2     C     2.74014  2.74014  0.00000  0.51973
       3     O     4.15653  4.15653  0.00000 -0.31307
       4     F     4.61794  4.61794  0.00000 -0.23588
       5     F     4.61510  4.61510  0.00000 -0.23020
       6     C     2.93684  2.93684  0.00000  0.12633
       7     C     2.66951  2.66951  0.00000  0.66099
       8    CL     8.57397  8.57397  0.00000 -0.14794
       9     H     0.43048  0.43048  0.00000  0.13903
      10     F     4.60047  4.60047  0.00000 -0.20094
      11     F     4.60230  4.60230  0.00000 -0.20460
      12     F     4.60479  4.60479  0.00000 -0.20958

   Total alpha = 45.00000, Total beta = 45.00000, Total charge = -0.00000

*** Psi4 exiting successfully. Buy a developer a beer!
