  ==> Input File <==

--------------------------------------------------------------------------
set {
	reference rhf
	basis 6-31G*
}

set_num_threads( 4 )
memory 2 gb

molecule MOL {
0 1

H	 -3.161837	 0.500524	 -0.000234
C	 -2.367097	 -0.232926	 -0.000000
O	 -1.158440	 0.455814	 -0.000122
H	 -2.468853	 -0.861886	 -0.882833
H	 -2.468942	 -0.861421	 0.883154
C	 -0.029776	 -0.365156	 0.000148
C	 1.212217	 0.508981	 0.000007
H	 -0.036772	 -1.013236	 -0.877259
H	 -0.036869	 -1.012778	 0.877897
C	 2.370838	 -0.121706	 0.771181
H	 1.503340	 0.693246	 -1.029535
H	 0.955390	 1.472162	 0.430149
H	 2.659955	 -1.076710	 0.341295
H	 3.243116	 0.523059	 0.755182
H	 2.107872	 -0.292954	 1.811339

	symmetry c1
}
set optking {
	frozen_dihedral = ("
		11 7 6 8
	")
}

ee = optimize('scf')
oeprop('DIPOLE', 'QUADRUPOLE', 'MULLIKEN_CHARGES')
f=open( 'psi4out.xyz', 'w' )
f.write( "15  " )
f.write( str(ee) + "\n" )
f.write( MOL.save_string_xyz() )
f.close()
--------------------------------------------------------------------------

    Molecular point group: c1
  Charge       = 0
  Multiplicity = 1
  Basis Set: 6-31G*
  Basis Set:
  @DF-RHF Final Energy:  -232.13577507197158
    Total Energy =                       -232.1357750719715796
    Molecular point group: c1
  Basis Set: 6-31G*
  Basis Set:
  Basis Set: 6-31G*
  Basis Set:
  @DF-RHF Final Energy:  -232.13610808698252
    Total Energy =                       -232.1361080869825742
  Basis Set: 6-31G*
  Basis Set:
  Basis Set: 6-31G*
  Basis Set:
  @DF-RHF Final Energy:  -232.13620139184906
    Total Energy =                       -232.1362013918491130
  Basis Set: 6-31G*
  Basis Set:
  Basis Set: 6-31G*
  Basis Set:
  @DF-RHF Final Energy:  -232.13620271519201
    Total Energy =                       -232.1362027151918710
  Basis Set: 6-31G*
  Basis Set:
  Charge       = 0
  Multiplicity = 1
  Basis Set: 6-31G*
  Basis Set:

    Orbital Energies (a.u.)
    -----------------------

    Doubly Occupied:

       1A    -20.552537     2A    -11.266525     3A    -11.263405
       4A    -11.214299     5A    -11.212103     6A     -1.376832
       7A     -1.055355     8A     -0.954312     9A     -0.876877
      10A     -0.808947    11A     -0.673662    12A     -0.653389
      13A     -0.630909    14A     -0.603175    15A     -0.567175
      16A     -0.544146    17A     -0.497400    18A     -0.488084
      19A     -0.479437    20A     -0.461135    21A     -0.412688

  @DF-RHF Final Energy:  -232.13620335934593

   => Energetics <=

    Nuclear Repulsion Energy =            189.6741371671054139
    One-Electron Energy =                -690.4358967194342540
    Two-Electron Energy =                 268.6255561929827991
    DFT Exchange-Correlation Energy =       0.0000000000000000
    Empirical Dispersion Energy =           0.0000000000000000
    PCM Polarization Energy =               0.0000000000000000
    EFP Energy =                            0.0000000000000000
    Total Energy =                       -232.1362033593460410
    Molecular point group: c1
  Basis Set: 6-31G*
  Basis Set:

  -Total Gradient:
     Atom            X                  Y                   Z
    ------   -----------------  -----------------  -----------------
       1       -0.000010415365    -0.000007589154     0.000005667027
       2       -0.000039719678     0.000001841043    -0.000010663256
       3        0.000027504237    -0.000029232451    -0.000012213374
       4       -0.000009555778    -0.000002715112     0.000005251282
       5       -0.000005769542     0.000001890449    -0.000000681103
       6        0.003570303613    -0.004878230790     0.002937475050
       7       -0.003868465368     0.005456407122    -0.000697022665
       8       -0.002340751128     0.003235206810    -0.002341607839
       9        0.000014485068     0.000020654381    -0.000026337191
      10        0.000007629740     0.000003370123     0.000046757134
      11        0.002626994829    -0.003769693846     0.000086206439
      12        0.000004996287    -0.000028265895     0.000001155358
      13       -0.000016854971    -0.000003917419    -0.000006894739
      14        0.000009161684     0.000000917612     0.000002384603
      15        0.000030456368    -0.000000642876     0.000010523273

  **** Optimization is complete! (in 5 steps) ****
    Final optimized geometry and variables:
    Molecular point group: c1

    Geometry (in Angstrom), charge = 0, multiplicity = 1:

    H           -3.144878117647     0.451467235288    -0.206299848118
    C           -2.346175267016    -0.277637872468    -0.190258273531
    O           -1.141883207121     0.416604473767    -0.148856934204
    H           -2.419698432868    -0.899019252126    -1.081407401207
    H           -2.470449752921    -0.915449802051     0.683555770273
    C           -0.008021111364    -0.403484373800    -0.116258468711
    C            1.236417895556     0.481419965662    -0.137716633571
    H           -0.026018593949    -1.057895775003    -0.987087853570
    H           -0.028880050166    -1.026666419850     0.777392520711
    C            2.421203724831    -0.160603762110     0.587456912491
    H            1.527149553634     0.670057551645    -1.166521249234
    H            0.986507769315     1.431278763798     0.319736993240
    H            2.669103337956    -1.128995124926     0.160388434051
    H            3.305840922328     0.463744040266     0.516287400873
    H            2.204177446986    -0.310234213823     1.641084686899

  Mulliken Charges: (a.u.)
   Center  Symbol    Alpha    Beta     Spin     Total
       1     H     0.41234  0.41234  0.00000  0.17533
       2     C     3.07948  3.07948  0.00000 -0.15896
       3     O     4.30638  4.30638  0.00000 -0.61276
       4     H     0.43081  0.43081  0.00000  0.13839
       5     H     0.43085  0.43085  0.00000  0.13830
       6     C     2.98431  2.98431  0.00000  0.03138
       7     C     3.16258  3.16258  0.00000 -0.32516
       8     H     0.43139  0.43139  0.00000  0.13722
       9     H     0.43100  0.43100  0.00000  0.13800
      10     C     3.24739  3.24739  0.00000 -0.49478
      11     H     0.41776  0.41776  0.00000  0.16449
      12     H     0.40677  0.40677  0.00000  0.18646
      13     H     0.42239  0.42239  0.00000  0.15522
      14     H     0.41698  0.41698  0.00000  0.16605
      15     H     0.41958  0.41958  0.00000  0.16085

   Total alpha = 21.00000, Total beta = 21.00000, Total charge =  0.00000
