                              Psi4 1.0.54 Driver

  ==> Input File <==

--------------------------------------------------------------------------
set {
	reference rhf
	basis cc-pvtz
}

set_num_threads( 4 )
memory 2 gb

molecule MOL {
0 1

H	 2.903116	 -1.195082	 -0.289938
N	 3.091268	 -0.241216	 -0.065538
C	 1.860978	 0.530248	 0.016256
H	 3.689600	 0.116990	 -0.780405
C	 0.644130	 -0.381765	 -0.031064
H	 1.835721	 1.204666	 -0.833114
H	 1.808789	 1.151975	 0.911067
C	 -0.678115	 0.376691	 0.025731
H	 0.693998	 -0.977147	 -0.936845
H	 0.693309	 -1.082142	 0.800523
C	 -1.900706	 -0.535531	 -0.022488
H	 -0.725296	 1.079516	 -0.802982
H	 -0.715474	 0.974884	 0.933278
C	 -3.220513	 0.226854	 0.028039
H	 -1.865036	 -1.134397	 -0.928236
H	 -1.857948	 -1.236381	 0.806820
H	 -3.309098	 0.911849	 -0.808725
H	 -4.066838	 -0.449485	 -0.008086
H	 -3.301685	 0.809374	 0.939860

	symmetry c1
}
set optking {
	frozen_dihedral = ("
		1 2 3 6
	")
}

ee,wfn = optimize('scf', return_wfn=True)
oeprop( wfn, 'DIPOLE', 'QUADRUPOLE', 'MULLIKEN_CHARGES')
f=open( 'psi4out.xyz', 'w' )
f.write( "19  " )
f.write( str(ee) + "\n" )
f.write( MOL.save_string_xyz() )
f.close()
--------------------------------------------------------------------------

    Molecular point group: c1
  Charge       = 0
  Multiplicity = 1
  Basis Set: CC-PVTZ
  Basis Set:
  @DF-RHF Final Energy:  -251.44332075955765
    Total Energy =                       -251.4433207595576505
    Molecular point group: c1
  Basis Set: CC-PVTZ
  Basis Set:
  Basis Set: CC-PVTZ
  Basis Set:
  @DF-RHF Final Energy:  -251.44448994605335
    Total Energy =                       -251.4444899460536931
  Basis Set: CC-PVTZ
  Basis Set:
  Basis Set: CC-PVTZ
  Basis Set:
  @DF-RHF Final Energy:  -251.44467026943866
    Total Energy =                       -251.4446702694385749
  Basis Set: CC-PVTZ
  Basis Set:
  Basis Set: CC-PVTZ
  Basis Set:
  @DF-RHF Final Energy:  -251.44467592980183
    Total Energy =                       -251.4446759298018037
  Basis Set: CC-PVTZ
  Basis Set:
  Charge       = 0
  Multiplicity = 1
  Basis Set: CC-PVTZ
  Basis Set:

    Orbital Energies (a.u.)
    -----------------------

    Doubly Occupied:

       1A    -15.522433     2A    -11.237363     3A    -11.214242
       4A    -11.213622     5A    -11.212905     6A    -11.207079
       7A     -1.174818     8A     -1.076569     9A     -1.001298
      10A     -0.902055    11A     -0.817885    12A     -0.793504
      13A     -0.662751    14A     -0.647260    15A     -0.609031
      16A     -0.598976    17A     -0.565977    18A     -0.547957
      19A     -0.537384    20A     -0.497462    21A     -0.487861
      22A     -0.467917    23A     -0.464763    24A     -0.453641
      25A     -0.376527

  @DF-RHF Final Energy:  -251.44467676873344

   => Energetics <=

    Nuclear Repulsion Energy =            246.1200318186945140
    One-Electron Energy =                -826.5468583620015579
    Two-Electron Energy =                 328.9821497745733723
    DFT Exchange-Correlation Energy =       0.0000000000000000
    Empirical Dispersion Energy =           0.0000000000000000
    PCM Polarization Energy =               0.0000000000000000
    EFP Energy =                            0.0000000000000000
    Total Energy =                       -251.4446767687336433
    Molecular point group: c1
  Basis Set: CC-PVTZ
  Basis Set:

  -Total Gradient:
     Atom            X                  Y                   Z
    ------   -----------------  -----------------  -----------------
       1       -0.000168135859    -0.000356619570     0.001796032911
       2        0.000485840639     0.000710836993    -0.002000515185
       3       -0.001131594051    -0.001601247953    -0.000672002105
       4       -0.000022875527     0.000005178533    -0.000014415579
       5        0.000136825098     0.000029309703    -0.000005619367
       6        0.000774194225     0.001193792964     0.000880656489
       7       -0.000024177279     0.000002029366     0.000014483541
       8       -0.000004020109     0.000004629521     0.000000578592
       9        0.000011538185     0.000007872169     0.000005081989
      10       -0.000011832232     0.000008725564    -0.000024150054
      11       -0.000021768929     0.000020711140     0.000016406790
      12        0.000012416274    -0.000016524500     0.000000321813
      13       -0.000008997855    -0.000003517833    -0.000009979995
      14       -0.000026648960    -0.000018976970     0.000010357300
      15        0.000007584900     0.000013126443     0.000002973735
      16       -0.000004455334    -0.000003020884    -0.000000865159
      17        0.000006367992    -0.000002765778     0.000000947680
      18       -0.000010694395     0.000005775704     0.000001137540
      19        0.000000433216     0.000000685388    -0.000001430936

  **** Optimization is complete! (in 5 steps) ****
    Final optimized geometry and variables:
    Molecular point group: c1

    Geometry (in Angstrom), charge = 0, multiplicity = 1:

    H            2.951813647432    -1.192823648010    -0.361701456722
    N            3.107423964122    -0.230428945078    -0.157166157262
    C            1.860597761739     0.526222122466    -0.117378667860
    H            3.750849316975     0.130691366981    -0.824955135911
    C            0.639022426174    -0.380202764467    -0.080909619025
    H            1.785589660213     1.203040421788    -0.965135193294
    H            1.857348050248     1.153495283504     0.769499072907
    C           -0.673684666008     0.382667347104     0.064886881464
    H            0.613082038646    -0.978354995782    -0.989087703485
    H            0.747144551714    -1.076631503502     0.747138854810
    C           -1.899912666161    -0.525219944982     0.102223265315
    H           -0.775164579432     1.085940367507    -0.758349634466
    H           -0.643459280465     0.979469807372     0.972930293021
    C           -3.209371186515     0.242213890924     0.250341230932
    H           -1.932876201530    -1.121233012978    -0.805730843394
    H           -1.799969142749    -1.228576517669     0.924302148435
    H           -3.355227041254     0.930492591766    -0.575617284423
    H           -4.058815544178    -0.430744960275     0.273370570317
    H           -3.221686381977     0.821617851262     1.167520575281

  Mulliken Charges: (a.u.)
   Center  Symbol    Alpha    Beta     Spin     Total
       1     H     0.42897  0.42897  0.00000  0.14205
       2     N     3.69655  3.69655  0.00000 -0.39311
       3     C     3.01562  3.01562  0.00000 -0.03124
       4     H     0.42774  0.42774  0.00000  0.14453
       5     C     3.08974  3.08974  0.00000 -0.17948
       6     H     0.46544  0.46544  0.00000  0.06912
       7     H     0.46371  0.46371  0.00000  0.07258
       8     C     3.09295  3.09295  0.00000 -0.18590
       9     H     0.45780  0.45780  0.00000  0.08441
      10     H     0.45138  0.45138  0.00000  0.09724
      11     C     3.08348  3.08348  0.00000 -0.16696
      12     H     0.45547  0.45547  0.00000  0.08906
      13     H     0.45351  0.45351  0.00000  0.09298
      14     C     3.15004  3.15004  0.00000 -0.30008
      15     H     0.45490  0.45490  0.00000  0.09020
      16     H     0.45417  0.45417  0.00000  0.09166
      17     H     0.45531  0.45531  0.00000  0.08938
      18     H     0.44841  0.44841  0.00000  0.10318
      19     H     0.45481  0.45481  0.00000  0.09038

   Total alpha = 25.00000, Total beta = 25.00000, Total charge =  0.00000

*** Psi4 exiting successfully. Buy a developer a beer!
