  ==> Input File <==

--------------------------------------------------------------------------
set {
	reference rhf
	basis 6-31G*
}

set_num_threads( 1 )
memory 2 gb

molecule MOL {
0 1

O	 -2.821601	 1.309235	 -0.001213
C	 -2.668563	 0.129746	 -0.000350
C	 -3.801572	 -0.864014	 -0.000442
O	 -1.481751	 -0.454642	 0.000584
H	 -4.417280	 -0.689587	 -0.874708
H	 -3.443784	 -1.883046	 -0.000565
H	 -4.417179	 -0.689832	 0.873954
C	 -0.334255	 0.388708	 0.000906
C	 0.891947	 -0.504646	 0.000751
H	 -0.365390	 1.025305	 -0.873475
H	 -0.365484	 1.024911	 0.875569
C	 2.191998	 0.301789	 0.000897
H	 0.855148	 -1.151283	 -0.871571
H	 0.855132	 -1.151660	 0.872805
C	 3.441114	 -0.581407	 0.000108
H	 2.215074	 0.954890	 -0.869742
H	 2.215465	 0.953923	 0.872248
C	 3.145687	 -2.030492	 0.384483
H	 4.174392	 -0.167165	 0.688426
H	 3.898969	 -0.555205	 -0.986174
H	 2.717640	 -2.092533	 1.380947
H	 4.049829	 -2.631054	 0.375131
H	 2.440433	 -2.483588	 -0.306408

	symmetry c1
}
set optking {
	frozen_dihedral = ("
		13 9 8 10,
		2 4 8 10,
		16 12 9 13,
		1 2 4 8
	")
}

ee = energy('scf')
oeprop('DIPOLE', 'QUADRUPOLE', 'MULLIKEN_CHARGES')
f=open( 'psi4out.xyz', 'w' )
f.write( "23  " )
f.write( str(ee) + "\n" )
f.write( MOL.save_string_xyz() )
f.close()
--------------------------------------------------------------------------

    Molecular point group: c1

    Geometry (in Angstrom), charge = 0, multiplicity = 1:

       Center              X                  Y                   Z               Mass
    ------------   -----------------  -----------------  -----------------  -----------------
           O         -2.637579914809     1.569537492778    -0.045730209607    15.994914619560
           C         -2.484541914809     0.390048492778    -0.044867209607    12.000000000000
           C         -3.617550914809    -0.603711507222    -0.044959209607    12.000000000000
           O         -1.297729914809    -0.194339507222    -0.043933209607    15.994914619560
           H         -4.233258914809    -0.429284507222    -0.919225209607     1.007825032070
           H         -3.259762914809    -1.622743507222    -0.045082209607     1.007825032070
           H         -4.233157914809    -0.429529507222     0.829436790393     1.007825032070
           C         -0.150233914809     0.649010492778    -0.043611209607    12.000000000000
           C          1.075968085191    -0.244343507222    -0.043766209607    12.000000000000
           H         -0.181368914809     1.285607492778    -0.917992209607     1.007825032070
           H         -0.181462914809     1.285213492778     0.831051790393     1.007825032070
           C          2.376019085191     0.562091492778    -0.043620209607    12.000000000000
           H          1.039169085191    -0.890980507222    -0.916088209607     1.007825032070
           H          1.039153085191    -0.891357507222     0.828287790393     1.007825032070
           C          3.625135085191    -0.321104507222    -0.044409209607    12.000000000000
           H          2.399095085191     1.215192492778    -0.914259209607     1.007825032070
           H          2.399486085191     1.214225492778     0.827730790393     1.007825032070
           C          3.329708085191    -1.770189507222     0.339965790393    12.000000000000
           H          4.358413085191     0.093137492778     0.643908790393     1.007825032070
           H          4.082990085191    -0.294902507222    -1.030691209607     1.007825032070
           H          2.901661085191    -1.832230507222     1.336429790393     1.007825032070
           H          4.233850085191    -2.370751507222     0.330613790393     1.007825032070
           H          2.624454085191    -2.223285507222    -0.350925209607     1.007825032070

  Charge       = 0
  Multiplicity = 1
  Basis Set: 6-31G*
  Basis Set:

    Orbital Energies (a.u.)
    -----------------------

    Doubly Occupied:

       1A    -20.602473     2A    -20.540165     3A    -11.373727
       4A    -11.280307     5A    -11.232196     6A    -11.222972
       7A    -11.222378     8A    -11.220329     9A    -11.211781
      10A     -1.467486    11A     -1.360311    12A     -1.097311
      13A     -1.040252    14A     -0.999219    15A     -0.929969
      16A     -0.862426    17A     -0.786369    18A     -0.767327
      19A     -0.691856    20A     -0.684371    21A     -0.670748
      22A     -0.646423    23A     -0.611141    24A     -0.602823
      25A     -0.573352    26A     -0.563636    27A     -0.553200
      28A     -0.536158    29A     -0.531283    30A     -0.503644
      31A     -0.499473    32A     -0.471563    33A     -0.469686
      34A     -0.454533    35A     -0.450159    36A     -0.435002

  @DF-RHF Final Energy:  -422.96742040634348

   => Energetics <=

    Nuclear Repulsion Energy =            458.3687808218266468
    One-Electron Energy =               -1484.3403685017760836
    Two-Electron Energy =                 603.0041672736078908
    DFT Exchange-Correlation Energy =       0.0000000000000000
    Empirical Dispersion Energy =           0.0000000000000000
    PCM Polarization Energy =               0.0000000000000000
    EFP Energy =                            0.0000000000000000
    Total Energy =                       -422.9674204063414891

  Mulliken Charges: (a.u.)
   Center  Symbol    Alpha    Beta     Spin     Total
       1     O     4.28400  4.28400  0.00000 -0.56799
       2     C     2.61520  2.61520  0.00000  0.76960
       3     C     3.28769  3.28769  0.00000 -0.57537
       4     O     4.31298  4.31298  0.00000 -0.62595
       5     H     0.39756  0.39756  0.00000  0.20489
       6     H     0.39997  0.39997  0.00000  0.20007
       7     H     0.39756  0.39756  0.00000  0.20488
       8     C     2.99327  2.99327  0.00000  0.01346
       9     C     3.17255  3.17255  0.00000 -0.34510
      10     H     0.41115  0.41115  0.00000  0.17771
      11     H     0.41112  0.41112  0.00000  0.17776
      12     C     3.16331  3.16331  0.00000 -0.32661
      13     H     0.41323  0.41323  0.00000  0.17354
      14     H     0.41066  0.41066  0.00000  0.17868
      15     C     3.15358  3.15358  0.00000 -0.30716
      16     H     0.41777  0.41777  0.00000  0.16447
      17     H     0.41889  0.41889  0.00000  0.16222
      18     C     3.24758  3.24758  0.00000 -0.49516
      19     H     0.41809  0.41809  0.00000  0.16382
      20     H     0.41923  0.41923  0.00000  0.16154
      21     H     0.42018  0.42018  0.00000  0.15964
      22     H     0.41660  0.41660  0.00000  0.16680
      23     H     0.41785  0.41785  0.00000  0.16429

   Total alpha = 36.00000, Total beta = 36.00000, Total charge =  0.00000
