                              Psi4 1.0.54 Driver

  ==> Input File <==

--------------------------------------------------------------------------
set {
	reference rhf
	basis cc-pvtz
}

set_num_threads( 4 )
memory 2 gb

molecule MOL {
0 1

H	 1.048191	 -1.132137	 -4.098573
O	 1.968469	 -0.948327	 -4.064923
C	 2.182958	 0.428744	 -3.900780
C	 1.845728	 0.932990	 -2.505539
H	 3.233949	 0.589731	 -4.099478
H	 1.624337	 0.991316	 -4.646371
C	 0.365036	 0.836890	 -2.144757
H	 2.434916	 0.374226	 -1.784569
H	 2.165607	 1.970109	 -2.438755
C	 0.059766	 1.382355	 -0.750441
H	 0.047755	 -0.198826	 -2.204997
H	 -0.221007	 1.387012	 -2.879064
C	 -1.420651	 1.378938	 -0.364947
H	 0.623615	 0.815035	 -0.013928
H	 0.427457	 2.403021	 -0.691170
C	 -2.041121	 -0.006551	 -0.194127
H	 -1.531097	 1.924188	 0.568344
H	 -1.985895	 1.936898	 -1.108139
C	 -3.489218	 0.042606	 0.286507
H	 -1.448219	 -0.579079	 0.515907
H	 -2.002163	 -0.551710	 -1.132363
C	 -4.219984	 1.311773	 -0.139038
H	 -4.022855	 -0.824300	 -0.093339
H	 -3.510372	 -0.038577	 1.370031
H	 -4.244251	 1.405725	 -1.219696
H	 -5.244345	 1.313233	 0.215630
H	 -3.732090	 2.196311	 0.257073

	symmetry c1
}
set optking {
	frozen_dihedral = ("
		20 16 19 22
	")
}

ee,wfn = optimize('scf', return_wfn=True)
oeprop( wfn, 'DIPOLE', 'QUADRUPOLE', 'MULLIKEN_CHARGES')
f=open( 'psi4out.xyz', 'w' )
f.write( "27  " )
f.write( str(ee) + "\n" )
f.write( MOL.save_string_xyz() )
f.close()
--------------------------------------------------------------------------

    Molecular point group: c1
  Charge       = 0
  Multiplicity = 1
  Basis Set: CC-PVTZ
  Basis Set:
  @DF-RHF Final Energy:  -388.41863644538870
    Total Energy =                       -388.4186364453889837
    Molecular point group: c1
  Basis Set: CC-PVTZ
  Basis Set:
  Basis Set: CC-PVTZ
  Basis Set:
  @DF-RHF Final Energy:  -388.41811680272752
    Total Energy =                       -388.4181168027275817
  Basis Set: CC-PVTZ
  Basis Set:
  Basis Set: CC-PVTZ
  Basis Set:
  @DF-RHF Final Energy:  -388.42110023558536
    Total Energy =                       -388.4211002355848450
  Basis Set: CC-PVTZ
  Basis Set:
  Basis Set: CC-PVTZ
  Basis Set:
  @DF-RHF Final Energy:  -388.42126162618985
    Total Energy =                       -388.4212616261897892
  Basis Set: CC-PVTZ
  Basis Set:
  Basis Set: CC-PVTZ
  Basis Set:
  @DF-RHF Final Energy:  -388.42122413337512
    Total Energy =                       -388.4212241333747215
  Basis Set: CC-PVTZ
  Basis Set:
  Basis Set: CC-PVTZ
  Basis Set:
  @DF-RHF Final Energy:  -388.42127646830909
    Total Energy =                       -388.4212764683090882
  Basis Set: CC-PVTZ
  Basis Set:
  Basis Set: CC-PVTZ
  Basis Set:
  @DF-RHF Final Energy:  -388.42128130543426
    Total Energy =                       -388.4212813054338085
  Basis Set: CC-PVTZ
  Basis Set:
  Charge       = 0
  Multiplicity = 1
  Basis Set: CC-PVTZ
  Basis Set:

    Orbital Energies (a.u.)
    -----------------------

    Doubly Occupied:

       1A    -20.545259     2A    -11.264894     3A    -11.216595
       4A    -11.214602     5A    -11.214394     6A    -11.213136
       7A    -11.212798     8A    -11.212200     9A    -11.206928
      10A     -1.363137    11A     -1.095393    12A     -1.060333
      13A     -1.009769    14A     -0.947003    15A     -0.895292
      16A     -0.830730    17A     -0.799103    18A     -0.763846
      19A     -0.695953    20A     -0.652380    21A     -0.636716
      22A     -0.615540    23A     -0.604505    24A     -0.590750
      25A     -0.580439    26A     -0.555360    27A     -0.538125
      28A     -0.525652    29A     -0.513772    30A     -0.499666
      31A     -0.482921    32A     -0.475613    33A     -0.469421
      34A     -0.453118    35A     -0.448280    36A     -0.441963
      37A     -0.425615

  @DF-RHF Final Energy:  -388.42128151662712

   => Energetics <=

    Nuclear Repulsion Energy =            463.5872939969815434
    One-Electron Energy =               -1445.4747674852560522
    Two-Electron Energy =                 593.4661919716472767
    DFT Exchange-Correlation Energy =       0.0000000000000000
    Empirical Dispersion Energy =           0.0000000000000000
    PCM Polarization Energy =               0.0000000000000000
    EFP Energy =                            0.0000000000000000
    Total Energy =                       -388.4212815166272321
    Molecular point group: c1
  Basis Set: CC-PVTZ
  Basis Set:

  -Total Gradient:
     Atom            X                  Y                   Z
    ------   -----------------  -----------------  -----------------
       1       -0.000019344322    -0.000021637285    -0.000001069581
       2       -0.000035428167    -0.000019185718     0.000002485682
       3        0.000044067589    -0.000004537225     0.000026330701
       4        0.000009316010     0.000012395743    -0.000007135539
       5        0.000005881171     0.000024935636     0.000013655862
       6       -0.000008309232     0.000012676190    -0.000000401975
       7       -0.000014373642     0.000004482268     0.000000091113
       8        0.000020265002    -0.000007466664     0.000000819462
       9       -0.000003784054     0.000001065056    -0.000005480336
      10        0.000018340956    -0.000004593910     0.000015086211
      11       -0.000011374526    -0.000008834430    -0.000007405639
      12       -0.000011054554     0.000013879520    -0.000004374871
      13       -0.000018388774    -0.000016243097    -0.000011420045
      14        0.000001278771     0.000014601874    -0.000007616014
      15       -0.000008986724    -0.000011820196    -0.000008761614
      16       -0.000970676609    -0.005398351839    -0.002468753781
      17       -0.000015505413    -0.000029375565    -0.000044689773
      18        0.000050352048    -0.000043462507     0.000036155856
      19       -0.002040402072    -0.001754590819    -0.005237136294
      20        0.001429777632     0.005186977041     0.003540481743
      21       -0.000000662385     0.000016656437     0.000021965390
      22        0.001580616857     0.002044185736     0.004185952429
      23        0.000035048141     0.000000181463     0.000019657428
      24        0.000027422464    -0.000015842740    -0.000030866719
      25       -0.000011183887     0.000015435342    -0.000000518802
      26       -0.000010916489     0.000016856062     0.000002294696
      27       -0.000041975792    -0.000028386378    -0.000029345591

  **** Optimization is complete! (in 8 steps) ****
    Final optimized geometry and variables:
    Molecular point group: c1

    Geometry (in Angstrom), charge = 0, multiplicity = 1:

    H            1.483228030063    -1.563032629524    -2.664168197022
    O            2.411893477397    -1.432515401509    -2.617839933246
    C            2.700587007222    -0.085842440275    -2.348838242930
    C            2.385072792679     0.328279809321    -0.919392157672
    H            3.759655057260     0.032154825673    -2.534356761619
    H            2.176759512813     0.561647052986    -3.049400539820
    C            0.900259964651     0.281303227869    -0.565917078649
    H            2.942507021499    -0.312965770943    -0.243255045001
    H            2.757574755647     1.339518857250    -0.774579664179
    C            0.618797766586     0.739250463815     0.864518673511
    H            0.531190209015    -0.729724968904    -0.701568005081
    H            0.345463332641     0.912550527226    -1.257970691172
    C           -0.862137710157     0.797385953611     1.246318234902
    H            1.144665019175     0.087285429287     1.557730469158
    H            1.045632221766     1.729325637585     0.998790622714
    C           -1.548469821988    -0.570460795002     1.307693640233
    H           -0.939972370908     1.272008641318     2.220451473832
    H           -1.380074525813     1.448863320937     0.549569485204
    C           -2.988175167617    -0.563204849341     1.860674139566
    H           -0.939753435282    -1.184165083407     1.965104532311
    H           -1.537533643232    -1.028996562899     0.325907467362
    C           -3.817439733824     0.691576430634     1.591899091586
    H           -3.514342889242    -1.430952017935     1.477898704278
    H           -2.942037023943    -0.697617495246     2.937695935638
    H           -3.910679484076     0.896410861798     0.529996080067
    H           -4.818886173321     0.567274897424     1.987996601551
    H           -3.387153888251     1.566797847088     2.060658601554

  Mulliken Charges: (a.u.)
   Center  Symbol    Alpha    Beta     Spin     Total
       1     H     0.39230  0.39230  0.00000  0.21540
       2     O     4.20554  4.20554  0.00000 -0.41107
       3     C     2.97988  2.97988  0.00000  0.04024
       4     C     3.08965  3.08965  0.00000 -0.17931
       5     H     0.44856  0.44856  0.00000  0.10288
       6     H     0.46975  0.46975  0.00000  0.06049
       7     C     3.10234  3.10234  0.00000 -0.20469
       8     H     0.45079  0.45079  0.00000  0.09842
       9     H     0.45519  0.45519  0.00000  0.08963
      10     C     3.09927  3.09927  0.00000 -0.19855
      11     H     0.45575  0.45575  0.00000  0.08851
      12     H     0.45396  0.45396  0.00000  0.09208
      13     C     3.10073  3.10073  0.00000 -0.20146
      14     H     0.45221  0.45221  0.00000  0.09557
      15     H     0.44798  0.44798  0.00000  0.10405
      16     C     3.09677  3.09677  0.00000 -0.19355
      17     H     0.44689  0.44689  0.00000  0.10622
      18     H     0.45025  0.45025  0.00000  0.09949
      19     C     3.08823  3.08823  0.00000 -0.17645
      20     H     0.45116  0.45116  0.00000  0.09767
      21     H     0.45225  0.45225  0.00000  0.09549
      22     C     3.15681  3.15681  0.00000 -0.31361
      23     H     0.44939  0.44939  0.00000  0.10122
      24     H     0.45340  0.45340  0.00000  0.09319
      25     H     0.45463  0.45463  0.00000  0.09075
      26     H     0.44490  0.44490  0.00000  0.11020
      27     H     0.45141  0.45141  0.00000  0.09718

   Total alpha = 37.00000, Total beta = 37.00000, Total charge = -0.00000

*** Psi4 exiting successfully. Buy a developer a beer!
