                              Psi4 1.0.54 Driver

  ==> Input File <==

--------------------------------------------------------------------------
set {
	reference rhf
	basis cc-pvtz
}

set_num_threads( 4 )
memory 2 gb

molecule MOL {
0 1

H	 -3.205355	 0.203216	 1.478542
O	 -2.417696	 -0.319255	 1.496861
C	 -1.475634	 0.314826	 0.804476
C	 -0.184191	 -0.457035	 0.783611
O	 -1.673295	 1.356552	 0.281306
C	 0.926581	 0.227233	 0.000178
H	 -0.405832	 -1.439090	 0.378431
H	 0.105308	 -0.622588	 1.816326
C	 2.220156	 -0.582071	 -0.000088
H	 0.596021	 0.392485	 -1.019065
H	 1.107799	 1.210002	 0.420591
C	 3.466689	 0.296012	 -0.000457
H	 2.239073	 -1.234095	 -0.869382
H	 2.239505	 -1.233985	 0.869270
H	 3.493549	 0.935857	 -0.875887
H	 4.368821	 -0.304526	 -0.001199
H	 3.494559	 0.935166	 0.875458

	symmetry c1
}
set optking {
	frozen_dihedral = ("
		10 6 9 13
	")
}

ee,wfn = optimize('scf', return_wfn=True)
oeprop( wfn, 'DIPOLE', 'QUADRUPOLE', 'MULLIKEN_CHARGES')
f=open( 'psi4out.xyz', 'w' )
f.write( "17  " )
f.write( str(ee) + "\n" )
f.write( MOL.save_string_xyz() )
f.close()
--------------------------------------------------------------------------

    Molecular point group: c1
  Charge       = 0
  Multiplicity = 1
  Basis Set: CC-PVTZ
  Basis Set:
  @DF-RHF Final Energy:  -345.04531729550365
    Total Energy =                       -345.0453172955037076
    Molecular point group: c1
  Basis Set: CC-PVTZ
  Basis Set:
  Basis Set: CC-PVTZ
  Basis Set:
  @DF-RHF Final Energy:  -345.04554099560187
    Total Energy =                       -345.0455409956020389
  Basis Set: CC-PVTZ
  Basis Set:
  Basis Set: CC-PVTZ
  Basis Set:
  @DF-RHF Final Energy:  -345.04425629662933
    Total Energy =                       -345.0442562966292144
  Basis Set: CC-PVTZ
  Basis Set:
  Basis Set: CC-PVTZ
  Basis Set:
  @DF-RHF Final Energy:  -345.04567320191126
    Total Energy =                       -345.0456732019113133
  Basis Set: CC-PVTZ
  Basis Set:
  Basis Set: CC-PVTZ
  Basis Set:
  @DF-RHF Final Energy:  -345.04569248393335
    Total Energy =                       -345.0456924839337489
  Basis Set: CC-PVTZ
  Basis Set:
  Basis Set: CC-PVTZ
  Basis Set:
  @DF-RHF Final Energy:  -345.04569582110963
    Total Energy =                       -345.0456958211095753
  Basis Set: CC-PVTZ
  Basis Set:
  Charge       = 0
  Multiplicity = 1
  Basis Set: CC-PVTZ
  Basis Set:

    Orbital Energies (a.u.)
    -----------------------

    Doubly Occupied:

       1A    -20.604034     2A    -20.540691     3A    -11.373441
       4A    -11.239365     5A    -11.221363     6A    -11.220699
       7A    -11.210835     8A     -1.477596     9A     -1.369121
      10A     -1.091573    11A     -1.019340    12A     -0.914372
      13A     -0.825226    14A     -0.790570    15A     -0.703834
      16A     -0.689528    17A     -0.670177    18A     -0.629761
      19A     -0.594635    20A     -0.589688    21A     -0.572438
      22A     -0.534671    23A     -0.514250    24A     -0.484563
      25A     -0.480243    26A     -0.478365    27A     -0.470852
      28A     -0.445691

  @DF-RHF Final Energy:  -345.04569587637138

   => Energetics <=

    Nuclear Repulsion Energy =            304.7798394924212744
    One-Electron Energy =               -1074.1372237442467394
    Two-Electron Energy =                 424.3116883754539117
    DFT Exchange-Correlation Energy =       0.0000000000000000
    Empirical Dispersion Energy =           0.0000000000000000
    PCM Polarization Energy =               0.0000000000000000
    EFP Energy =                            0.0000000000000000
    Total Energy =                       -345.0456958763715534
    Molecular point group: c1
  Basis Set: CC-PVTZ
  Basis Set:

  -Total Gradient:
     Atom            X                  Y                   Z
    ------   -----------------  -----------------  -----------------
       1       -0.000002753181     0.000001003958     0.000002126159
       2       -0.000006073194    -0.000004036895    -0.000001280005
       3        0.000007811041     0.000002542599    -0.000009739398
       4       -0.000003293384    -0.000004123253    -0.000017137817
       5        0.000002021769    -0.000000807692     0.000008791305
       6        0.003584101863     0.005409971933    -0.000734754944
       7        0.000001672974    -0.000000116231     0.000008352371
       8        0.000001257594     0.000006259285     0.000005931056
       9       -0.003153477420    -0.004839600551     0.002958855643
      10       -0.002495752681    -0.003760040003     0.000159784425
      11       -0.000004527664    -0.000000016449    -0.000001278071
      12       -0.000003034656     0.000002107490     0.000005960794
      13        0.002074309383     0.003184236182    -0.002383650480
      14        0.000000069962     0.000004068405    -0.000003038085
      15       -0.000001466837    -0.000002378897    -0.000000171979
      16       -0.000001174289    -0.000002199001     0.000001386684
      17        0.000000308723     0.000003129120    -0.000000137660

  **** Optimization is complete! (in 7 steps) ****
    Final optimized geometry and variables:
    Molecular point group: c1

    Geometry (in Angstrom), charge = 0, multiplicity = 1:

    H           -3.304738339299     0.092137196298     0.943500459659
    O           -2.518478419960    -0.431730992932     0.976891638744
    C           -1.562421485892     0.201182576305     0.302712783242
    C           -0.270729683753    -0.570573559591     0.308681881515
    O           -1.748395284134     1.244146751334    -0.222491473343
    C            0.860712235985     0.118286341086    -0.445263184554
    H           -0.482130813142    -1.550184911555    -0.108420524252
    H           -0.006435248974    -0.742952234744     1.346818747017
    C            2.138225498229    -0.732093211505    -0.472916733982
    H            0.518929227535     0.301436926059    -1.456308374678
    H            1.053184551158     1.083198081836     0.006754043567
    C            3.406556424938     0.115663067787    -0.540058745662
    H            2.121670439216    -1.374711181773    -1.347368735895
    H            2.185349789418    -1.375665333319     0.399605534335
    H            3.392921484013     0.768072472970    -1.406788490001
    H            4.291557260830    -0.506514001504    -0.607989160064
    H            3.505969068030     0.741143417378     0.340544843839

  Mulliken Charges: (a.u.)
   Center  Symbol    Alpha    Beta     Spin     Total
       1     H     0.38240  0.38240  0.00000  0.23519
       2     O     4.15993  4.15993  0.00000 -0.31987
       3     C     2.80566  2.80566  0.00000  0.38868
       4     C     3.11138  3.11138  0.00000 -0.22277
       5     O     4.19108  4.19108  0.00000 -0.38217
       6     C     3.08423  3.08423  0.00000 -0.16846
       7     H     0.43718  0.43718  0.00000  0.12565
       8     H     0.43829  0.43829  0.00000  0.12341
       9     C     3.08688  3.08688  0.00000 -0.17376
      10     H     0.44480  0.44480  0.00000  0.11040
      11     H     0.44629  0.44629  0.00000  0.10743
      12     C     3.14792  3.14792  0.00000 -0.29584
      13     H     0.45192  0.45192  0.00000  0.09616
      14     H     0.45540  0.45540  0.00000  0.08919
      15     H     0.45249  0.45249  0.00000  0.09503
      16     H     0.44898  0.44898  0.00000  0.10204
      17     H     0.45516  0.45516  0.00000  0.08969

   Total alpha = 28.00000, Total beta = 28.00000, Total charge = -0.00000

*** Psi4 exiting successfully. Buy a developer a beer!
