  ==> Input File <==

--------------------------------------------------------------------------
set {
	reference rhf
	basis 6-31G*
}

set_num_threads( 4 )
memory 2 gb

molecule MOL {
0 1

H	 3.276176	 0.174363	 -0.109463
N	 2.434251	 -0.367735	 -0.081097
C	 1.267428	 0.496480	 0.024474
H	 2.501951	 -0.965776	 0.720575
C	 -0.016086	 -0.325158	 -0.029487
H	 1.288818	 1.183521	 -0.816092
H	 1.267576	 1.109062	 0.929528
C	 -1.282277	 0.529072	 0.046735
H	 -0.012495	 -0.908639	 -0.945788
H	 -0.015903	 -1.041248	 0.791956
C	 -1.054674	 1.970987	 -0.405793
H	 -1.656618	 0.528120	 1.068427
H	 -2.062293	 0.079364	 -0.564243
H	 -0.304424	 2.460099	 0.208710
H	 -1.968409	 2.553382	 -0.339267
H	 -0.712442	 2.008826	 -1.436165

	symmetry c1
}
set optking {
	frozen_dihedral = ("
		12 8 5 9
	")
}

ee = optimize('scf')
oeprop('DIPOLE', 'QUADRUPOLE', 'MULLIKEN_CHARGES')
f=open( 'psi4out.xyz', 'w' )
f.write( "16  " )
f.write( str(ee) + "\n" )
f.write( MOL.save_string_xyz() )
f.close()
--------------------------------------------------------------------------

    Molecular point group: c1
  Charge       = 0
  Multiplicity = 1
  Basis Set: 6-31G*
  Basis Set:
  @DF-RHF Final Energy:  -212.30722651732668
    Total Energy =                       -212.3072265173264555
    Molecular point group: c1
  Basis Set: 6-31G*
  Basis Set:
  Basis Set: 6-31G*
  Basis Set:
  @DF-RHF Final Energy:  -212.30846939445323
    Total Energy =                       -212.3084693944532546
  Basis Set: 6-31G*
  Basis Set:
  Basis Set: 6-31G*
  Basis Set:
  @DF-RHF Final Energy:  -212.31044175358610
    Total Energy =                       -212.3104417535861330
  Basis Set: 6-31G*
  Basis Set:
  Basis Set: 6-31G*
  Basis Set:
  @DF-RHF Final Energy:  -212.31064923385927
    Total Energy =                       -212.3106492338593512
  Basis Set: 6-31G*
  Basis Set:
  Basis Set: 6-31G*
  Basis Set:
  @DF-RHF Final Energy:  -212.31066108222691
    Total Energy =                       -212.3106610822268863
  Basis Set: 6-31G*
  Basis Set:
  Basis Set: 6-31G*
  Basis Set:
  @DF-RHF Final Energy:  -212.31067404171321
    Total Energy =                       -212.3106740417132983
  Basis Set: 6-31G*
  Basis Set:
  Basis Set: 6-31G*
  Basis Set:
  @DF-RHF Final Energy:  -212.31067925861697
    Total Energy =                       -212.3106792586169149
  Basis Set: 6-31G*
  Basis Set:
  Charge       = 0
  Multiplicity = 1
  Basis Set: 6-31G*
  Basis Set:

    Orbital Energies (a.u.)
    -----------------------

    Doubly Occupied:

       1A    -15.532532     2A    -11.239744     3A    -11.215358
       4A    -11.209879     5A    -11.208896     6A     -1.176772
       7A     -1.055794     8A     -0.954450     9A     -0.863956
      10A     -0.774571    11A     -0.663201    12A     -0.633538
      13A     -0.608487    14A     -0.587152    15A     -0.546438
      16A     -0.529590    17A     -0.515960    18A     -0.467274
      19A     -0.459797    20A     -0.453720    21A     -0.380853

  @DF-RHF Final Energy:  -212.31067926025992

   => Energetics <=

    Nuclear Repulsion Energy =            188.9525566597137640
    One-Electron Energy =                -660.3705443392191228
    Two-Electron Energy =                 259.1073084192453848
    DFT Exchange-Correlation Energy =       0.0000000000000000
    Empirical Dispersion Energy =           0.0000000000000000
    PCM Polarization Energy =               0.0000000000000000
    EFP Energy =                            0.0000000000000000
    Total Energy =                       -212.3106792602599739
    Molecular point group: c1
  Basis Set: 6-31G*
  Basis Set:

  -Total Gradient:
     Atom            X                  Y                   Z
    ------   -----------------  -----------------  -----------------
       1       -0.000001428194     0.000002294226    -0.000000992216
       2       -0.000006877396    -0.000001159624     0.000002791611
       3        0.000001858609     0.000004186989    -0.000001495525
       4       -0.000000001581    -0.000000996893     0.000000802023
       5        0.002632500407     0.004639172972    -0.003931413518
       6       -0.000002999707     0.000008753951    -0.000002530142
       7        0.000006403116    -0.000010921587    -0.000000255911
       8        0.003532260313     0.004982472481     0.002220486983
       9       -0.002759327251    -0.004674702470     0.002933506587
      10        0.000002764748    -0.000004380038    -0.000001799181
      11       -0.000006003232     0.000004312945     0.000001670881
      12       -0.003392429002    -0.004952566491    -0.001220300895
      13       -0.000003081898     0.000002602921     0.000001624866
      14       -0.000005501221    -0.000000574603    -0.000001159481
      15       -0.000002088536     0.000003524509    -0.000003329851
      16        0.000003950823    -0.000002019290     0.000002393768

  **** Optimization is complete! (in 8 steps) ****
    Final optimized geometry and variables:
    Molecular point group: c1

    Geometry (in Angstrom), charge = 0, multiplicity = 1:

    H            3.018526264060    -0.437054654949     0.037283095243
    N            2.143275110749    -0.924136132427     0.024416081748
    C            1.031454240892     0.010324863227     0.125824806417
    H            2.148719641052    -1.551695795257     0.806003609904
    C           -0.290246578684    -0.741891298449     0.014349305384
    H            1.127405031041     0.719900940637    -0.688260603895
    H            1.043684886021     0.590534946567     1.051960389228
    C           -1.574186350277     0.104078401175     0.153534999296
    H           -0.308640425222    -1.310458385098    -0.910069692522
    H           -0.307817157799    -1.500344168307     0.796416040758
    C           -1.498587534448     1.543598635292    -0.356803145747
    H           -1.916050212589     0.084578729261     1.185180650629
    H           -2.361457973950    -0.405886077852    -0.396695729542
    H           -0.790819433387     2.141861030066     0.207483454344
    H           -2.468637058025     2.024067881524    -0.275815979364
    H           -1.202769095154     1.576794688628    -1.401480965232

  Mulliken Charges: (a.u.)
   Center  Symbol    Alpha    Beta     Spin     Total
       1     H     0.33237  0.33237  0.00000  0.33526
       2     N     3.92204  3.92204  0.00000 -0.84408
       3     C     3.06314  3.06314  0.00000 -0.12627
       4     H     0.33533  0.33533  0.00000  0.32933
       5     C     3.15383  3.15383  0.00000 -0.30765
       6     H     0.41841  0.41841  0.00000  0.16318
       7     H     0.43448  0.43448  0.00000  0.13105
       8     C     3.15687  3.15687  0.00000 -0.31374
       9     H     0.41201  0.41201  0.00000  0.17598
      10     H     0.42665  0.42665  0.00000  0.14669
      11     C     3.24368  3.24368  0.00000 -0.48735
      12     H     0.42196  0.42196  0.00000  0.15608
      13     H     0.41984  0.41984  0.00000  0.16032
      14     H     0.42070  0.42070  0.00000  0.15861
      15     H     0.41867  0.41867  0.00000  0.16265
      16     H     0.42003  0.42003  0.00000  0.15995

   Total alpha = 21.00000, Total beta = 21.00000, Total charge =  0.00000
