                              Psi4 1.0.54 Driver

  ==> Input File <==

--------------------------------------------------------------------------
set {
	reference rhf
	basis cc-pvtz
}

set_num_threads( 4 )
memory 2 gb

molecule MOL {
0 1

H	 -3.954633	 -1.074621	 -0.882757
C	 -2.889959	 -0.942761	 -0.918209
C	 -2.291764	 -0.465448	 -2.070588
C	 -2.120648	 -1.250446	 0.187898
H	 -2.889530	 -0.226834	 -2.928749
C	 -0.923602	 -0.296271	 -2.115384
H	 -2.585514	 -1.620543	 1.081095
C	 -0.750572	 -1.081588	 0.144597
H	 -0.444124	 0.072177	 -2.999355
C	 -0.147989	 -0.603630	 -1.008209
H	 -0.151896	 -1.318925	 0.999459
C	 1.326122	 -0.403312	 -1.107156
O	 1.968286	 -0.725612	 -0.000027
O	 1.872704	 0.003287	 -2.077261
C	 3.373556	 -0.568203	 0.000011
H	 3.695416	 -0.031588	 -0.879663
H	 3.782700	 -1.565294	 -0.000152
H	 3.695405	 -0.031851	 0.879862

	symmetry c1
}
set optking {
	frozen_dihedral = ("
		12 13 15 16
	")
}

ee,wfn = optimize('scf', return_wfn=True)
oeprop( wfn, 'DIPOLE', 'QUADRUPOLE', 'MULLIKEN_CHARGES')
f=open( 'psi4out.xyz', 'w' )
f.write( "18  " )
f.write( str(ee) + "\n" )
f.write( MOL.save_string_xyz() )
f.close()
--------------------------------------------------------------------------

    Molecular point group: c1
  Charge       = 0
  Multiplicity = 1
  Basis Set: CC-PVTZ
  Basis Set:
  @DF-RHF Final Energy:  -457.50707203763164
    Total Energy =                       -457.5070720376311328
    Molecular point group: c1
  Basis Set: CC-PVTZ
  Basis Set:
  Basis Set: CC-PVTZ
  Basis Set:
  @DF-RHF Final Energy:  -457.50756154380241
    Total Energy =                       -457.5075615438025807
  Basis Set: CC-PVTZ
  Basis Set:
  Basis Set: CC-PVTZ
  Basis Set:
  @DF-RHF Final Energy:  -457.50784857274067
    Total Energy =                       -457.5078485727406132
  Basis Set: CC-PVTZ
  Basis Set:
  Basis Set: CC-PVTZ
  Basis Set:
  @DF-RHF Final Energy:  -457.50808814015045
    Total Energy =                       -457.5080881401497663
  Basis Set: CC-PVTZ
  Basis Set:
  Basis Set: CC-PVTZ
  Basis Set:
  @DF-RHF Final Energy:  -457.50819990098643
    Total Energy =                       -457.5081999009864830
  Basis Set: CC-PVTZ
  Basis Set:
  Charge       = 0
  Multiplicity = 1
  Basis Set: CC-PVTZ
  Basis Set:

    Orbital Energies (a.u.)
    -----------------------

    Doubly Occupied:

       1A    -20.599968     2A    -20.533656     3A    -11.373190
       4A    -11.279976     5A    -11.244562     6A    -11.243186
       7A    -11.242256     8A    -11.239633     9A    -11.235692
      10A    -11.234928    11A     -1.474504    12A     -1.369034
      13A     -1.170347    14A     -1.051548    15A     -1.028667
      16A     -0.981548    17A     -0.862754    18A     -0.838047
      19A     -0.780416    20A     -0.745060    21A     -0.688373
      22A     -0.679275    23A     -0.676056    24A     -0.634281
      25A     -0.629731    26A     -0.600890    27A     -0.587561
      28A     -0.571040    29A     -0.526532    30A     -0.520009
      31A     -0.510065    32A     -0.501524    33A     -0.460312
      34A     -0.449900    35A     -0.350003    36A     -0.345866

  @DF-RHF Final Energy:  -457.50821933755844

   => Energetics <=

    Nuclear Repulsion Energy =            493.6100873696233293
    One-Electron Energy =               -1601.7158319018176371
    Two-Electron Energy =                 650.5975251946356366
    DFT Exchange-Correlation Energy =       0.0000000000000000
    Empirical Dispersion Energy =           0.0000000000000000
    PCM Polarization Energy =               0.0000000000000000
    EFP Energy =                            0.0000000000000000
    Total Energy =                       -457.5082193375587849
    Molecular point group: c1
  Basis Set: CC-PVTZ
  Basis Set:

  -Total Gradient:
     Atom            X                  Y                   Z
    ------   -----------------  -----------------  -----------------
       1        0.000007028356    -0.000000252605     0.000002411350
       2        0.000001076877     0.000002478142    -0.000009140762
       3       -0.000010681256     0.000003021953     0.000005994640
       4        0.000016317873    -0.000000850389    -0.000002436066
       5        0.000004455399     0.000000226172     0.000001246618
       6        0.000015145350     0.000000459592    -0.000004892367
       7        0.000001172385    -0.000000656675     0.000002331455
       8       -0.000004350203    -0.000002558931     0.000010492898
       9        0.000001876316    -0.000000579884    -0.000003126590
      10        0.000016209174     0.000001337699    -0.000025972160
      11       -0.000003531900     0.000001710185    -0.000002293827
      12       -0.000125466341     0.000569593076     0.000335856001
      13       -0.000058692108    -0.001024929238    -0.000438848143
      14        0.000037137706     0.000023899607    -0.000043010837
      15       -0.000146297624     0.000978960960     0.000511667958
      16        0.000123075677    -0.000600723636    -0.000416725630
      17        0.000089373666    -0.000019523469    -0.000000808694
      18        0.000036150668     0.000068387440     0.000077254153

  **** Optimization is complete! (in 6 steps) ****
    Final optimized geometry and variables:
    Molecular point group: c1

    Geometry (in Angstrom), charge = 0, multiplicity = 1:

    H           -4.022614536320    -0.449138232802     0.039343402054
    C           -2.958297342033    -0.317684724813    -0.007539882386
    C           -2.372185059924     0.159103468646    -1.166382612582
    C           -2.177096570066    -0.625370665675     1.090125231880
    H           -2.978918874156     0.397754664699    -2.018287285172
    C           -1.004505354531     0.327613911441    -1.225878057344
    H           -2.632213617814    -0.995157404769     1.988508684874
    C           -0.807365853893    -0.457005086585     1.032116305385
    H           -0.534688772252     0.695508016981    -2.115238058546
    C           -0.216817504097     0.020453799730    -0.127029888576
    H           -0.200033799673    -0.694592942426     1.880681157247
    C            1.257205968768     0.221315644649    -0.243860306422
    O            1.904051042789    -0.105826948040     0.859981396025
    O            1.784949611355     0.629285160780    -1.223269418958
    C            3.310743040468     0.043357948064     0.914250134515
    H            3.673809374027     0.587340158850     0.059951094235
    H            3.759791010972    -0.939416074267     0.938850090701
    H            3.544671105027     0.570096883700     1.826989398547

  Mulliken Charges: (a.u.)
   Center  Symbol    Alpha    Beta     Spin     Total
       1     H     0.42034  0.42034  0.00000  0.15931
       2     C     3.06972  3.06972  0.00000 -0.13945
       3     C     3.07554  3.07554  0.00000 -0.15107
       4     C     3.07481  3.07481  0.00000 -0.14961
       5     H     0.42049  0.42049  0.00000  0.15902
       6     C     3.07597  3.07597  0.00000 -0.15195
       7     H     0.42199  0.42199  0.00000  0.15602
       8     C     3.08187  3.08187  0.00000 -0.16373
       9     H     0.40635  0.40635  0.00000  0.18730
      10     C     3.01857  3.01857  0.00000 -0.03714
      11     H     0.41124  0.41124  0.00000  0.17751
      12     C     2.77448  2.77448  0.00000  0.45105
      13     O     4.15021  4.15021  0.00000 -0.30042
      14     O     4.21153  4.21153  0.00000 -0.42306
      15     C     3.04242  3.04242  0.00000 -0.08483
      16     H     0.43985  0.43985  0.00000  0.12029
      17     H     0.45386  0.45386  0.00000  0.09229
      18     H     0.45077  0.45077  0.00000  0.09846

   Total alpha = 36.00000, Total beta = 36.00000, Total charge = -0.00000

*** Psi4 exiting successfully. Buy a developer a beer!
