  ==> Input File <==

--------------------------------------------------------------------------
set {
	reference rhf
	basis 6-31G*
}

set_num_threads( 4 )
memory 2 gb

molecule MOL {
0 1

H	 -0.345686	 3.975960	 -1.121866
O	 -0.606806	 3.183109	 -0.675892
C	 0.481122	 2.295631	 -0.612932
C	 0.031547	 1.023609	 0.088541
H	 1.303654	 2.740558	 -0.055823
H	 0.850222	 2.073003	 -1.611582
C	 -1.134819	 0.293262	 -0.585751
H	 -0.254443	 1.284304	 1.103693
H	 0.889729	 0.357931	 0.163489
C	 -1.917817	 -0.639439	 0.339494
H	 -0.758119	 -0.268455	 -1.433105
H	 -1.813832	 1.041889	 -0.986690
H	 -2.777680	 -1.057197	 -0.174994
H	 -1.310268	 -1.471279	 0.680599
H	 -2.283753	 -0.111424	 1.216626

	symmetry c1
}
set optking {
	frozen_dihedral = ("
		8 4 7 11
	")
}

ee = optimize('scf')
oeprop('DIPOLE', 'QUADRUPOLE', 'MULLIKEN_CHARGES')
f=open( 'psi4out.xyz', 'w' )
f.write( "15  " )
f.write( str(ee) + "\n" )
f.write( MOL.save_string_xyz() )
f.close()
--------------------------------------------------------------------------

    Molecular point group: c1
  Charge       = 0
  Multiplicity = 1
  Basis Set: 6-31G*
  Basis Set:
  @DF-RHF Final Energy:  -232.14316518144412
    Total Energy =                       -232.1431651814440329
    Molecular point group: c1
  Basis Set: 6-31G*
  Basis Set:
  Basis Set: 6-31G*
  Basis Set:
  @DF-RHF Final Energy:  -232.14398596873463
    Total Energy =                       -232.1439859687343983
  Basis Set: 6-31G*
  Basis Set:
  Basis Set: 6-31G*
  Basis Set:
  @DF-RHF Final Energy:  -232.14405626118193
    Total Energy =                       -232.1440562611820155
  Basis Set: 6-31G*
  Basis Set:
  Basis Set: 6-31G*
  Basis Set:
  @DF-RHF Final Energy:  -232.14406487120948
    Total Energy =                       -232.1440648712097072
  Basis Set: 6-31G*
  Basis Set:
  Basis Set: 6-31G*
  Basis Set:
  @DF-RHF Final Energy:  -232.14406883603041
    Total Energy =                       -232.1440688360304421
  Basis Set: 6-31G*
  Basis Set:
  Charge       = 0
  Multiplicity = 1
  Basis Set: 6-31G*
  Basis Set:

    Orbital Energies (a.u.)
    -----------------------

    Doubly Occupied:

       1A    -20.553321     2A    -11.268377     3A    -11.211980
       4A    -11.208632     5A    -11.203958     6A     -1.360024
       7A     -1.063903     8A     -0.973381     9A     -0.855520
      10A     -0.786630    11A     -0.705593    12A     -0.634575
      13A     -0.612635    14A     -0.592642    15A     -0.545514
      16A     -0.524014    17A     -0.514267    18A     -0.475278
      19A     -0.463924    20A     -0.457141    21A     -0.430022

  @DF-RHF Final Energy:  -232.14406899775858

   => Energetics <=

    Nuclear Repulsion Energy =            188.8055666429624182
    One-Electron Energy =                -689.0166116025873180
    Two-Electron Energy =                 268.0669759618664330
    DFT Exchange-Correlation Energy =       0.0000000000000000
    Empirical Dispersion Energy =           0.0000000000000000
    PCM Polarization Energy =               0.0000000000000000
    EFP Energy =                            0.0000000000000000
    Total Energy =                       -232.1440689977584952
    Molecular point group: c1
  Basis Set: 6-31G*
  Basis Set:

  -Total Gradient:
     Atom            X                  Y                   Z
    ------   -----------------  -----------------  -----------------
       1       -0.000000535824     0.000000665069     0.000001789132
       2       -0.000010678781    -0.000013427927    -0.000017886454
       3        0.000001910518     0.000010099281     0.000023158252
       4       -0.001301259437     0.002994020750    -0.000872772944
       5        0.000009914918    -0.000022096035    -0.000001277154
       6       -0.000005550724     0.000004694699    -0.000003839704
       7       -0.000271759738     0.002481463049    -0.002128783339
       8        0.001135642523    -0.002879525435     0.001092804939
       9        0.000004168104     0.000009460921    -0.000006220374
      10        0.000017734052     0.000000866852    -0.000005247646
      11        0.000416514506    -0.002596454094     0.001936875412
      12       -0.000008508465    -0.000000862557    -0.000009947158
      13        0.000007815498     0.000010890400    -0.000004248343
      14        0.000001460788    -0.000008093096    -0.000000614014
      15        0.000003132061     0.000008298124    -0.000003790604

  **** Optimization is complete! (in 6 steps) ****
    Final optimized geometry and variables:
    Molecular point group: c1

    Geometry (in Angstrom), charge = 0, multiplicity = 1:

    H            0.345752036013     2.702154823098    -0.809745213677
    O            0.075756879399     1.938468096707    -0.320167897245
    C            1.105426101488     0.981889714155    -0.329735962305
    C            0.621203376962    -0.261209451608     0.395095867651
    H            1.992117413971     1.374206641426     0.164656971875
    H            1.383960003195     0.730221641345    -1.352455312561
    C           -0.536131545195    -0.978303844852    -0.308829109035
    H            0.334176609978     0.007532383236     1.408188737808
    H            1.462175895072    -0.945353152450     0.495006473731
    C           -1.271282256866    -1.947481555592     0.617966907310
    H           -0.144477341859    -1.542589745722    -1.152681507354
    H           -1.234781529205    -0.247518630682    -0.699566752598
    H           -2.059494340167    -2.474814002786     0.089314612908
    H           -0.593611998782    -2.692051119172     1.027695564447
    H           -1.726248298116    -1.420875138193     1.451803295375

  Mulliken Charges: (a.u.)
   Center  Symbol    Alpha    Beta     Spin     Total
       1     H     0.28057  0.28057  0.00000  0.43885
       2     O     4.36930  4.36930  0.00000 -0.73860
       3     C     2.99787  2.99787  0.00000  0.00427
       4     C     3.15924  3.15924  0.00000 -0.31847
       5     H     0.42916  0.42916  0.00000  0.14168
       6     H     0.43268  0.43268  0.00000  0.13464
       7     C     3.15542  3.15542  0.00000 -0.31085
       8     H     0.41482  0.41482  0.00000  0.17036
       9     H     0.42382  0.42382  0.00000  0.15236
      10     C     3.24033  3.24033  0.00000 -0.48067
      11     H     0.42603  0.42603  0.00000  0.14794
      12     H     0.40656  0.40656  0.00000  0.18688
      13     H     0.42021  0.42021  0.00000  0.15958
      14     H     0.42417  0.42417  0.00000  0.15166
      15     H     0.41982  0.41982  0.00000  0.16035

   Total alpha = 21.00000, Total beta = 21.00000, Total charge = -0.00000
