  ==> Input File <==

--------------------------------------------------------------------------
set {
	reference rhf
	basis cc-pvtz
}

set_num_threads( 4 )
memory 2 gb

molecule MOL {
0 1

H	 -2.123894	 -0.667238	 -0.609809
O	 -2.041679	 -0.058866	 0.103463
C	 -0.959304	 0.780994	 -0.094939
C	 0.354905	 0.037902	 -0.006215
H	 -0.985899	 1.279578	 -1.057596
H	 -0.969809	 1.529522	 0.682889
F	 1.294357	 0.653307	 -0.702273
F	 0.762056	 -0.023527	 1.244405
F	 0.269767	 -1.188883	 -0.461982

	symmetry c1
}
set optking {
	frozen_dihedral = ("
		7 4 3 5
	")
}

ee = optimize('scf')
oeprop('DIPOLE', 'QUADRUPOLE', 'MULLIKEN_CHARGES')
f=open( 'psi4out.xyz', 'w' )
f.write( "9  " )
f.write( str(ee) + "\n" )
f.write( MOL.save_string_xyz() )
f.close()
--------------------------------------------------------------------------

    Molecular point group: c1
  Charge       = 0
  Multiplicity = 1
  Basis Set: CC-PVTZ
  Basis Set:
  @DF-RHF Final Energy:  -450.84408681741479
    Total Energy =                       -450.8440868174147909
    Molecular point group: c1
  Basis Set: CC-PVTZ
  Basis Set:
  Basis Set: CC-PVTZ
  Basis Set:
  @DF-RHF Final Energy:  -450.84464175477791
    Total Energy =                       -450.8446417547780243
  Basis Set: CC-PVTZ
  Basis Set:
  Basis Set: CC-PVTZ
  Basis Set:
  @DF-RHF Final Energy:  -450.84485495284184
    Total Energy =                       -450.8448549528419562
  Basis Set: CC-PVTZ
  Basis Set:
  Basis Set: CC-PVTZ
  Basis Set:
  @DF-RHF Final Energy:  -450.84487897278871
    Total Energy =                       -450.8448789727888197
  Basis Set: CC-PVTZ
  Basis Set:
  Basis Set: CC-PVTZ
  Basis Set:
  @DF-RHF Final Energy:  -450.84488169585211
    Total Energy =                       -450.8448816958520524
  Basis Set: CC-PVTZ
  Basis Set:
  Charge       = 0
  Multiplicity = 1
  Basis Set: CC-PVTZ
  Basis Set:

    Orbital Energies (a.u.)
    -----------------------

    Doubly Occupied:

       1A    -26.339384     2A    -26.339353     3A    -26.337992
       4A    -20.583795     5A    -11.495358     6A    -11.309843
       7A     -1.748674     8A     -1.644981     9A     -1.643974
      10A     -1.407705    11A     -1.048932    12A     -0.930508
      13A     -0.838493    14A     -0.836070    15A     -0.814983
      16A     -0.730024    17A     -0.718943    18A     -0.705151
      19A     -0.671275    20A     -0.667698    21A     -0.649909
      22A     -0.632260    23A     -0.620356    24A     -0.531202
      25A     -0.484769

  @DF-RHF Final Energy:  -450.84488193868157

   => Energetics <=

    Nuclear Repulsion Energy =            277.3826827053719057
    One-Electron Energy =               -1176.9918603104483736
    Two-Electron Energy =                 448.7642956663951281
    DFT Exchange-Correlation Energy =       0.0000000000000000
    Empirical Dispersion Energy =           0.0000000000000000
    PCM Polarization Energy =               0.0000000000000000
    EFP Energy =                            0.0000000000000000
    Total Energy =                       -450.8448819386812829
    Molecular point group: c1
  Basis Set: CC-PVTZ
  Basis Set:

  -Total Gradient:
     Atom            X                  Y                   Z
    ------   -----------------  -----------------  -----------------
       1       -0.000015092216    -0.000004513477     0.000002634979
       2        0.000048373138     0.000021532938    -0.000006661821
       3       -0.002983236833    -0.005899273628    -0.003717251846
       4        0.001719223707     0.003957613145     0.005197059593
       5        0.002174726871     0.004257190163     0.002166139514
       6        0.000001640840    -0.000004394414    -0.000001550274
       7       -0.000931836698    -0.002303785784    -0.003562548923
       8       -0.000003265916     0.000021851601    -0.000078353270
       9       -0.000010532892    -0.000046220546     0.000000532048

  **** Optimization is complete! (in 6 steps) ****
    Final optimized geometry and variables:
    Molecular point group: c1

    Geometry (in Angstrom), charge = 0, multiplicity = 1:

    H           -2.103521239819    -0.713818153128    -0.555461466310
    O           -2.056583195168    -0.038436684469     0.097990527508
    C           -0.965266582932     0.778833869025    -0.122858006509
    C            0.358080238081     0.038806112415    -0.003088426434
    H           -0.975953133950     1.281523253714    -1.083357473513
    H           -0.973478989137     1.545433210433     0.638207376716
    F            1.301085934010     0.666843913014    -0.675374950275
    F            0.760987875768    -0.086544973326     1.238956597174
    F            0.267899719259    -1.176483884468    -0.513448567622

  Mulliken Charges: (a.u.)
   Center  Symbol    Alpha    Beta     Spin     Total
       1     H     0.38540  0.38540  0.00000  0.22920
       2     O     4.19013  4.19013  0.00000 -0.38027
       3     C     2.99570  2.99570  0.00000  0.00860
       4     C     2.68045  2.68045  0.00000  0.63910
       5     H     0.46286  0.46286  0.00000  0.07427
       6     H     0.44962  0.44962  0.00000  0.10075
       7     F     4.61156  4.61156  0.00000 -0.22311
       8     F     4.60738  4.60738  0.00000 -0.21476
       9     F     4.61689  4.61689  0.00000 -0.23378

   Total alpha = 25.00000, Total beta = 25.00000, Total charge = -0.00000
