  ==> Input File <==

--------------------------------------------------------------------------
set {
	reference rhf
	basis cc-pvtz
}

set_num_threads( 4 )
memory 2 gb

molecule MOL {
0 1

O	 0.437571	 1.085602	 1.147223
C	 0.386370	 0.032824	 0.607886
C	 1.522427	 -0.954864	 0.520096
O	 -0.695554	 -0.422406	 0.000602
C	 2.792742	 -0.477708	 1.205366
H	 1.692690	 -1.155447	 -0.531915
H	 1.170320	 -1.887753	 0.946328
H	 3.149468	 0.444272	 0.766144
H	 3.570353	 -1.225706	 1.109607
H	 2.622362	 -0.294676	 2.257838
C	 -1.852370	 0.402254	 0.000718
C	 -3.063338	 -0.501097	 -0.000437
H	 -1.831732	 1.039442	 -0.872158
H	 -1.832493	 1.038301	 0.874430
H	 -3.071944	 -1.133732	 -0.879113
H	 -3.966302	 0.097976	 -0.000483
H	 -3.072764	 -1.134834	 0.877435

	symmetry c1
}
set optking {
	frozen_dihedral = ("
		2 4 11 13
	")
}

ee = optimize('scf')
oeprop('DIPOLE', 'QUADRUPOLE', 'MULLIKEN_CHARGES')
f=open( 'psi4out.xyz', 'w' )
f.write( "17  " )
f.write( str(ee) + "\n" )
f.write( MOL.save_string_xyz() )
f.close()
--------------------------------------------------------------------------

    Molecular point group: c1
  Charge       = 0
  Multiplicity = 1
  Basis Set: CC-PVTZ
  Basis Set:
  @DF-RHF Final Energy:  -345.03912907851816
    Total Energy =                       -345.0391290785184992
    Molecular point group: c1
  Basis Set: CC-PVTZ
  Basis Set:
  Basis Set: CC-PVTZ
  Basis Set:
  @DF-RHF Final Energy:  -345.03925286656266
    Total Energy =                       -345.0392528665625491
  Basis Set: CC-PVTZ
  Basis Set:
  Basis Set: CC-PVTZ
  Basis Set:
  @DF-RHF Final Energy:  -345.03915689568385
    Total Energy =                       -345.0391568956840729
  Basis Set: CC-PVTZ
  Basis Set:
  Basis Set: CC-PVTZ
  Basis Set:
  @DF-RHF Final Energy:  -345.03943428696584
    Total Energy =                       -345.0394342869658431
  Basis Set: CC-PVTZ
  Basis Set:
  Charge       = 0
  Multiplicity = 1
  Basis Set: CC-PVTZ
  Basis Set:

    Orbital Energies (a.u.)
    -----------------------

    Doubly Occupied:

       1A    -20.592845     2A    -20.532504     3A    -11.364249
       4A    -11.281933     5A    -11.235602     6A    -11.220237
       7A    -11.213578     8A     -1.469066     9A     -1.365212
      10A     -1.070685    11A     -1.032220    12A     -0.912606
      13A     -0.848480    14A     -0.773251    15A     -0.701232
      16A     -0.688765    17A     -0.666369    18A     -0.629798
      19A     -0.588595    20A     -0.572258    21A     -0.557717
      22A     -0.527645    23A     -0.520646    24A     -0.515643
      25A     -0.501903    26A     -0.494275    27A     -0.454163
      28A     -0.438831

  @DF-RHF Final Energy:  -345.03943920245916

   => Energetics <=

    Nuclear Repulsion Energy =            315.2390529271260107
    One-Electron Energy =               -1095.0163646660239465
    Two-Electron Energy =                 434.7378725364386582
    DFT Exchange-Correlation Energy =       0.0000000000000000
    Empirical Dispersion Energy =           0.0000000000000000
    PCM Polarization Energy =               0.0000000000000000
    EFP Energy =                            0.0000000000000000
    Total Energy =                       -345.0394392024592207
    Molecular point group: c1
  Basis Set: CC-PVTZ
  Basis Set:

  -Total Gradient:
     Atom            X                  Y                   Z
    ------   -----------------  -----------------  -----------------
       1       -0.000169885115    -0.000082267143    -0.000133023595
       2       -0.000293145905    -0.000582120386     0.001356261660
       3       -0.000012200076    -0.000035301515     0.000000292928
       4        0.000377717117     0.000861250745    -0.002002384955
       5        0.000004240299     0.000008407737    -0.000008715544
       6        0.000014156065    -0.000011403077    -0.000005365559
       7        0.000014483861    -0.000016298940    -0.000015851289
       8       -0.000001656684    -0.000004150264     0.000003926974
       9       -0.000005520279    -0.000005553218    -0.000003637751
      10       -0.000000823210    -0.000000941463    -0.000002414679
      11        0.000714097509     0.001089625047     0.001795057635
      12       -0.000003010795     0.000027250663    -0.000058131370
      13       -0.000693666801    -0.001171134630    -0.000941146256
      14        0.000058377804    -0.000063555529    -0.000006666967
      15       -0.000016408725    -0.000003545820     0.000008397963
      16       -0.000006195697    -0.000009737218    -0.000005297048
      17        0.000019440635    -0.000000524990     0.000018697854

  **** Optimization is complete! (in 5 steps) ****
    Final optimized geometry and variables:
    Molecular point group: c1

    Geometry (in Angstrom), charge = 0, multiplicity = 1:

    O            0.550339015228     1.217969176324     0.638720994342
    C            0.473743340522     0.160832040379     0.111684560566
    C            1.592578583937    -0.847079193566     0.025531016370
    O           -0.617242604181    -0.287773583536    -0.485706865513
    C            2.876892609725    -0.384280278705     0.694293434908
    H            1.750073789010    -1.061258049047    -1.025790493427
    H            1.228828247847    -1.769584537468     0.464251287922
    H            3.245112467989     0.526835596689     0.242138012904
    H            3.640798320778    -1.146413602838     0.599502232532
    H            2.719355242048    -0.187415305856     1.746264822042
    C           -1.791641156454     0.513092342964    -0.477241935068
    C           -2.989840890617    -0.408753887256    -0.515982014952
    H           -1.771703025221     1.148313792967    -1.353669392651
    H           -1.795333479766     1.137939480203     0.400452280937
    H           -2.961077448132    -1.044202789658    -1.392132841577
    H           -3.901261907795     0.176885275718    -0.547649247333
    H           -3.018704715980    -1.039732329062     0.363700138975

  Mulliken Charges: (a.u.)
   Center  Symbol    Alpha    Beta     Spin     Total
       1     O     4.19774  4.19774  0.00000 -0.39547
       2     C     2.80488  2.80488  0.00000  0.39023
       3     C     3.09487  3.09487  0.00000 -0.18975
       4     O     4.15366  4.15366  0.00000 -0.30732
       5     C     3.13999  3.13999  0.00000 -0.27998
       6     H     0.44135  0.44135  0.00000  0.11731
       7     H     0.44207  0.44207  0.00000  0.11587
       8     H     0.44837  0.44837  0.00000  0.10325
       9     H     0.45062  0.45062  0.00000  0.09876
      10     H     0.44862  0.44862  0.00000  0.10277
      11     C     2.98540  2.98540  0.00000  0.02920
      12     C     3.13270  3.13270  0.00000 -0.26540
      13     H     0.45620  0.45620  0.00000  0.08761
      14     H     0.44554  0.44554  0.00000  0.10892
      15     H     0.45137  0.45137  0.00000  0.09727
      16     H     0.45458  0.45458  0.00000  0.09084
      17     H     0.45205  0.45205  0.00000  0.09589

   Total alpha = 28.00000, Total beta = 28.00000, Total charge = -0.00000
