  ==> Input File <==

--------------------------------------------------------------------------
set {
	reference rhf
	basis cc-pvtz
}

set_num_threads( 4 )
memory 2 gb

molecule MOL {
0 1

H	 1.920852	 -0.280626	 2.337555
O	 1.234309	 0.264696	 2.000899
C	 1.135873	 0.113391	 0.608264
C	 0.027642	 1.012027	 0.090274
H	 0.903507	 -0.918029	 0.355391
H	 2.081265	 0.358897	 0.132424
C	 -1.138737	 0.285728	 -0.581921
H	 0.464661	 1.708096	 -0.618252
H	 -0.340737	 1.603071	 0.925246
C	 -1.933983	 -0.631436	 0.343653
H	 -0.763151	 -0.285569	 -1.422081
H	 -1.808359	 1.035291	 -0.992333
H	 -2.789188	 -1.049673	 -0.174718
H	 -1.335629	 -1.461368	 0.700418
H	 -2.305435	 -0.092167	 1.209725

	symmetry c1
}
set optking {
	frozen_dihedral = ("
		2 3 4 8
	")
}

ee = optimize('scf')
oeprop('DIPOLE', 'QUADRUPOLE', 'MULLIKEN_CHARGES')
f=open( 'psi4out.xyz', 'w' )
f.write( "15  " )
f.write( str(ee) + "\n" )
f.write( MOL.save_string_xyz() )
f.close()
--------------------------------------------------------------------------

    Molecular point group: c1
  Charge       = 0
  Multiplicity = 1
  Basis Set: CC-PVTZ
  Basis Set:
  @DF-RHF Final Energy:  -232.23167152063542
    Total Energy =                       -232.2316715206353592
    Molecular point group: c1
  Basis Set: CC-PVTZ
  Basis Set:
  Basis Set: CC-PVTZ
  Basis Set:
  @DF-RHF Final Energy:  -232.23215864590776
    Total Energy =                       -232.2321586459079867
  Basis Set: CC-PVTZ
  Basis Set:
  Basis Set: CC-PVTZ
  Basis Set:
  @DF-RHF Final Energy:  -232.23224812228511
    Total Energy =                       -232.2322481222850001
  Basis Set: CC-PVTZ
  Basis Set:
  Basis Set: CC-PVTZ
  Basis Set:
  @DF-RHF Final Energy:  -232.23230389014140
    Total Energy =                       -232.2323038901413952
  Basis Set: CC-PVTZ
  Basis Set:
  Basis Set: CC-PVTZ
  Basis Set:
  @DF-RHF Final Energy:  -232.23231198622767
    Total Energy =                       -232.2323119862277849
  Basis Set: CC-PVTZ
  Basis Set:
  Charge       = 0
  Multiplicity = 1
  Basis Set: CC-PVTZ
  Basis Set:

    Orbital Energies (a.u.)
    -----------------------

    Doubly Occupied:

       1A    -20.545657     2A    -11.265728     3A    -11.213957
       4A    -11.209583     5A    -11.203531     6A     -1.362680
       7A     -1.067401     8A     -0.968870     9A     -0.867805
      10A     -0.784767    11A     -0.701653    12A     -0.649642
      13A     -0.614759    14A     -0.575212    15A     -0.556242
      16A     -0.542875    17A     -0.503374    18A     -0.478438
      19A     -0.470571    20A     -0.456820    21A     -0.430451

  @DF-RHF Final Energy:  -232.23231293572169

   => Energetics <=

    Nuclear Repulsion Energy =            190.2603431482751546
    One-Electron Energy =                -692.0452836109891450
    Two-Electron Energy =                 269.5526275269923531
    DFT Exchange-Correlation Energy =       0.0000000000000000
    Empirical Dispersion Energy =           0.0000000000000000
    PCM Polarization Energy =               0.0000000000000000
    EFP Energy =                            0.0000000000000000
    Total Energy =                       -232.2323129357216089
    Molecular point group: c1
  Basis Set: CC-PVTZ
  Basis Set:

  -Total Gradient:
     Atom            X                  Y                   Z
    ------   -----------------  -----------------  -----------------
       1       -0.000013590394     0.000009642354    -0.000047420367
       2        0.000644248305     0.000875592057    -0.000057148696
       3       -0.000833503870    -0.000947825773     0.000396891775
       4       -0.000023895467    -0.000768005430    -0.001316592510
       5       -0.000009881877    -0.000018367324    -0.000037894757
       6       -0.000028131145     0.000025639361    -0.000024280243
       7        0.000038886980    -0.000047219936     0.000005318636
       8        0.000227348114     0.000868586220     0.001085800022
       9        0.000007895001     0.000013636981     0.000010035782
      10       -0.000016729885    -0.000019476614    -0.000027306786
      11       -0.000001602328     0.000003485879    -0.000007606618
      12        0.000004314637    -0.000013243644     0.000002153658
      13       -0.000028821018     0.000009699075     0.000016426213
      14        0.000013237663     0.000008654287    -0.000004387503
      15        0.000020225282    -0.000000797493     0.000006011393

  **** Optimization is complete! (in 6 steps) ****
    Final optimized geometry and variables:
    Molecular point group: c1

    Geometry (in Angstrom), charge = 0, multiplicity = 1:

    H            2.025665148442    -0.529906271266     1.769990269410
    O            1.332001108786     0.019278781909     1.453723437328
    C            1.247617060604    -0.073663670934     0.053312537605
    C            0.115187301693     0.832810139591    -0.442779002403
    H            1.068288899304    -1.103167315332    -0.243870069756
    H            2.190483941174     0.229229233952    -0.392694776077
    C           -1.038339742414     0.097044630870    -1.125030432977
    H            0.518931665339     1.576926050371    -1.120107955185
    H           -0.260007451523     1.377841031140     0.415577082577
    C           -1.849156753689    -0.785235931688    -0.179654584103
    H           -0.650890857336    -0.504217474018    -1.943769736358
    H           -1.699365346968     0.829800697885    -1.577042802208
    H           -2.644429404624    -1.295462318787    -0.711174154835
    H           -1.233045702870    -1.539672671558     0.295649834682
    H           -2.301207064162    -0.192190249225     0.607767875193

  Mulliken Charges: (a.u.)
   Center  Symbol    Alpha    Beta     Spin     Total
       1     H     0.39525  0.39525  0.00000  0.20950
       2     O     4.19990  4.19990  0.00000 -0.39980
       3     C     2.97287  2.97287  0.00000  0.05425
       4     C     3.09606  3.09606  0.00000 -0.19212
       5     H     0.47275  0.47275  0.00000  0.05450
       6     H     0.46561  0.46561  0.00000  0.06879
       7     C     3.09580  3.09580  0.00000 -0.19159
       8     H     0.44724  0.44724  0.00000  0.10553
       9     H     0.44683  0.44683  0.00000  0.10634
      10     C     3.14259  3.14259  0.00000 -0.28518
      11     H     0.45681  0.45681  0.00000  0.08639
      12     H     0.44969  0.44969  0.00000  0.10062
      13     H     0.45021  0.45021  0.00000  0.09958
      14     H     0.45488  0.45488  0.00000  0.09025
      15     H     0.45352  0.45352  0.00000  0.09295

   Total alpha = 21.00000, Total beta = 21.00000, Total charge = -0.00000
