  ==> Input File <==

--------------------------------------------------------------------------
set {
	reference rhf
	basis cc-pvtz
}

set_num_threads( 4 )
memory 2 gb

molecule MOL {
0 1

H	 -3.268214	 -0.875720	 0.463107
C	 -2.806015	 0.000007	 0.024886
N	 -1.391133	 0.000016	 0.301321
H	 -3.029448	 0.000055	 -1.045738
H	 -3.268126	 0.875758	 0.463150
C	 -0.722615	 -1.158809	 -0.249845
C	 -1.106287	 0.135471	 1.713428
H	 -1.105143	 -2.085611	 0.187831
H	 -0.911458	 -1.198431	 -1.316078
C	 0.773395	 -1.079910	 -0.009548
H	 -1.575217	 1.040721	 2.080465
H	 -1.514965	 -0.703103	 2.284939
C	 0.389723	 0.214370	 1.953725
H	 1.242325	 -1.985160	 -0.376586
H	 1.182073	 -0.241336	 -0.581059
N	 1.058241	 -0.944455	 1.402559
H	 0.578566	 0.253991	 3.019958
H	 0.772250	 1.141172	 1.516048
C	 2.473123	 -0.944446	 1.678994
H	 2.922824	 -1.855660	 1.304798
H	 2.640735	 -0.904259	 2.748037
H	 2.994797	 -0.098176	 1.223098

	symmetry c1
}
set optking {
	frozen_dihedral = ("
		6 3 2 4
	")
}

ee = optimize('scf')
oeprop('DIPOLE', 'QUADRUPOLE', 'MULLIKEN_CHARGES')
f=open( 'psi4out.xyz', 'w' )
f.write( "22  " )
f.write( str(ee) + "\n" )
f.write( MOL.save_string_xyz() )
f.close()
--------------------------------------------------------------------------

    Molecular point group: c1
  Charge       = 0
  Multiplicity = 1
  Basis Set: CC-PVTZ
  Basis Set:
  @DF-RHF Final Energy:  -344.34997402050976
    Total Energy =                       -344.3499740205093076
    Molecular point group: c1
  Basis Set: CC-PVTZ
  Basis Set:
  Basis Set: CC-PVTZ
  Basis Set:
  @DF-RHF Final Energy:  -344.35062278055665
    Total Energy =                       -344.3506227805568187
  Basis Set: CC-PVTZ
  Basis Set:
  Basis Set: CC-PVTZ
  Basis Set:
  @DF-RHF Final Energy:  -344.35070029123870
    Total Energy =                       -344.3507002912386952
  Basis Set: CC-PVTZ
  Basis Set:
  Charge       = 0
  Multiplicity = 1
  Basis Set: CC-PVTZ
  Basis Set:

    Orbital Energies (a.u.)
    -----------------------

    Doubly Occupied:

       1A    -15.537790     2A    -15.537673     3A    -11.237617
       4A    -11.237598     5A    -11.236964     6A    -11.236954
       7A    -11.234329     8A    -11.234293     9A     -1.257659
      10A     -1.206723    11A     -1.025956    12A     -0.993118
      13A     -0.912220    14A     -0.868186    15A     -0.836346
      16A     -0.755625    17A     -0.667073    18A     -0.638403
      19A     -0.632338    20A     -0.627432    21A     -0.623568
      22A     -0.582705    23A     -0.549845    24A     -0.546693
      25A     -0.542517    26A     -0.517807    27A     -0.496722
      28A     -0.491188    29A     -0.466386    30A     -0.457404
      31A     -0.353045    32A     -0.348020

  @DF-RHF Final Energy:  -344.35070081559314

   => Energetics <=

    Nuclear Repulsion Energy =            422.0470936264787838
    One-Electron Energy =               -1303.0151915053302218
    Two-Electron Energy =                 536.6173970632582950
    DFT Exchange-Correlation Energy =       0.0000000000000000
    Empirical Dispersion Energy =           0.0000000000000000
    PCM Polarization Energy =               0.0000000000000000
    EFP Energy =                            0.0000000000000000
    Total Energy =                       -344.3507008155931999
    Molecular point group: c1
  Basis Set: CC-PVTZ
  Basis Set:

  -Total Gradient:
     Atom            X                  Y                   Z
    ------   -----------------  -----------------  -----------------
       1        0.000020193728    -0.000004146550     0.000004383329
       2       -0.000029555381    -0.000725144219     0.000176048763
       3        0.000130161450     0.000379981768    -0.000426593252
       4        0.000029094814     0.000517477170    -0.000001765579
       5        0.000023775366     0.000006106534     0.000004072874
       6       -0.000087115330    -0.000151822776     0.000288363961
       7       -0.000085924916     0.000015152268     0.000043125472
       8        0.000012333360     0.000010453340     0.000005635006
       9        0.000008351453    -0.000024900028    -0.000017067419
      10       -0.000003282288    -0.000019667048     0.000002892209
      11       -0.000010346387     0.000010014907     0.000015232151
      12       -0.000000973359    -0.000005025868    -0.000010250706
      13       -0.000010596281     0.000009268116    -0.000090420948
      14        0.000007021183    -0.000000372086     0.000006309365
      15       -0.000008729351    -0.000001424709     0.000001938158
      16        0.000016936591    -0.000023929850     0.000012830324
      17       -0.000036399504    -0.000004223266    -0.000018372813
      18        0.000014320282     0.000018767664     0.000004442197
      19        0.000010259164    -0.000009108313    -0.000004489488
      20        0.000002620841     0.000001002636     0.000002306329
      21       -0.000000423943     0.000000290908     0.000001216326
      22       -0.000001721493     0.000001249402     0.000000163742

  **** Optimization is complete! (in 4 steps) ****
    Final optimized geometry and variables:
    Molecular point group: c1

    Geometry (in Angstrom), charge = 0, multiplicity = 1:

    H           -3.154673258976    -0.398207126713    -0.394066200168
    C           -2.641662382345     0.467646329824    -0.821955013290
    N           -1.226294855983     0.472404539414    -0.548332456110
    H           -2.811577645314     0.466052541399    -1.891555984090
    H           -3.098410063521     1.361464179443    -0.415612807958
    C           -0.557463975670    -0.685789944856    -1.100587282975
    C           -0.939374051589     0.604988929100     0.863788584734
    H           -0.938209257287    -1.612512042849    -0.661195525787
    H           -0.748934737357    -0.726772002306    -2.166478223923
    C            0.939069739728    -0.605712826537    -0.863694689771
    H           -1.409081601132     1.508568288006     1.234053719194
    H           -1.345163451656    -0.235763470943     1.434274012412
    C            0.557057441922     0.686093922601     1.101230859332
    H            1.408123305401    -1.510317378415    -1.232428854909
    H            1.345580732546     0.233591501974    -1.435800607853
    N            1.226776622074    -0.470792938205     0.547756444258
    H            0.747648205717     0.725111350448     2.167243969600
    H            0.936931982208     1.614269011478     0.663909014773
    C            2.641976531717    -0.468771869977     0.821562890857
    H            3.092507788829    -1.378941381472     0.445653957933
    H            2.811603801133    -0.429275660653     1.890378177601
    H            3.161683766725     0.378741564521     0.365516653577

  Mulliken Charges: (a.u.)
   Center  Symbol    Alpha    Beta     Spin     Total
       1     H     0.46994  0.46994  0.00000  0.06013
       2     C     3.09846  3.09846  0.00000 -0.19691
       3     N     3.61318  3.61318  0.00000 -0.22636
       4     H     0.45171  0.45171  0.00000  0.09659
       5     H     0.45220  0.45220  0.00000  0.09560
       6     C     3.03569  3.03569  0.00000 -0.07137
       7     C     3.03539  3.03539  0.00000 -0.07078
       8     H     0.46781  0.46781  0.00000  0.06438
       9     H     0.45380  0.45380  0.00000  0.09240
      10     C     3.03543  3.03543  0.00000 -0.07086
      11     H     0.45373  0.45373  0.00000  0.09254
      12     H     0.46814  0.46814  0.00000  0.06371
      13     C     3.03551  3.03551  0.00000 -0.07102
      14     H     0.45378  0.45378  0.00000  0.09244
      15     H     0.46801  0.46801  0.00000  0.06397
      16     N     3.61307  3.61307  0.00000 -0.22613
      17     H     0.45381  0.45381  0.00000  0.09239
      18     H     0.46803  0.46803  0.00000  0.06394
      19     C     3.09842  3.09842  0.00000 -0.19684
      20     H     0.45194  0.45194  0.00000  0.09611
      21     H     0.45194  0.45194  0.00000  0.09612
      22     H     0.47004  0.47004  0.00000  0.05992

   Total alpha = 32.00000, Total beta = 32.00000, Total charge = -0.00000
