  ==> Input File <==

--------------------------------------------------------------------------
set {
	reference rhf
	basis 6-31G*
}

set_num_threads( 4 )
memory 2 gb

molecule MOL {
0 1

H	 -3.161837	 0.500524	 -0.000234
C	 -2.367097	 -0.232926	 -0.000000
O	 -1.158440	 0.455814	 -0.000122
H	 -2.468853	 -0.861886	 -0.882833
H	 -2.468942	 -0.861421	 0.883154
C	 -0.029776	 -0.365156	 0.000148
C	 1.196563	 0.487551	 0.275184
H	 0.067794	 -0.869507	 -0.962146
H	 -0.129937	 -1.140765	 0.760612
C	 2.486051	 -0.332056	 0.293798
H	 1.255098	 1.261355	 -0.484067
H	 1.058837	 0.991976	 1.226649
H	 2.655459	 -0.826258	 -0.658825
H	 3.344354	 0.300946	 0.492468
H	 2.457554	 -1.098135	 1.063678

	symmetry c1
}
set optking {
	frozen_dihedral = ("
		8 6 3 2
	")
}

ee = optimize('scf')
oeprop('DIPOLE', 'QUADRUPOLE', 'MULLIKEN_CHARGES')
f=open( 'psi4out.xyz', 'w' )
f.write( "15  " )
f.write( str(ee) + "\n" )
f.write( MOL.save_string_xyz() )
f.close()
--------------------------------------------------------------------------

    Molecular point group: c1
  Charge       = 0
  Multiplicity = 1
  Basis Set: 6-31G*
  Basis Set:
  @DF-RHF Final Energy:  -232.13912787866940
    Total Energy =                       -232.1391278786695125
    Molecular point group: c1
  Basis Set: 6-31G*
  Basis Set:
  Basis Set: 6-31G*
  Basis Set:
  @DF-RHF Final Energy:  -232.13914359834268
    Total Energy =                       -232.1391435983426277
  Basis Set: 6-31G*
  Basis Set:
  Basis Set: 6-31G*
  Basis Set:
  @DF-RHF Final Energy:  -232.13914792859347
    Total Energy =                       -232.1391479285934452
  Basis Set: 6-31G*
  Basis Set:
  Charge       = 0
  Multiplicity = 1
  Basis Set: 6-31G*
  Basis Set:

    Orbital Energies (a.u.)
    -----------------------

    Doubly Occupied:

       1A    -20.553222     2A    -11.266223     3A    -11.264073
       4A    -11.214102     5A    -11.212858     6A     -1.377952
       7A     -1.057157     8A     -0.955359     9A     -0.877255
      10A     -0.808805    11A     -0.674894    12A     -0.653870
      13A     -0.630263    14A     -0.607238    15A     -0.565569
      16A     -0.541544    17A     -0.502622    18A     -0.489049
      19A     -0.478265    20A     -0.461304    21A     -0.413338

  @DF-RHF Final Energy:  -232.13914804644034

   => Energetics <=

    Nuclear Repulsion Energy =            189.7208592241196072
    One-Electron Energy =                -690.5100937151047447
    Two-Electron Energy =                 268.6500864445449679
    DFT Exchange-Correlation Energy =       0.0000000000000000
    Empirical Dispersion Energy =           0.0000000000000000
    PCM Polarization Energy =               0.0000000000000000
    EFP Energy =                            0.0000000000000000
    Total Energy =                       -232.1391480464401411
    Molecular point group: c1
  Basis Set: 6-31G*
  Basis Set:

  -Total Gradient:
     Atom            X                  Y                   Z
    ------   -----------------  -----------------  -----------------
       1        0.000004117108     0.000003353990    -0.000003027077
       2       -0.000011875983    -0.000003956073     0.001304965751
       3        0.000270864177     0.000297998358    -0.001976580482
       4        0.000004102869     0.000004012578    -0.000000164390
       5        0.000000321047    -0.000000977273    -0.000002019227
       6       -0.001156365919    -0.001542571380     0.001202254235
       7        0.000003228091     0.000005708436     0.000016084740
       8        0.000885779850     0.001214474100    -0.000541895481
       9       -0.000009461652     0.000016098957    -0.000001982406
      10        0.000004256382     0.000001695303    -0.000013212768
      11        0.000004666908     0.000004221013     0.000004254799
      12        0.000001110396     0.000003212990     0.000005542679
      13       -0.000004799503    -0.000006024523     0.000003398233
      14       -0.000001869304     0.000001105207    -0.000004005721
      15        0.000005925532     0.000001648316     0.000006387115

  **** Optimization is complete! (in 4 steps) ****
    Final optimized geometry and variables:
    Molecular point group: c1

    Geometry (in Angstrom), charge = 0, multiplicity = 1:

    H           -3.154818184131     0.515773967870    -0.133432973912
    C           -2.363239895489    -0.221046028318    -0.120286157739
    O           -1.151596687926     0.462574747974    -0.111137444841
    H           -2.459864839062    -0.855078131523    -1.000210582446
    H           -2.475901365348    -0.843341838846     0.765671153394
    C           -0.023865757283    -0.360742983787    -0.099421856576
    C            1.202507796557     0.495040765384     0.169647503111
    H            0.079470384298    -0.866059865361    -1.060382051002
    H           -0.123824439461    -1.129078510917     0.667446613900
    C            2.494921627870    -0.320244090807     0.173053685027
    H            1.251864721669     1.272076062755    -0.587012898326
    H            1.071546022641     0.995392374710     1.124246106900
    H            2.656737448238    -0.810372071450    -0.782956252299
    H            3.353133345781     0.314760033534     0.365793648355
    H            2.476531366607    -1.089480914826     0.940210485545

  Mulliken Charges: (a.u.)
   Center  Symbol    Alpha    Beta     Spin     Total
       1     H     0.41229  0.41229  0.00000  0.17541
       2     C     3.07928  3.07928  0.00000 -0.15856
       3     O     4.30605  4.30605  0.00000 -0.61210
       4     H     0.43066  0.43066  0.00000  0.13867
       5     H     0.43013  0.43013  0.00000  0.13974
       6     C     2.98151  2.98151  0.00000  0.03698
       7     C     3.15967  3.15967  0.00000 -0.31934
       8     H     0.43240  0.43240  0.00000  0.13520
       9     H     0.43375  0.43375  0.00000  0.13250
      10     C     3.24796  3.24796  0.00000 -0.49593
      11     H     0.41388  0.41388  0.00000  0.17223
      12     H     0.41514  0.41514  0.00000  0.16971
      13     H     0.42070  0.42070  0.00000  0.15860
      14     H     0.41543  0.41543  0.00000  0.16914
      15     H     0.42114  0.42114  0.00000  0.15773

   Total alpha = 21.00000, Total beta = 21.00000, Total charge = -0.00000
