                              Psi4 1.0.54 Driver

  ==> Input File <==

--------------------------------------------------------------------------
set {
	reference rhf
	basis cc-pvtz
}

set_num_threads( 4 )
memory 2 gb

molecule MOL {
0 1

H	 -5.515171	 -1.672579	 3.154131
O	 -5.282114	 -1.883693	 4.038973
C	 -4.329927	 -2.914355	 4.057655
C	 -2.946546	 -2.470238	 3.606323
H	 -4.283820	 -3.255340	 5.083122
H	 -4.668021	 -3.754310	 3.453819
C	 -2.870549	 -2.047505	 2.140932
H	 -2.622853	 -1.650562	 4.240760
H	 -2.258254	 -3.294125	 3.779136
C	 -1.460625	 -1.639970	 1.715649
H	 -3.552455	 -1.221139	 1.970271
H	 -3.209683	 -2.868345	 1.511253
C	 -1.311023	 -1.277304	 0.237018
H	 -1.132051	 -0.801999	 2.325625
H	 -0.782750	 -2.459347	 1.938305
C	 -2.041121	 -0.006551	 -0.194127
H	 -0.252967	 -1.157892	 0.020719
H	 -1.650561	 -2.111543	 -0.372829
C	 -3.489218	 0.042606	 0.286507
H	 -2.022185	 0.066287	 -1.279394
H	 -1.518764	 0.869305	 0.178730
C	 -4.219984	 1.311773	 -0.139038
H	 -4.022855	 -0.824300	 -0.093339
H	 -3.510372	 -0.038577	 1.370031
H	 -4.244251	 1.405725	 -1.219696
H	 -5.244345	 1.313233	 0.215630
H	 -3.732090	 2.196311	 0.257073

	symmetry c1
}
set optking {
	frozen_dihedral = ("
		10 13 16 20
	")
}

ee,wfn = optimize('scf', return_wfn=True)
oeprop( wfn, 'DIPOLE', 'QUADRUPOLE', 'MULLIKEN_CHARGES')
f=open( 'psi4out.xyz', 'w' )
f.write( "27  " )
f.write( str(ee) + "\n" )
f.write( MOL.save_string_xyz() )
f.close()
--------------------------------------------------------------------------

    Molecular point group: c1
  Charge       = 0
  Multiplicity = 1
  Basis Set: CC-PVTZ
  Basis Set:
  @DF-RHF Final Energy:  -388.39703822326015
    Total Energy =                       -388.3970382232598695
    Molecular point group: c1
  Basis Set: CC-PVTZ
  Basis Set:
  Basis Set: CC-PVTZ
  Basis Set:
  @DF-RHF Final Energy:  -388.12031463021628
    Total Energy =                       -388.1203146302166260
  Basis Set: CC-PVTZ
  Basis Set:
  Basis Set: CC-PVTZ
  Basis Set:
  @DF-RHF Final Energy:  -388.27669083693200
    Total Energy =                       -388.2766908369317207
  Basis Set: CC-PVTZ
  Basis Set:
  Basis Set: CC-PVTZ
  Basis Set:
  @DF-RHF Final Energy:  -388.40215825265824
    Total Energy =                       -388.4021582526582961
  Basis Set: CC-PVTZ
  Basis Set:
  @DF-RHF Final Energy:  -388.41869893140239
    Total Energy =                       -388.4186989314021048
  @DF-RHF Final Energy:  -388.00301544602848
    Total Energy =                       -388.0030154460279164
  @DF-RHF Final Energy:  -388.14684554496540
    Total Energy =                       -388.1468455449654584
  @DF-RHF Final Energy:  -388.35160370786008
    Total Energy =                       -388.3516037078593399
  @DF-RHF Final Energy:  -388.41522488219562
    Total Energy =                       -388.4152248821957301
  @DF-RHF Final Energy:  -388.41980014434756
    Total Energy =                       -388.4198001443476187
  @DF-RHF Final Energy:  -388.40074709017870
    Total Energy =                       -388.4007470901792658
  @DF-RHF Final Energy:  -388.42154435473452
    Total Energy =                       -388.4215443547354880
  @DF-RHF Final Energy:  -388.42210916440035
    Total Energy =                       -388.4221091644000126
  Basis Set: CC-PVTZ
  Basis Set:
  @DF-RHF Final Energy:  -388.42214120921841
    Total Energy =                       -388.4221412092182391
  Basis Set: CC-PVTZ
  Basis Set:
  Basis Set: CC-PVTZ
  Basis Set:
  @DF-RHF Final Energy:  -388.42216352715781
    Total Energy =                       -388.4221635271576361
  Basis Set: CC-PVTZ
  Basis Set:
  Basis Set: CC-PVTZ
  Basis Set:
  @DF-RHF Final Energy:  -388.42216695581448
    Total Energy =                       -388.4221669558147596
  Basis Set: CC-PVTZ
  Basis Set:
  Charge       = 0
  Multiplicity = 1
  Basis Set: CC-PVTZ
  Basis Set:

    Orbital Energies (a.u.)
    -----------------------

    Doubly Occupied:

       1A    -20.545338     2A    -11.264942     3A    -11.216051
       4A    -11.214646     5A    -11.213871     6A    -11.213681
       7A    -11.212943     8A    -11.212669     9A    -11.207002
      10A     -1.363173    11A     -1.094894    12A     -1.060918
      13A     -1.010757    14A     -0.951599    15A     -0.886422
      16A     -0.832354    17A     -0.795429    18A     -0.773183
      19A     -0.696509    20A     -0.653734    21A     -0.631597
      22A     -0.619918    23A     -0.602449    24A     -0.587989
      25A     -0.574872    26A     -0.564498    27A     -0.540663
      28A     -0.516401    29A     -0.504965    30A     -0.503376
      31A     -0.488523    32A     -0.479255    33A     -0.469896
      34A     -0.455934    35A     -0.445168    36A     -0.443363
      37A     -0.425112

  @DF-RHF Final Energy:  -388.42216756243499

   => Energetics <=

    Nuclear Repulsion Energy =            470.8670953880047136
    One-Electron Energy =               -1460.0303354117022536
    Two-Electron Energy =                 600.7410724612630020
    DFT Exchange-Correlation Energy =       0.0000000000000000
    Empirical Dispersion Energy =           0.0000000000000000
    PCM Polarization Energy =               0.0000000000000000
    EFP Energy =                            0.0000000000000000
    Total Energy =                       -388.4221675624345380
    Molecular point group: c1
  Basis Set: CC-PVTZ
  Basis Set:

  -Total Gradient:
     Atom            X                  Y                   Z
    ------   -----------------  -----------------  -----------------
       1       -0.000002583624    -0.000009042841     0.000006450826
       2        0.000016786671    -0.000018881281    -0.000037119528
       3       -0.000007160680     0.000036084251     0.000041515670
       4        0.000005061809    -0.000021340789    -0.000020330359
       5        0.000005942179     0.000015492237     0.000019802757
       6       -0.000008317098    -0.000007420002    -0.000012356294
       7       -0.000022322223     0.000018608546     0.000016360312
       8       -0.000001363026     0.000002208572     0.000000308040
       9       -0.000005454615    -0.000006102199     0.000001774848
      10        0.000394685795    -0.002918750650     0.001154300192
      11       -0.000005132555     0.000017058235    -0.000009673438
      12        0.000020004247    -0.000001118204     0.000000794390
      13       -0.000620780453     0.003367612909    -0.001330694410
      14       -0.000010086886    -0.000002982801    -0.000004961921
      15       -0.000012444128     0.000000122660     0.000009559209
      16        0.000426111584     0.003358975806    -0.001455607858
      17        0.000001290897    -0.000000540409    -0.000016125551
      18        0.000014251804    -0.000004087515    -0.000007020394
      19       -0.000017504504    -0.000018385209     0.000001392465
      20       -0.000164032400    -0.003841400132     0.001626450391
      21       -0.000004265414    -0.000011331974     0.000013534223
      22        0.000006125197     0.000022517327    -0.000007096433
      23        0.000000756789     0.000032514133    -0.000008442233
      24       -0.000017331770    -0.000000731555     0.000009365480
      25        0.000000308446    -0.000003370499    -0.000004439450
      26        0.000002323281     0.000003010812     0.000005317755
      27        0.000005130678    -0.000008719430     0.000006941311

  **** Optimization is complete! (in 17 steps) ****
    Final optimized geometry and variables:
    Molecular point group: c1

    Geometry (in Angstrom), charge = 0, multiplicity = 1:

    H           -1.033619589568    -2.184838793519     1.908105242296
    O           -1.814240665173    -1.806512178949     2.267448286245
    C           -1.518738625035    -0.585595821870     2.893122671118
    C           -1.207177619722     0.536609021577     1.914316415247
    H           -2.396590131115    -0.329298463770     3.470754997146
    H           -0.696002863698    -0.708412041344     3.594745796076
    C            0.063409489869     0.319030770554     1.096193224020
    H           -2.055702618352     0.658400149299     1.247742757862
    H           -1.116807025720     1.459887944819     2.481710605466
    C            0.381035174832     1.495657820444     0.173014087925
    H           -0.031573060190    -0.589979307212     0.514504127291
    H            0.903753081956     0.169054002121     1.771232712670
    C            1.649285850710     1.332192898482    -0.681315823676
    H           -0.473254161103     1.695293188324    -0.468704402579
    H            0.494301650447     2.379405410797     0.793818298905
    C            1.467846486230     0.742908472813    -2.086806745057
    H            2.122906172309     2.301044947659    -0.797583961957
    H            2.361100119645     0.721295441509    -0.131231038438
    C            0.653775371617    -0.546563425256    -2.191225987350
    H            2.456027090095     0.527618231753    -2.484534116203
    H            1.020013582920     1.492079504393    -2.734379224579
    C            0.591408616690    -1.076705632536    -3.620583826111
    H            1.092602543506    -1.305321017639    -1.549038268131
    H           -0.356749994295    -0.384504235121    -1.832464425773
    H            1.583693311115    -1.291676538380    -4.003030566588
    H            0.010587736608    -1.990259837783    -3.675629293309
    H            0.132368175399    -0.352928031442    -4.285871633143

  Mulliken Charges: (a.u.)
   Center  Symbol    Alpha    Beta     Spin     Total
       1     H     0.39204  0.39204  0.00000  0.21592
       2     O     4.20560  4.20560  0.00000 -0.41121
       3     C     2.97976  2.97976  0.00000  0.04049
       4     C     3.09057  3.09057  0.00000 -0.18113
       5     H     0.44865  0.44865  0.00000  0.10269
       6     H     0.46931  0.46931  0.00000  0.06137
       7     C     3.10357  3.10357  0.00000 -0.20713
       8     H     0.45101  0.45101  0.00000  0.09799
       9     H     0.45458  0.45458  0.00000  0.09084
      10     C     3.10729  3.10729  0.00000 -0.21457
      11     H     0.45297  0.45297  0.00000  0.09407
      12     H     0.45192  0.45192  0.00000  0.09615
      13     C     3.10334  3.10334  0.00000 -0.20668
      14     H     0.44973  0.44973  0.00000  0.10054
      15     H     0.44423  0.44423  0.00000  0.11155
      16     C     3.08833  3.08833  0.00000 -0.17665
      17     H     0.44286  0.44286  0.00000  0.11428
      18     H     0.45521  0.45521  0.00000  0.08957
      19     C     3.09305  3.09305  0.00000 -0.18611
      20     H     0.45041  0.45041  0.00000  0.09919
      21     H     0.45245  0.45245  0.00000  0.09510
      22     C     3.15102  3.15102  0.00000 -0.30205
      23     H     0.45497  0.45497  0.00000  0.09005
      24     H     0.44969  0.44969  0.00000  0.10062
      25     H     0.45479  0.45479  0.00000  0.09042
      26     H     0.44784  0.44784  0.00000  0.10432
      27     H     0.45483  0.45483  0.00000  0.09034

   Total alpha = 37.00000, Total beta = 37.00000, Total charge = -0.00000

*** Psi4 exiting successfully. Buy a developer a beer!
