  ==> Input File <==

--------------------------------------------------------------------------
set {
	reference rhf
	basis 6-31G*
}

set_num_threads( 4 )
memory 2 gb

molecule MOL {
0 1

O	 -1.276010	 1.052711	 -0.768302
C	 -1.204840	 0.067374	 -0.106123
C	 -2.388195	 -0.672128	 0.458071
O	 -0.067104	 -0.527208	 0.221609
H	 -2.388023	 -1.694060	 0.097175
H	 -3.300579	 -0.174919	 0.164318
H	 -2.315377	 -0.706351	 1.539059
C	 1.170111	 0.034140	 -0.238951
C	 1.035814	 1.536782	 -0.066850
C	 1.417073	 -0.380473	 -1.681086
H	 1.961308	 -0.345153	 0.390851
H	 0.845123	 1.787862	 0.970378
H	 1.950302	 2.031701	 -0.376847
H	 0.217742	 1.919927	 -0.667360
H	 2.340623	 0.060048	 -2.043043
H	 1.501962	 -1.456680	 -1.762014
H	 0.604984	 -0.042746	 -2.317057

	symmetry c1
}
set optking {
	frozen_dihedral = ("
		11 8 4 2
	")
}

ee = optimize('scf')
oeprop('DIPOLE', 'QUADRUPOLE', 'MULLIKEN_CHARGES')
f=open( 'psi4out.xyz', 'w' )
f.write( "17  " )
f.write( str(ee) + "\n" )
f.write( MOL.save_string_xyz() )
f.close()
--------------------------------------------------------------------------

    Molecular point group: c1
  Charge       = 0
  Multiplicity = 1
  Basis Set: 6-31G*
  Basis Set:
  @DF-RHF Final Energy:  -344.88521000000759
    Total Energy =                       -344.8852100000073051
    Molecular point group: c1
  Basis Set: 6-31G*
  Basis Set:
  Basis Set: 6-31G*
  Basis Set:
  @DF-RHF Final Energy:  -344.90401089117563
    Total Energy =                       -344.9040108911756306
  Basis Set: 6-31G*
  Basis Set:
  Basis Set: 6-31G*
  Basis Set:
  @DF-RHF Final Energy:  -344.90763075582942
    Total Energy =                       -344.9076307558292456
  Basis Set: 6-31G*
  Basis Set:
  Basis Set: 6-31G*
  Basis Set:
  @DF-RHF Final Energy:  -344.90698494374533
    Total Energy =                       -344.9069849437452717
  Basis Set: 6-31G*
  Basis Set:
  @DF-RHF Final Energy:  -344.90831371400873
    Total Energy =                       -344.9083137140089548
  Basis Set: 6-31G*
  Basis Set:
  @DF-RHF Final Energy:  -344.90861671100043
    Total Energy =                       -344.9086167110002634
  Basis Set: 6-31G*
  Basis Set:
  Basis Set: 6-31G*
  Basis Set:
  @DF-RHF Final Energy:  -344.90862901318440
    Total Energy =                       -344.9086290131841110
  Basis Set: 6-31G*
  Basis Set:
  Basis Set: 6-31G*
  Basis Set:
  @DF-RHF Final Energy:  -344.90863011659934
    Total Energy =                       -344.9086301165993973
  Basis Set: 6-31G*
  Basis Set:
  Charge       = 0
  Multiplicity = 1
  Basis Set: 6-31G*
  Basis Set:

    Orbital Energies (a.u.)
    -----------------------

    Doubly Occupied:

       1A    -20.596929     2A    -20.541371     3A    -11.374627
       4A    -11.294590     5A    -11.230808     6A    -11.216315
       7A    -11.213313     8A     -1.461733     9A     -1.360803
      10A     -1.076575    11A     -1.003066    12A     -0.946089
      13A     -0.866801    14A     -0.731952    15A     -0.694224
      16A     -0.670300    17A     -0.658927    18A     -0.615517
      19A     -0.584924    20A     -0.580216    21A     -0.568786
      22A     -0.551838    23A     -0.529189    24A     -0.518525
      25A     -0.499231    26A     -0.482224    27A     -0.444486
      28A     -0.428323

  @DF-RHF Final Energy:  -344.90863029414851

   => Energetics <=

    Nuclear Repulsion Energy =            326.4409312879473077
    One-Electron Energy =               -1117.2157624227870656
    Two-Electron Energy =                 445.8662008406915902
    DFT Exchange-Correlation Energy =       0.0000000000000000
    Empirical Dispersion Energy =           0.0000000000000000
    PCM Polarization Energy =               0.0000000000000000
    EFP Energy =                            0.0000000000000000
    Total Energy =                       -344.9086302941482245
    Molecular point group: c1
  Basis Set: 6-31G*
  Basis Set:

  -Total Gradient:
     Atom            X                  Y                   Z
    ------   -----------------  -----------------  -----------------
       1       -0.000005335487     0.000005268666     0.000004688173
       2        0.000103797801     0.002384278081     0.003734801006
       3        0.000005429879     0.000046045416     0.000055025884
       4       -0.000260490522    -0.003047236768    -0.005179769797
       5       -0.000001236705    -0.000004344605    -0.000020394529
       6       -0.000001073580    -0.000004903353    -0.000000567832
       7       -0.000003032802    -0.000021142327    -0.000003353179
       8        0.000879561411    -0.002904604359    -0.001568154603
       9       -0.000066160578     0.000000899686     0.000005512877
      10        0.000059949494    -0.000000783872     0.000019085944
      11       -0.000734407021     0.003536232486     0.002963262387
      12        0.000007765481    -0.000005001818     0.000003621246
      13        0.000015123939    -0.000000973680     0.000000315289
      14        0.000005729616     0.000010281246    -0.000010637228
      15       -0.000001200504    -0.000004081018    -0.000008190640
      16        0.000002396237     0.000004244739    -0.000000325554
      17       -0.000006816659     0.000005821479     0.000005080557

  **** Optimization is complete! (in 9 steps) ****
    Final optimized geometry and variables:
    Molecular point group: c1

    Geometry (in Angstrom), charge = 0, multiplicity = 1:

    O           -1.263096618257     0.756411504193    -0.558829630496
    C           -1.078419011726    -0.151311176411     0.186770749763
    C           -2.174140742964    -0.896100971076     0.903776701080
    O            0.106906920241    -0.659255293117     0.484688522406
    H           -2.128179353901    -1.948760022851     0.649957452169
    H           -3.133626034653    -0.488314531413     0.622482492024
    H           -2.033835536069    -0.811113884541     1.975255055618
    C            1.345945812239    -0.057003115846     0.070270718261
    C            1.404760749520     1.451410280973     0.292589069547
    C            1.676849994134    -0.475385174909    -1.352479638481
    H            2.045899678983    -0.497998938500     0.766923188356
    H            1.051629166222     1.703491068123     1.287146963365
    H            2.442296321811     1.764139867622     0.221096547995
    H            0.823542320232     2.001150904042    -0.431183301228
    H            2.671634745819    -0.132941965224    -1.619408203660
    H            1.651923107456    -1.555322167487    -1.446471417384
    H            0.967799501999    -0.047550296794    -2.050853233670

  Mulliken Charges: (a.u.)
   Center  Symbol    Alpha    Beta     Spin     Total
       1     O     4.28640  4.28640  0.00000 -0.57280
       2     C     2.61505  2.61505  0.00000  0.76990
       3     C     3.28064  3.28064  0.00000 -0.56127
       4     O     4.32090  4.32090  0.00000 -0.64181
       5     H     0.40082  0.40082  0.00000  0.19835
       6     H     0.39800  0.39800  0.00000  0.20400
       7     H     0.40194  0.40194  0.00000  0.19613
       8     C     2.91408  2.91408  0.00000  0.17184
       9     C     3.25826  3.25826  0.00000 -0.51651
      10     C     3.25101  3.25101  0.00000 -0.50201
      11     H     0.40989  0.40989  0.00000  0.18023
      12     H     0.41565  0.41565  0.00000  0.16871
      13     H     0.41970  0.41970  0.00000  0.16059
      14     H     0.39327  0.39327  0.00000  0.21347
      15     H     0.41874  0.41874  0.00000  0.16252
      16     H     0.41308  0.41308  0.00000  0.17385
      17     H     0.40259  0.40259  0.00000  0.19483

   Total alpha = 28.00000, Total beta = 28.00000, Total charge =  0.00000
