                              Psi4 1.0.54 Driver

  ==> Input File <==

--------------------------------------------------------------------------
set {
	reference rhf
	basis cc-pvtz
}

set_num_threads( 4 )
memory 2 gb

molecule MOL {
0 1

H	 -3.436473	 1.252944	 -1.023892
O	 -3.458596	 0.315260	 -0.960865
C	 -3.176635	 -0.080824	 0.355601
C	 -1.763371	 0.265266	 0.799691
H	 -3.321825	 -1.153438	 0.379502
H	 -3.895468	 0.357385	 1.043382
C	 -0.673390	 -0.426948	 -0.013392
H	 -1.631049	 1.344913	 0.747560
H	 -1.664587	 -0.001624	 1.849167
C	 0.737842	 -0.043159	 0.423759
H	 -0.806103	 -0.190518	 -1.063345
H	 -0.797221	 -1.503753	 0.074146
C	 1.824000	 -0.743224	 -0.390623
H	 0.850588	 1.033777	 0.343840
H	 0.868587	 -0.286314	 1.476203
C	 3.255957	 -0.453067	 0.062319
H	 1.718250	 -0.470599	 -1.438164
H	 1.658105	 -1.815850	 -0.339904
C	 4.181631	 -1.667242	 0.069447
H	 3.220886	 -0.037591	 1.064778
H	 3.682226	 0.320929	 -0.570646
H	 3.777752	 -2.460734	 0.690196
H	 5.156760	 -1.404856	 0.463807
H	 4.331262	 -2.069481	 -0.925248

	symmetry c1
}
set optking {
	frozen_dihedral = ("
		20 16 13 17
	")
}

ee,wfn = optimize('scf', return_wfn=True)
oeprop( wfn, 'DIPOLE', 'QUADRUPOLE', 'MULLIKEN_CHARGES')
f=open( 'psi4out.xyz', 'w' )
f.write( "24  " )
f.write( str(ee) + "\n" )
f.write( MOL.save_string_xyz() )
f.close()
--------------------------------------------------------------------------

    Molecular point group: c1
  Charge       = 0
  Multiplicity = 1
  Basis Set: CC-PVTZ
  Basis Set:
  @DF-RHF Final Energy:  -349.37738159307770
    Total Energy =                       -349.3773815930780984
    Molecular point group: c1
  Basis Set: CC-PVTZ
  Basis Set:
  Basis Set: CC-PVTZ
  Basis Set:
  @DF-RHF Final Energy:  -349.37809601898959
    Total Energy =                       -349.3780960189892539
  Basis Set: CC-PVTZ
  Basis Set:
  Basis Set: CC-PVTZ
  Basis Set:
  @DF-RHF Final Energy:  -349.37815914571388
    Total Energy =                       -349.3781591457137665
  Basis Set: CC-PVTZ
  Basis Set:
  Basis Set: CC-PVTZ
  Basis Set:
  @DF-RHF Final Energy:  -349.37816216910483
    Total Energy =                       -349.3781621691041437
  Basis Set: CC-PVTZ
  Basis Set:
  Basis Set: CC-PVTZ
  Basis Set:
  @DF-RHF Final Energy:  -349.37816336589373
    Total Energy =                       -349.3781633658941246
  Basis Set: CC-PVTZ
  Basis Set:
  Charge       = 0
  Multiplicity = 1
  Basis Set: CC-PVTZ
  Basis Set:

    Orbital Energies (a.u.)
    -----------------------

    Doubly Occupied:

       1A    -20.546311     2A    -11.265531     3A    -11.215214
       4A    -11.211403     5A    -11.210746     6A    -11.209069
       7A    -11.208821     8A    -11.205843     9A     -1.364164
      10A     -1.089084    11A     -1.049135    12A     -0.989111
      13A     -0.914753    14A     -0.843162    15A     -0.798543
      16A     -0.788340    17A     -0.681687    18A     -0.656952
      19A     -0.629233    20A     -0.616110    21A     -0.593258
      22A     -0.587835    23A     -0.554342    24A     -0.538853
      25A     -0.529939    26A     -0.503936    27A     -0.495663
      28A     -0.474134    29A     -0.465713    30A     -0.460516
      31A     -0.456939    32A     -0.454453    33A     -0.420222

  @DF-RHF Final Energy:  -349.37816347223736

   => Energetics <=

    Nuclear Repulsion Energy =            381.0423127478330798
    One-Electron Energy =               -1228.7829241739482313
    Two-Electron Energy =                 498.3624479538781316
    DFT Exchange-Correlation Energy =       0.0000000000000000
    Empirical Dispersion Energy =           0.0000000000000000
    PCM Polarization Energy =               0.0000000000000000
    EFP Energy =                            0.0000000000000000
    Total Energy =                       -349.3781634722370200
    Molecular point group: c1
  Basis Set: CC-PVTZ
  Basis Set:

  -Total Gradient:
     Atom            X                  Y                   Z
    ------   -----------------  -----------------  -----------------
       1        0.000000338518    -0.000004375608     0.000000624173
       2        0.000002802067     0.000001809345    -0.000000798795
       3       -0.000005275602     0.000003781794     0.000003159797
       4        0.000008284582    -0.000004677348    -0.000001117039
       5        0.000001927635     0.000004143158     0.000000548440
       6        0.000001431348    -0.000002307391    -0.000002515646
       7        0.000008326254     0.000015953163    -0.000008493276
       8       -0.000002881969    -0.000005949665    -0.000001426564
       9        0.000002382325     0.000000757458    -0.000003098337
      10       -0.000020822434    -0.000002521082     0.000014617841
      11       -0.000006503978    -0.000001485727    -0.000001875922
      12        0.000002150011     0.000007885205     0.000003777174
      13        0.001407492521    -0.003710638644    -0.001542399420
      14       -0.000007069682    -0.000006254040     0.000002220704
      15       -0.000002868605    -0.000010286308    -0.000004059390
      16        0.000209170012    -0.003660341154     0.002298027395
      17       -0.001215646289     0.003709227667     0.000937902246
      18        0.000012853217     0.000011148791     0.000004681784
      19       -0.000006742284     0.000020476744     0.000000021029
      20       -0.000395529605     0.003616778562    -0.001690751505
      21        0.000014336434     0.000006518298    -0.000016779562
      22        0.000002946537     0.000008811269    -0.000000509331
      23       -0.000013550775    -0.000007590283    -0.000005273626
      24        0.000002449764     0.000009135797     0.000013517831

  **** Optimization is complete! (in 6 steps) ****
    Final optimized geometry and variables:
    Molecular point group: c1

    Geometry (in Angstrom), charge = 0, multiplicity = 1:

    H           -3.380944871238     1.755574208625    -1.128864774857
    O           -3.460437904254     0.820766907187    -1.069799070810
    C           -3.240826310345     0.406550318134     0.252872675775
    C           -1.822724389539     0.666656428191     0.738330612400
    H           -3.450561707438    -0.655482964468     0.268763361432
    H           -3.951797103597     0.885798567265     0.921175024088
    C           -0.752907892764    -0.086675186042    -0.046820554851
    H           -1.624928983986     1.736637866228     0.694768395534
    H           -1.769890689766     0.391509081458     1.788950828035
    C            0.664981328952     0.211416110960     0.430852283755
    H           -0.842467465484     0.159006214739    -1.099189470436
    H           -0.942118485060    -1.154697228382     0.033400499709
    C            1.738442858462    -0.556638982625    -0.339082381086
    H            0.857229727717     1.278611057326     0.341999386870
    H            0.748208114032    -0.023629434826     1.489549387984
    C            3.168917318670    -0.200041864912     0.097672743837
    H            1.615452719593    -0.330965960043    -1.394063569419
    H            1.566329598474    -1.622132801375    -0.219656263538
    C            4.129863518059    -1.382915959372     0.085207193672
    H            3.148064233621     0.255597633870     1.083064440470
    H            3.555267953275     0.574682289764    -0.558439577452
    H            3.810711105085    -2.152241915718     0.780502019215
    H            5.133046599260    -1.079701384758     0.362717978326
    H            4.181142905837    -1.832676724096    -0.901002090679

  Mulliken Charges: (a.u.)
   Center  Symbol    Alpha    Beta     Spin     Total
       1     H     0.39531  0.39531  0.00000  0.20937
       2     O     4.20370  4.20370  0.00000 -0.40740
       3     C     2.97776  2.97776  0.00000  0.04447
       4     C     3.10222  3.10222  0.00000 -0.20444
       5     H     0.45889  0.45889  0.00000  0.08222
       6     H     0.46026  0.46026  0.00000  0.07949
       7     C     3.08863  3.08863  0.00000 -0.17726
       8     H     0.45903  0.45903  0.00000  0.08194
       9     H     0.45333  0.45333  0.00000  0.09335
      10     C     3.08962  3.08962  0.00000 -0.17924
      11     H     0.44650  0.44650  0.00000  0.10700
      12     H     0.45519  0.45519  0.00000  0.08962
      13     C     3.08909  3.08909  0.00000 -0.17817
      14     H     0.45461  0.45461  0.00000  0.09078
      15     H     0.45597  0.45597  0.00000  0.08806
      16     C     3.08648  3.08648  0.00000 -0.17296
      17     H     0.45275  0.45275  0.00000  0.09450
      18     H     0.45440  0.45440  0.00000  0.09121
      19     C     3.14802  3.14802  0.00000 -0.29603
      20     H     0.45511  0.45511  0.00000  0.08979
      21     H     0.45342  0.45342  0.00000  0.09315
      22     H     0.45594  0.45594  0.00000  0.08812
      23     H     0.44967  0.44967  0.00000  0.10066
      24     H     0.45411  0.45411  0.00000  0.09177

   Total alpha = 33.00000, Total beta = 33.00000, Total charge = -0.00000

*** Psi4 exiting successfully. Buy a developer a beer!
