                              Psi4 1.0.54 Driver

  ==> Input File <==

--------------------------------------------------------------------------
set {
	reference rhf
	basis cc-pvtz
}

set_num_threads( 4 )
memory 2 gb

molecule MOL {
0 1

H	 -4.024094	 -0.454727	 0.000004
C	 -2.962215	 -0.297920	 0.000004
C	 -2.454736	 0.988978	 0.000025
C	 -2.105837	 -1.382632	 -0.000016
H	 -3.120052	 1.830438	 0.000041
C	 -1.090106	 1.189676	 0.000026
H	 -2.500390	 -2.380229	 -0.000033
C	 -0.739175	 -1.183302	 -0.000016
H	 -0.680214	 2.179144	 0.000042
C	 -0.227341	 0.104540	 0.000006
H	 -0.073209	 -2.021168	 -0.000032
C	 1.238974	 0.374429	 0.000004
O	 1.558251	 1.502121	 -0.606924
O	 2.041925	 -0.345186	 0.492552
C	 2.929890	 1.842243	 -0.656747
H	 3.330719	 1.949836	 0.339816
H	 2.982764	 2.780776	 -1.183955
H	 3.489873	 1.084801	 -1.184098

	symmetry c1
}
set optking {
	frozen_dihedral = ("
		13 12 10 6
	")
}

ee,wfn = optimize('scf', return_wfn=True)
oeprop( wfn, 'DIPOLE', 'QUADRUPOLE', 'MULLIKEN_CHARGES')
f=open( 'psi4out.xyz', 'w' )
f.write( "18  " )
f.write( str(ee) + "\n" )
f.write( MOL.save_string_xyz() )
f.close()
--------------------------------------------------------------------------

    Molecular point group: c1
  Charge       = 0
  Multiplicity = 1
  Basis Set: CC-PVTZ
  Basis Set:
  @DF-RHF Final Energy:  -457.50686312024624
    Total Energy =                       -457.5068631202457254
    Molecular point group: c1
  Basis Set: CC-PVTZ
  Basis Set:
  Basis Set: CC-PVTZ
  Basis Set:
  @DF-RHF Final Energy:  -457.50747586618621
    Total Energy =                       -457.5074758661864962
  Basis Set: CC-PVTZ
  Basis Set:
  Basis Set: CC-PVTZ
  Basis Set:
  @DF-RHF Final Energy:  -457.50810804183180
    Total Energy =                       -457.5081080418315196
  Basis Set: CC-PVTZ
  Basis Set:
  Basis Set: CC-PVTZ
  Basis Set:
  @DF-RHF Final Energy:  -457.50821285388798
    Total Energy =                       -457.5082128538886082
  Basis Set: CC-PVTZ
  Basis Set:
  Basis Set: CC-PVTZ
  Basis Set:
  @DF-RHF Final Energy:  -457.50822142751872
    Total Energy =                       -457.5082214275187198
  Basis Set: CC-PVTZ
  Basis Set:
  Charge       = 0
  Multiplicity = 1
  Basis Set: CC-PVTZ
  Basis Set:

    Orbital Energies (a.u.)
    -----------------------

    Doubly Occupied:

       1A    -20.601641     2A    -20.535783     3A    -11.372062
       4A    -11.281437     5A    -11.245954     6A    -11.242975
       7A    -11.242497     8A    -11.240586     9A    -11.236635
      10A    -11.235915    11A     -1.477411    12A     -1.369340
      13A     -1.171200    14A     -1.052178    15A     -1.029383
      16A     -0.980908    17A     -0.863184    18A     -0.839607
      19A     -0.781789    20A     -0.744071    21A     -0.688029
      22A     -0.682057    23A     -0.678078    24A     -0.633605
      25A     -0.631539    26A     -0.601000    27A     -0.589859
      28A     -0.561531    29A     -0.533863    30A     -0.520157
      31A     -0.510432    32A     -0.503622    33A     -0.463711
      34A     -0.449927    35A     -0.349665    36A     -0.346640

  @DF-RHF Final Energy:  -457.50822327627424

   => Energetics <=

    Nuclear Repulsion Energy =            493.8075938500081179
    One-Electron Energy =               -1602.0550968771358384
    Two-Electron Energy =                 650.7392797508539388
    DFT Exchange-Correlation Energy =       0.0000000000000000
    Empirical Dispersion Energy =           0.0000000000000000
    PCM Polarization Energy =               0.0000000000000000
    EFP Energy =                            0.0000000000000000
    Total Energy =                       -457.5082232762738386
    Molecular point group: c1
  Basis Set: CC-PVTZ
  Basis Set:

  -Total Gradient:
     Atom            X                  Y                   Z
    ------   -----------------  -----------------  -----------------
       1       -0.000005712263     0.000011455800     0.000004408145
       2        0.000018659130    -0.000145393292    -0.000001161612
       3        0.000109418717     0.000095771001    -0.000035106288
       4       -0.000129700780     0.000050870418     0.000016482519
       5       -0.000009832374    -0.000001674586     0.000002600354
       6       -0.000162557106    -0.000033487251     0.003536015529
       7        0.000010659037    -0.000006697683    -0.000007206759
       8        0.000077081616     0.000091595935    -0.000004661629
       9        0.000013369037     0.000007467067    -0.000004499132
      10        0.000144043035    -0.000624160322    -0.006205545126
      11       -0.000000083800    -0.000013197035     0.000001952488
      12       -0.000350365446     0.002287202878     0.005580549348
      13        0.000206817357    -0.001721457826    -0.002894695139
      14        0.000024989529    -0.000012202822     0.000023846415
      15        0.000063403322     0.000017865850    -0.000020742673
      16       -0.000009960254    -0.000003413999    -0.000000365723
      17        0.000001650145    -0.000000737627     0.000005016118
      18       -0.000001878896     0.000000193498     0.000003113165

  **** Optimization is complete! (in 6 steps) ****
    Final optimized geometry and variables:
    Molecular point group: c1

    Geometry (in Angstrom), charge = 0, multiplicity = 1:

    H           -3.962407663746    -0.813327455746     0.173873426458
    C           -2.905329757246    -0.630210330554     0.139863194860
    C           -2.431462920959     0.667825821103     0.109002621585
    C           -2.020584779217    -1.693341164409     0.132671657738
    H           -3.117758924912     1.492279325567     0.125372746360
    C           -1.071854723689     0.905063132337     0.056738064778
    H           -2.388618774768    -2.700630364050     0.161362577762
    C           -0.661402566512    -1.457555055508     0.100498905879
    H           -0.700575833380     1.909344976250     0.023594666265
    C           -0.184407039350    -0.158237351172     0.042848649882
    H            0.036365947420    -2.270487416276     0.119765371017
    C            1.291297440325     0.056219898639     0.059626854615
    O            1.650884559226     1.184381149800    -0.523051322981
    O            2.065140365059    -0.715564806536     0.517155682390
    C            3.031846482759     1.488483588089    -0.543996564716
    H            3.421829805936     1.557504473168     0.460547274163
    H            3.118268097627     2.439013677340    -1.044554652064
    H            3.578284669060     0.730301076868    -1.084372705028

  Mulliken Charges: (a.u.)
   Center  Symbol    Alpha    Beta     Spin     Total
       1     H     0.42061  0.42061  0.00000  0.15878
       2     C     3.07291  3.07291  0.00000 -0.14583
       3     C     3.07314  3.07314  0.00000 -0.14628
       4     C     3.07150  3.07150  0.00000 -0.14300
       5     H     0.42171  0.42171  0.00000  0.15658
       6     C     3.08666  3.08666  0.00000 -0.17332
       7     H     0.42070  0.42070  0.00000  0.15859
       8     C     3.08258  3.08258  0.00000 -0.16515
       9     H     0.41450  0.41450  0.00000  0.17100
      10     C     2.97863  2.97863  0.00000  0.04275
      11     H     0.41012  0.41012  0.00000  0.17975
      12     C     2.80751  2.80751  0.00000  0.38498
      13     O     4.14723  4.14723  0.00000 -0.29447
      14     O     4.20599  4.20599  0.00000 -0.41198
      15     C     3.03678  3.03678  0.00000 -0.07355
      16     H     0.45345  0.45345  0.00000  0.09310
      17     H     0.44431  0.44431  0.00000  0.11138
      18     H     0.45167  0.45167  0.00000  0.09666

   Total alpha = 36.00000, Total beta = 36.00000, Total charge = -0.00000

*** Psi4 exiting successfully. Buy a developer a beer!
