                              Psi4 1.0.54 Driver

  ==> Input File <==

--------------------------------------------------------------------------
set {
	reference rhf
	basis cc-pvtz
}

set_num_threads( 4 )
memory 2 gb

molecule MOL {
0 1

H	 -3.020707	 0.071793	 -0.465243
O	 -2.346257	 -0.289210	 0.080372
C	 -1.183935	 0.486039	 -0.009831
C	 0.062853	 -0.375310	 0.027457
H	 -1.178881	 1.094526	 -0.908634
H	 -1.184406	 1.155156	 0.838676
O	 1.172093	 0.457955	 -0.054438
H	 0.052476	 -1.081302	 -0.804627
H	 0.076323	 -0.955658	 0.947560
C	 2.395478	 -0.199028	 -0.000366
H	 2.505946	 -0.901710	 -0.823354
H	 3.174616	 0.545641	 -0.071768
H	 2.513730	 -0.742241	 0.934223

	symmetry c1
}
set optking {
	frozen_dihedral = ("
		1 2 3 5
	")
}

ee,wfn = optimize('scf', return_wfn=True)
oeprop( wfn, 'DIPOLE', 'QUADRUPOLE', 'MULLIKEN_CHARGES')
f=open( 'psi4out.xyz', 'w' )
f.write( "13  " )
f.write( str(ee) + "\n" )
f.write( MOL.save_string_xyz() )
f.close()
--------------------------------------------------------------------------

    Molecular point group: c1
  Charge       = 0
  Multiplicity = 1
  Basis Set: CC-PVTZ
  Basis Set:
  @DF-RHF Final Energy:  -268.06085574151962
    Total Energy =                       -268.0608557415196174
    Molecular point group: c1
  Basis Set: CC-PVTZ
  Basis Set:
  Basis Set: CC-PVTZ
  Basis Set:
  @DF-RHF Final Energy:  -268.06160495168035
    Total Energy =                       -268.0616049516802377
  Basis Set: CC-PVTZ
  Basis Set:
  Basis Set: CC-PVTZ
  Basis Set:
  @DF-RHF Final Energy:  -268.06182541167414
    Total Energy =                       -268.0618254116741923
  Basis Set: CC-PVTZ
  Basis Set:
  Basis Set: CC-PVTZ
  Basis Set:
  @DF-RHF Final Energy:  -268.06183334586774
    Total Energy =                       -268.0618333458678535
  Basis Set: CC-PVTZ
  Basis Set:
  Charge       = 0
  Multiplicity = 1
  Basis Set: CC-PVTZ
  Basis Set:

    Orbital Energies (a.u.)
    -----------------------

    Doubly Occupied:

       1A    -20.552685     2A    -20.551355     3A    -11.267675
       4A    -11.265010     5A    -11.264971     6A     -1.388760
       7A     -1.367587     8A     -1.019492     9A     -0.912078
      10A     -0.833262    11A     -0.714762    12A     -0.682324
      13A     -0.644236    14A     -0.643086    15A     -0.611879
      16A     -0.553914    17A     -0.543872    18A     -0.495331
      19A     -0.475638    20A     -0.442234    21A     -0.421197

  @DF-RHF Final Energy:  -268.06183412439384

   => Energetics <=

    Nuclear Repulsion Energy =            190.5742513310540005
    One-Electron Energy =                -743.9694727937658172
    Two-Electron Energy =                 285.3333873383179480
    DFT Exchange-Correlation Energy =       0.0000000000000000
    Empirical Dispersion Energy =           0.0000000000000000
    PCM Polarization Energy =               0.0000000000000000
    EFP Energy =                            0.0000000000000000
    Total Energy =                       -268.0618341243938403
    Molecular point group: c1
  Basis Set: CC-PVTZ
  Basis Set:

  -Total Gradient:
     Atom            X                  Y                   Z
    ------   -----------------  -----------------  -----------------
       1        0.000364628852    -0.000635601146    -0.000774042640
       2       -0.000605407036     0.000982852651     0.001069643880
       3        0.000707554106    -0.001041472260    -0.000709455794
       4       -0.000038036984    -0.000018286990     0.000010308589
       5       -0.000446098011     0.000669002791     0.000439565416
       6       -0.000001112270    -0.000023025164    -0.000013339811
       7        0.000049086050     0.000023127112    -0.000010823845
       8       -0.000009652274     0.000008605339    -0.000004569244
       9       -0.000013938980     0.000027784185    -0.000012598102
      10       -0.000000678780     0.000007028833     0.000011143401
      11       -0.000005656218     0.000004037996     0.000002655732
      12        0.000001547712    -0.000003759084    -0.000003380972
      13       -0.000002236167    -0.000000294263    -0.000005106610

  **** Optimization is complete! (in 5 steps) ****
    Final optimized geometry and variables:
    Molecular point group: c1

    Geometry (in Angstrom), charge = 0, multiplicity = 1:

    H           -2.997617208621    -0.020174952887    -0.461806919179
    O           -2.307625187150    -0.323819307449     0.095690484042
    C           -1.178551069561     0.500689459017    -0.023817167275
    C            0.055419020501    -0.372710480662     0.005240254426
    H           -1.198397792107     1.072160965375    -0.945392924094
    H           -1.137714843734     1.206886749863     0.798496270716
    O            1.173845779644     0.452767476760    -0.044477626725
    H            0.039852869573    -1.058160463194    -0.839761004147
    H            0.052582622547    -0.970355314947     0.914461442917
    C            2.388581463318    -0.220404168216    -0.005836154283
    H            2.494564850347    -0.898421867041    -0.849717166053
    H            3.177364607041     0.516341179807    -0.050115883259
    H            2.495777472072    -0.794286417599     0.911733181214

  Mulliken Charges: (a.u.)
   Center  Symbol    Alpha    Beta     Spin     Total
       1     H     0.38951  0.38951  0.00000  0.22099
       2     O     4.20473  4.20473  0.00000 -0.40945
       3     C     2.96762  2.96762  0.00000  0.06475
       4     C     2.96070  2.96070  0.00000  0.07859
       5     H     0.47056  0.47056  0.00000  0.05888
       6     H     0.46709  0.46709  0.00000  0.06583
       7     O     4.17648  4.17648  0.00000 -0.35296
       8     H     0.47371  0.47371  0.00000  0.05259
       9     H     0.47052  0.47052  0.00000  0.05896
      10     C     3.03088  3.03088  0.00000 -0.06176
      11     H     0.47096  0.47096  0.00000  0.05808
      12     H     0.44702  0.44702  0.00000  0.10596
      13     H     0.47023  0.47023  0.00000  0.05955

   Total alpha = 21.00000, Total beta = 21.00000, Total charge =  0.00000

*** Psi4 exiting successfully. Buy a developer a beer!
