  ==> Input File <==

--------------------------------------------------------------------------
set {
	reference rhf
	basis 6-31G*
}

set_num_threads( 1 )
memory 2 gb

molecule MOL {
0 1

H	 -2.469332	 1.398840	 -1.870202
C	 -1.741041	 0.750295	 -1.423388
C	 -2.076860	 -0.007332	 -0.404944
H	 -0.746316	 0.739780	 -1.827519
O	 -1.180634	 -0.819263	 0.215062
H	 -3.069309	 -0.016846	 0.009964
C	 0.051604	 -1.018856	 -0.387932
C	 1.043764	 0.054862	 -0.001873
H	 -0.017620	 -1.041351	 -1.469781
H	 0.437898	 -1.966374	 -0.042284
F	 2.212596	 -0.199467	 -0.571921
F	 0.652529	 1.252447	 -0.405055
F	 1.230877	 0.110694	 1.300533

	symmetry c1
}
set optking {
	frozen_dihedral = ("
		11 8 7 9,
		3 5 7 9,
		6 3 2 1
	")
}

ee = energy('scf')
oeprop('DIPOLE', 'QUADRUPOLE', 'MULLIKEN_CHARGES')
f=open( 'psi4out.xyz', 'w' )
f.write( "13  " )
f.write( str(ee) + "\n" )
f.write( MOL.save_string_xyz() )
f.close()
--------------------------------------------------------------------------

    Molecular point group: c1

    Geometry (in Angstrom), charge = 0, multiplicity = 1:

       Center              X                  Y                   Z               Mass
    ------------   -----------------  -----------------  -----------------  -----------------
           H         -2.630821426959     1.355527431163    -1.693487545293     1.007825032070
           C         -1.902530426959     0.706982431163    -1.246673545293    12.000000000000
           C         -2.238349426959    -0.050644568837    -0.228229545293    12.000000000000
           H         -0.907805426959     0.696467431163    -1.650804545293     1.007825032070
           O         -1.342123426959    -0.862575568837     0.391776454707    15.994914619560
           H         -3.230798426959    -0.060158568837     0.186678454707     1.007825032070
           C         -0.109885426959    -1.062168568837    -0.211217545293    12.000000000000
           C          0.882274573041     0.011549431163     0.174841454707    12.000000000000
           H         -0.179109426959    -1.084663568837    -1.293066545293     1.007825032070
           H          0.276408573041    -2.009686568837     0.134430454707     1.007825032070
           F          2.051106573041    -0.242779568837    -0.395206545293    18.998403224000
           F          0.491039573041     1.209134431163    -0.228340545293    18.998403224000
           F          1.069387573041     0.067381431163     1.477247454707    18.998403224000

  Charge       = 0
  Multiplicity = 1
  Basis Set: 6-31G*
  Basis Set:

    Orbital Energies (a.u.)
    -----------------------

    Doubly Occupied:

       1A    -26.343414     2A    -26.340031     3A    -26.339391
       4A    -20.607524     5A    -11.502012     6A    -11.314372
       7A    -11.298182     8A    -11.214044     9A     -1.740679
      10A     -1.638824    11A     -1.637278    12A     -1.437577
      13A     -1.076114    14A     -1.024572    15A     -0.934011
      16A     -0.833366    17A     -0.830412    18A     -0.821696
      19A     -0.772752    20A     -0.735224    21A     -0.707434
      22A     -0.699289    23A     -0.676824    24A     -0.660097
      25A     -0.653183    26A     -0.641703    27A     -0.626916
      28A     -0.599345    29A     -0.546867    30A     -0.523188
      31A     -0.510943    32A     -0.354047

  @DF-RHF Final Energy:  -527.52420782306910

   => Energetics <=

    Nuclear Repulsion Energy =            426.0104767288286212
    One-Electron Energy =               -1575.7867683038705309
    Two-Electron Energy =                 622.2520837519730321
    DFT Exchange-Correlation Energy =       0.0000000000000000
    Empirical Dispersion Energy =           0.0000000000000000
    PCM Polarization Energy =               0.0000000000000000
    EFP Energy =                            0.0000000000000000
    Total Energy =                       -527.5242078230687639

  Mulliken Charges: (a.u.)
   Center  Symbol    Alpha    Beta     Spin     Total
       1     H     0.40533  0.40533  0.00000  0.18933
       2     C     3.23929  3.23929  0.00000 -0.47857
       3     C     2.90483  2.90483  0.00000  0.19034
       4     H     0.40352  0.40352  0.00000  0.19295
       5     O     4.30573  4.30573  0.00000 -0.61147
       6     H     0.39264  0.39264  0.00000  0.21473
       7     C     3.07171  3.07171  0.00000 -0.14342
       8     C     2.45326  2.45326  0.00000  1.09348
       9     H     0.40031  0.40031  0.00000  0.19937
      10     H     0.38881  0.38881  0.00000  0.22238
      11     F     4.68310  4.68310  0.00000 -0.36620
      12     F     4.67640  4.67640  0.00000 -0.35281
      13     F     4.67506  4.67506  0.00000 -0.35013

   Total alpha = 32.00000, Total beta = 32.00000, Total charge =  0.00000
