                              Psi4 1.0.54 Driver

  ==> Input File <==

--------------------------------------------------------------------------
set {
	reference rhf
	basis cc-pvtz
}

set_num_threads( 4 )
memory 2 gb

molecule MOL {
0 1

O	 0.749630	 1.305591	 -0.000460
C	 0.576499	 0.134701	 -0.003900
C	 -0.765656	 -0.550508	 -0.002152
O	 1.564816	 -0.744612	 -0.000631
C	 -1.945526	 0.411052	 0.000603
H	 -0.794329	 -1.203792	 -0.868145
H	 -0.791555	 -1.205429	 0.862701
C	 -3.282915	 -0.321280	 0.002596
H	 -1.880300	 1.059126	 -0.864925
H	 -1.877207	 1.057892	 0.866807
H	 -3.388495	 -0.952755	 -0.873419
H	 -4.107811	 0.380864	 0.004116
H	 -3.385717	 -0.953283	 0.878571
C	 1.757999	 -1.499396	 1.178772
H	 1.974508	 -0.851157	 2.014812
H	 2.596868	 -2.147135	 0.982756
H	 0.879303	 -2.084940	 1.404771

	symmetry c1
}
set optking {
	frozen_dihedral = ("
		14 4 2 1
	")
}

ee,wfn = optimize('scf', return_wfn=True)
oeprop( wfn, 'DIPOLE', 'QUADRUPOLE', 'MULLIKEN_CHARGES')
f=open( 'psi4out.xyz', 'w' )
f.write( "17  " )
f.write( str(ee) + "\n" )
f.write( MOL.save_string_xyz() )
f.close()
--------------------------------------------------------------------------

    Molecular point group: c1
  Charge       = 0
  Multiplicity = 1
  Basis Set: CC-PVTZ
  Basis Set:
  @DF-RHF Final Energy:  -345.01195017867019
    Total Energy =                       -345.0119501786701903
    Molecular point group: c1
  Basis Set: CC-PVTZ
  Basis Set:
  Basis Set: CC-PVTZ
  Basis Set:
  @DF-RHF Final Energy:  -345.01070956804159
    Total Energy =                       -345.0107095680412499
  Basis Set: CC-PVTZ
  Basis Set:
  Basis Set: CC-PVTZ
  Basis Set:
  @DF-RHF Final Energy:  -345.01424125688129
    Total Energy =                       -345.0142412568811778
  Basis Set: CC-PVTZ
  Basis Set:
  Basis Set: CC-PVTZ
  Basis Set:
  @DF-RHF Final Energy:  -345.01509263559626
    Total Energy =                       -345.0150926355959200
  Basis Set: CC-PVTZ
  Basis Set:
  Basis Set: CC-PVTZ
  Basis Set:
  @DF-RHF Final Energy:  -345.01514297387200
    Total Energy =                       -345.0151429738717184
  Basis Set: CC-PVTZ
  Basis Set:
  Basis Set: CC-PVTZ
  Basis Set:
  @DF-RHF Final Energy:  -345.01515385316355
    Total Energy =                       -345.0151538531633832
  Basis Set: CC-PVTZ
  Basis Set:
  Charge       = 0
  Multiplicity = 1
  Basis Set: CC-PVTZ
  Basis Set:

    Orbital Energies (a.u.)
    -----------------------

    Doubly Occupied:

       1A    -20.579932     2A    -20.544027     3A    -11.367941
       4A    -11.291109     5A    -11.240092     6A    -11.223777
       7A    -11.216059     8A     -1.461766     9A     -1.370466
      10A     -1.082868    11A     -0.990037    12A     -0.958634
      13A     -0.836780    14A     -0.766760    15A     -0.702239
      16A     -0.680983    17A     -0.678012    18A     -0.639062
      19A     -0.617923    20A     -0.580379    21A     -0.567262
      22A     -0.544389    23A     -0.520052    24A     -0.496715
      25A     -0.491705    26A     -0.483334    27A     -0.457734
      28A     -0.438128

  @DF-RHF Final Energy:  -345.01515443238105

   => Energetics <=

    Nuclear Repulsion Energy =            313.2961147559366850
    One-Electron Energy =               -1090.9662138602434425
    Two-Electron Energy =                 432.6549446719261596
    DFT Exchange-Correlation Energy =       0.0000000000000000
    Empirical Dispersion Energy =           0.0000000000000000
    PCM Polarization Energy =               0.0000000000000000
    EFP Energy =                            0.0000000000000000
    Total Energy =                       -345.0151544323805410
    Molecular point group: c1
  Basis Set: CC-PVTZ
  Basis Set:

  -Total Gradient:
     Atom            X                  Y                   Z
    ------   -----------------  -----------------  -----------------
       1       -0.000100354182     0.000073134223     0.000774763628
       2        0.000347748858     0.000121101180    -0.001062069973
       3        0.000003678204     0.000045787863     0.000040795991
       4       -0.000628980216    -0.000658013219     0.000044286429
       5       -0.000004296885    -0.000019548046    -0.000005973829
       6        0.000010859701     0.000005292511    -0.000007212807
       7       -0.000003577197    -0.000008613494    -0.000011653551
       8       -0.000003015262     0.000012813312     0.000002538304
       9       -0.000001035860    -0.000003049276     0.000002361475
      10       -0.000005199113     0.000002146349     0.000004227517
      11        0.000004328429     0.000003092204     0.000001047263
      12       -0.000004193214    -0.000004048055    -0.000001022369
      13        0.000001673140     0.000003224780    -0.000000749807
      14        0.000384118006     0.000430575839     0.000191939354
      15       -0.000008267565     0.000010250416    -0.000022031066
      16       -0.000009663287    -0.000015165216     0.000030917505
      17        0.000016176441     0.000001018633     0.000017835936

  **** Optimization is complete! (in 7 steps) ****
    Final optimized geometry and variables:
    Molecular point group: c1

    Geometry (in Angstrom), charge = 0, multiplicity = 1:

    O            0.877499830850     1.477945844514    -0.118022975875
    C            0.724294770656     0.312753251142    -0.082195102308
    C           -0.613053333878    -0.376528246951    -0.206160137665
    O            1.782913317724    -0.517730766794     0.011221674801
    C           -1.784315997423     0.577496556936    -0.395800348571
    H           -0.532677385403    -1.070096165966    -1.037704537103
    H           -0.763687113935    -0.990835825665     0.676043670941
    C           -3.112341493201    -0.160157274530    -0.526477429258
    H           -1.609751900300     1.183947194579    -1.275904212539
    H           -1.823676711077     1.264991633177     0.440488317734
    H           -3.107983542838    -0.833348229281    -1.377411924079
    H           -3.929617245384     0.537596666332    -0.662710609163
    H           -3.326471847995    -0.749623842578     0.359205115100
    C            1.987647807169    -1.223005274593     1.212381389090
    H            2.023828026206    -0.543235951695     2.055176719632
    H            2.940411651084    -1.718117486368     1.118715552418
    H            1.219485997382    -1.968303192224     1.378298501485

  Mulliken Charges: (a.u.)
   Center  Symbol    Alpha    Beta     Spin     Total
       1     O     4.16686  4.16686  0.00000 -0.33372
       2     C     2.79103  2.79103  0.00000  0.41795
       3     C     3.11951  3.11951  0.00000 -0.23903
       4     O     4.16071  4.16071  0.00000 -0.32142
       5     C     3.08016  3.08016  0.00000 -0.16032
       6     H     0.43771  0.43771  0.00000  0.12459
       7     H     0.44656  0.44656  0.00000  0.10688
       8     C     3.14993  3.14993  0.00000 -0.29987
       9     H     0.44408  0.44408  0.00000  0.11184
      10     H     0.44633  0.44633  0.00000  0.10733
      11     H     0.45527  0.45527  0.00000  0.08945
      12     H     0.44472  0.44472  0.00000  0.11056
      13     H     0.45682  0.45682  0.00000  0.08637
      14     C     3.04035  3.04035  0.00000 -0.08071
      15     H     0.45799  0.45799  0.00000  0.08403
      16     H     0.43885  0.43885  0.00000  0.12231
      17     H     0.46312  0.46312  0.00000  0.07376

   Total alpha = 28.00000, Total beta = 28.00000, Total charge = -0.00000

*** Psi4 exiting successfully. Buy a developer a beer!
