  ==> Input File <==

--------------------------------------------------------------------------
set {
	reference rhf
	basis cc-pvtz
}

set_num_threads( 4 )
memory 2 gb

molecule MOL {
0 1

H	 -2.698799	 -0.000846	 0.036018
C	 -1.694291	 -0.000483	 0.434279
O	 -0.828718	 -0.000608	 -0.655022
H	 -1.576855	 0.881100	 1.056504
H	 -1.576401	 -0.881658	 1.057001
C	 0.557892	 0.000078	 -0.420099
C	 0.924038	 -0.613874	 0.926479
C	 1.347088	 -0.614819	 -1.570456
H	 0.801421	 1.054423	 -0.379237
H	 0.319363	 -0.182121	 1.714525
H	 1.965965	 -0.415526	 1.149623
H	 0.786908	 -1.688886	 0.937737
H	 1.035864	 -0.183675	 -2.514012
H	 2.404422	 -0.416612	 -1.438042
H	 1.221093	 -1.689824	 -1.625511

	symmetry c1
}
set optking {
	frozen_dihedral = ("
		9 6 3 2
	")
}

ee = optimize('scf')
oeprop('DIPOLE', 'QUADRUPOLE', 'MULLIKEN_CHARGES')
f=open( 'psi4out.xyz', 'w' )
f.write( "15  " )
f.write( str(ee) + "\n" )
f.write( MOL.save_string_xyz() )
f.close()
--------------------------------------------------------------------------

    Molecular point group: c1
  Charge       = 0
  Multiplicity = 1
  Basis Set: CC-PVTZ
  Basis Set:
  @DF-RHF Final Energy:  -232.22020032810661
    Total Energy =                       -232.2202003281066141
    Molecular point group: c1
  Basis Set: CC-PVTZ
  Basis Set:
  Basis Set: CC-PVTZ
  Basis Set:
  @DF-RHF Final Energy:  -232.22324892057790
    Total Energy =                       -232.2232489205779302
  Basis Set: CC-PVTZ
  Basis Set:
  Basis Set: CC-PVTZ
  Basis Set:
  @DF-RHF Final Energy:  -232.22534889195563
    Total Energy =                       -232.2253488919556048
  Basis Set: CC-PVTZ
  Basis Set:
  Basis Set: CC-PVTZ
  Basis Set:
  @DF-RHF Final Energy:  -232.22543412486192
    Total Energy =                       -232.2254341248618061
  Basis Set: CC-PVTZ
  Basis Set:
  Basis Set: CC-PVTZ
  Basis Set:
  @DF-RHF Final Energy:  -232.22548667490659
    Total Energy =                       -232.2254866749070743
  Basis Set: CC-PVTZ
  Basis Set:
  Basis Set: CC-PVTZ
  Basis Set:
  @DF-RHF Final Energy:  -232.22549204216051
    Total Energy =                       -232.2254920421603970
  Basis Set: CC-PVTZ
  Basis Set:
  Charge       = 0
  Multiplicity = 1
  Basis Set: CC-PVTZ
  Basis Set:

    Orbital Energies (a.u.)
    -----------------------

    Doubly Occupied:

       1A    -20.541880     2A    -11.273161     3A    -11.259858
       4A    -11.212434     5A    -11.203247     6A     -1.373898
       7A     -1.054345     8A     -0.949952     9A     -0.913504
      10A     -0.786097    11A     -0.678107    12A     -0.642804
      13A     -0.632783    14A     -0.592936    15A     -0.550959
      16A     -0.543091    17A     -0.526312    18A     -0.502690
      19A     -0.495560    20A     -0.450932    21A     -0.406471

  @DF-RHF Final Energy:  -232.22549238842251

   => Energetics <=

    Nuclear Repulsion Energy =            198.1625116469744228
    One-Electron Energy =                -707.5939640514081930
    Two-Electron Energy =                 277.2059600160113177
    DFT Exchange-Correlation Energy =       0.0000000000000000
    Empirical Dispersion Energy =           0.0000000000000000
    PCM Polarization Energy =               0.0000000000000000
    EFP Energy =                            0.0000000000000000
    Total Energy =                       -232.2254923884224809
    Molecular point group: c1
  Basis Set: CC-PVTZ
  Basis Set:

  -Total Gradient:
     Atom            X                  Y                   Z
    ------   -----------------  -----------------  -----------------
       1        0.000000020809    -0.000002836104    -0.000011880526
       2        0.000234866834    -0.004367734843     0.000252347256
       3       -0.000061943039     0.006444914912    -0.001545663941
       4        0.000001822939     0.000004261493     0.000002106551
       5        0.000008773854    -0.000002747419    -0.000013697170
       6       -0.001237182401    -0.001830253610     0.006304793967
       7       -0.000013457507    -0.000004665988     0.000030803659
       8       -0.000033022762     0.000004881368    -0.000019155561
       9        0.001109207120    -0.000243415124    -0.004989960308
      10        0.000010640700    -0.000008397098     0.000008974817
      11       -0.000013947189     0.000007892744    -0.000014113659
      12       -0.000001272516    -0.000010668340     0.000007807952
      13        0.000003842660    -0.000012614969    -0.000029426375
      14       -0.000011826802     0.000011391232     0.000006020111
      15        0.000003477299     0.000009991745     0.000011043229

  **** Optimization is complete! (in 7 steps) ****
    Final optimized geometry and variables:
    Molecular point group: c1

    Geometry (in Angstrom), charge = 0, multiplicity = 1:

    H           -2.753716822139     0.218473555066     0.146622199989
    C           -1.775895839576     0.213152025900     0.606924549186
    O           -0.845138507561     0.201076617723    -0.424547920519
    H           -1.688503349121     1.101507500861     1.229224269132
    H           -1.702521228975    -0.662391811520     1.242486993767
    C            0.527018378036     0.293311141423    -0.124589589818
    C            0.941725321504    -0.347754158605     1.192344055661
    C            1.254188704627    -0.341006282710    -1.300219870665
    H            0.797624047400     1.348953033337    -0.115707396227
    H            0.486449518382     0.131139046688     2.049190419292
    H            2.015848698858    -0.261756549519     1.302675228919
    H            0.686159146064    -1.401466319363     1.210390255073
    H            0.924767250159     0.110208843061    -2.227113729091
    H            2.325581884639    -0.201738821917    -1.210693967958
    H            1.045070139862    -1.403577906743    -1.347811568399

  Mulliken Charges: (a.u.)
   Center  Symbol    Alpha    Beta     Spin     Total
       1     H     0.44303  0.44303  0.00000  0.11393
       2     C     3.03897  3.03897  0.00000 -0.07793
       3     O     4.18339  4.18339  0.00000 -0.36677
       4     H     0.47131  0.47131  0.00000  0.05737
       5     H     0.46864  0.46864  0.00000  0.06272
       6     C     2.92140  2.92140  0.00000  0.15721
       7     C     3.16858  3.16858  0.00000 -0.33715
       8     C     3.13983  3.13983  0.00000 -0.27966
       9     H     0.46189  0.46189  0.00000  0.07621
      10     H     0.44581  0.44581  0.00000  0.10838
      11     H     0.44482  0.44482  0.00000  0.11036
      12     H     0.45009  0.45009  0.00000  0.09981
      13     H     0.44596  0.44596  0.00000  0.10809
      14     H     0.46001  0.46001  0.00000  0.07997
      15     H     0.45627  0.45627  0.00000  0.08746

   Total alpha = 21.00000, Total beta = 21.00000, Total charge = -0.00000
