  ==> Input File <==

--------------------------------------------------------------------------
set {
	reference rhf
	basis 6-31G*
}

set_num_threads( 4 )
memory 2 gb

molecule MOL {
0 1

H	 2.756780	 1.720538	 2.731288
N	 1.919257	 1.171049	 2.718536
C	 1.260655	 1.264208	 1.423510
H	 1.325467	 1.531750	 3.441127
C	 0.040174	 0.351064	 1.375044
H	 1.973892	 0.949797	 0.667668
H	 0.961237	 2.283407	 1.166646
C	 -0.679275	 0.379305	 0.025956
H	 0.359136	 -0.660462	 1.609380
H	 -0.655450	 0.644858	 2.160619
C	 -1.903357	 -0.536963	 -0.023547
H	 0.016218	 0.088645	 -0.759954
H	 -0.986819	 1.398800	 -0.201847
C	 -3.225172	 0.228290	 0.028445
H	 -1.867824	 -1.134999	 -0.931459
H	 -1.860449	 -1.239604	 0.805977
H	 -3.313397	 0.915643	 -0.808262
H	 -4.073500	 -0.448134	 -0.008893
H	 -3.306061	 0.809945	 0.942516

	symmetry c1
}
set optking {
	frozen_dihedral = ("
		12 8 11 15
	")
}

ee = optimize('scf')
oeprop('DIPOLE', 'QUADRUPOLE', 'MULLIKEN_CHARGES')
f=open( 'psi4out.xyz', 'w' )
f.write( "19  " )
f.write( str(ee) + "\n" )
f.write( MOL.save_string_xyz() )
f.close()
--------------------------------------------------------------------------

    Molecular point group: c1
  Charge       = 0
  Multiplicity = 1
  Basis Set: 6-31G*
  Basis Set:
  @DF-RHF Final Energy:  -251.34645441256805
    Total Energy =                       -251.3464544125679367
    Molecular point group: c1
  Basis Set: 6-31G*
  Basis Set:
  Basis Set: 6-31G*
  Basis Set:
  @DF-RHF Final Energy:  -251.34674142232495
    Total Energy =                       -251.3467414223247829
  Basis Set: 6-31G*
  Basis Set:
  Basis Set: 6-31G*
  Basis Set:
  @DF-RHF Final Energy:  -251.34682710046428
    Total Energy =                       -251.3468271004643952
  Basis Set: 6-31G*
  Basis Set:
  Charge       = 0
  Multiplicity = 1
  Basis Set: 6-31G*
  Basis Set:

    Orbital Energies (a.u.)
    -----------------------

    Doubly Occupied:

       1A    -15.532554     2A    -11.239631     3A    -11.213648
       4A    -11.212417     5A    -11.209987     6A    -11.208273
       7A     -1.176605     8A     -1.070936     9A     -0.997216
      10A     -0.900736    11A     -0.817411    12A     -0.786521
      13A     -0.663078    14A     -0.637576    15A     -0.610969
      16A     -0.598542    17A     -0.561935    18A     -0.557746
      19A     -0.518370    20A     -0.498792    21A     -0.491089
      22A     -0.463666    23A     -0.453236    24A     -0.448828
      25A     -0.381005

  @DF-RHF Final Energy:  -251.34682673971790

   => Energetics <=

    Nuclear Repulsion Energy =            247.1208995368091053
    One-Electron Energy =                -828.4339226202397413
    Two-Electron Energy =                 329.9661963437125110
    DFT Exchange-Correlation Energy =       0.0000000000000000
    Empirical Dispersion Energy =           0.0000000000000000
    PCM Polarization Energy =               0.0000000000000000
    EFP Energy =                            0.0000000000000000
    Total Energy =                       -251.3468267397180966
    Molecular point group: c1
  Basis Set: 6-31G*
  Basis Set:

  -Total Gradient:
     Atom            X                  Y                   Z
    ------   -----------------  -----------------  -----------------
       1        0.000000848553     0.000012980048     0.000019709571
       2       -0.000001307768     0.000044951040     0.000027822996
       3       -0.000034056235    -0.000026968039    -0.000040979631
       4        0.000010633883     0.000002720702     0.000016060252
       5       -0.000005201065    -0.000117495685    -0.000000217061
       6       -0.000006153508    -0.000008450626     0.000010115283
       7        0.000009478734     0.000004968609    -0.000017684059
       8        0.001788827475    -0.002722535092     0.002539223094
       9        0.000071164336     0.000019187824    -0.000025128052
      10       -0.000018866384    -0.000038887267    -0.000012751411
      11       -0.002032535870     0.003015738258    -0.002075334166
      12       -0.001243789518     0.001760146771    -0.001746554528
      13       -0.000017991672     0.000018365459    -0.000042272716
      14       -0.000001052563     0.000067845040    -0.000018348968
      15        0.001422389149    -0.002000760236     0.001363066026
      16        0.000027818670     0.000001685755     0.000012492511
      17       -0.000004999264     0.000002846404    -0.000000009902
      18        0.000021597326    -0.000027393469     0.000003049718
      19        0.000013195718    -0.000008945496    -0.000012258953

  **** Optimization is complete! (in 4 steps) ****
    Final optimized geometry and variables:
    Molecular point group: c1

    Geometry (in Angstrom), charge = 0, multiplicity = 1:

    H            3.137712900530     1.258721114281     1.800419092948
    N            2.314407916499     0.688489839706     1.777169349241
    C            1.663530525527     0.774504082545     0.477611137466
    H            1.706270072712     1.029010968295     2.497646587665
    C            0.467445942258    -0.168715593713     0.412383642528
    H            2.390146415938     0.484065145469    -0.275254488794
    H            1.340243415058     1.787655852524     0.225965093898
    C           -0.241171597498    -0.150928166557    -0.942791701870
    H            0.808776160903    -1.173633910959     0.642600430508
    H           -0.243190463568     0.101905904565     1.193343302389
    C           -1.502679976513    -1.038953005436    -0.991299540021
    H            0.453589982092    -0.448833889843    -1.724148999552
    H           -0.518436464406     0.873728023201    -1.185403520440
    C           -2.808977246234    -0.250809729308    -0.901552101828
    H           -1.498344337540    -1.641836026482    -1.894797102805
    H           -1.466745567891    -1.754391382117    -0.172834824384
    H           -2.917260908050     0.424729051643    -1.745260773492
    H           -3.669361995962    -0.913077819160    -0.893756864595
    H           -2.844012407513     0.346877972381     0.005372769090

  Mulliken Charges: (a.u.)
   Center  Symbol    Alpha    Beta     Spin     Total
       1     H     0.33247  0.33247  0.00000  0.33505
       2     N     3.92185  3.92185  0.00000 -0.84369
       3     C     3.06079  3.06079  0.00000 -0.12158
       4     H     0.33539  0.33539  0.00000  0.32923
       5     C     3.15274  3.15274  0.00000 -0.30548
       6     H     0.42079  0.42079  0.00000  0.15841
       7     H     0.43464  0.43464  0.00000  0.13072
       8     C     3.15952  3.15952  0.00000 -0.31904
       9     H     0.41245  0.41245  0.00000  0.17510
      10     H     0.42760  0.42760  0.00000  0.14481
      11     C     3.15492  3.15492  0.00000 -0.30983
      12     H     0.42036  0.42036  0.00000  0.15927
      13     H     0.42298  0.42298  0.00000  0.15405
      14     C     3.23943  3.23943  0.00000 -0.47887
      15     H     0.41992  0.41992  0.00000  0.16015
      16     H     0.41992  0.41992  0.00000  0.16016
      17     H     0.42162  0.42162  0.00000  0.15676
      18     H     0.42010  0.42010  0.00000  0.15980
      19     H     0.42251  0.42251  0.00000  0.15499

   Total alpha = 25.00000, Total beta = 25.00000, Total charge =  0.00000
