  ==> Input File <==

--------------------------------------------------------------------------
set {
	reference rhf
	basis 6-31G*
}

set_num_threads( 4 )
memory 2 gb

molecule MOL {
0 1

H	 -2.441017	 -3.051206	 -1.449789
O	 -2.442909	 -2.172793	 -1.097239
C	 -1.137067	 -1.808257	 -0.730522
C	 -1.177863	 -0.397191	 -0.171080
H	 -0.743503	 -2.494875	 0.017789
H	 -0.471794	 -1.848630	 -1.591986
C	 0.198102	 0.111031	 0.262842
H	 -1.864860	 -0.382899	 0.670679
H	 -1.598363	 0.258768	 -0.928295
C	 1.331804	 -0.827780	 -0.158768
H	 0.361943	 1.100838	 -0.156218
H	 0.217265	 0.229072	 1.345532
C	 2.723619	 -0.410569	 0.329459
H	 1.342964	 -0.912588	 -1.244120
H	 1.116806	 -1.824343	 0.220779
C	 3.243875	 0.895854	 -0.272975
H	 3.424222	 -1.207124	 0.091250
H	 2.714788	 -0.329854	 1.414619
H	 3.251977	 0.848779	 -1.358681
H	 2.637085	 1.747371	 0.016682
H	 4.259473	 1.094070	 0.055697

	symmetry c1
}
set optking {
	frozen_dihedral = ("
		8 4 7 10
	")
}

ee = optimize('scf')
oeprop('DIPOLE', 'QUADRUPOLE', 'MULLIKEN_CHARGES')
f=open( 'psi4out.xyz', 'w' )
f.write( "21  " )
f.write( str(ee) + "\n" )
f.write( MOL.save_string_xyz() )
f.close()
--------------------------------------------------------------------------

    Molecular point group: c1
  Charge       = 0
  Multiplicity = 1
  Basis Set: 6-31G*
  Basis Set:
  @DF-RHF Final Energy:  -310.19817987089993
    Total Energy =                       -310.1981798709001623
    Molecular point group: c1
  Basis Set: 6-31G*
  Basis Set:
  Basis Set: 6-31G*
  Basis Set:
  @DF-RHF Final Energy:  -310.19810272009369
    Total Energy =                       -310.1981027200932886
  Basis Set: 6-31G*
  Basis Set:
  Basis Set: 6-31G*
  Basis Set:
  @DF-RHF Final Energy:  -310.20238903406675
    Total Energy =                       -310.2023890340666412
  Basis Set: 6-31G*
  Basis Set:
  Basis Set: 6-31G*
  Basis Set:
  @DF-RHF Final Energy:  -310.20309522406473
    Total Energy =                       -310.2030952240645547
  Basis Set: 6-31G*
  Basis Set:
  @DF-RHF Final Energy:  -310.20316327152540
    Total Energy =                       -310.2031632715257956
  @DF-RHF Final Energy:  -310.20315101382181
    Total Energy =                       -310.2031510138215822
  Basis Set: 6-31G*
  Basis Set:
  @DF-RHF Final Energy:  -310.20321035538143
    Total Energy =                       -310.2032103553814295
  Basis Set: 6-31G*
  Basis Set:
  Basis Set: 6-31G*
  Basis Set:
  @DF-RHF Final Energy:  -310.20319238119924
    Total Energy =                       -310.2031923811990737
  Basis Set: 6-31G*
  Basis Set:
  Basis Set: 6-31G*
  Basis Set:
  @DF-RHF Final Energy:  -310.20321302895462
    Total Energy =                       -310.2032130289546217
  Basis Set: 6-31G*
  Basis Set:
  Charge       = 0
  Multiplicity = 1
  Basis Set: 6-31G*
  Basis Set:

    Orbital Energies (a.u.)
    -----------------------

    Doubly Occupied:

       1A    -20.551058     2A    -11.266132     3A    -11.217023
       4A    -11.216392     5A    -11.215621     6A    -11.210777
       7A    -11.209011     8A     -1.357846     9A     -1.084421
      10A     -1.029158    11A     -0.951027    12A     -0.886625
      13A     -0.815179    14A     -0.763499    15A     -0.694676
      16A     -0.658981    17A     -0.622227    18A     -0.607958
      19A     -0.582490    20A     -0.569090    21A     -0.540300
      22A     -0.525291    23A     -0.512537    24A     -0.487392
      25A     -0.480657    26A     -0.460199    27A     -0.451467
      28A     -0.442687    29A     -0.428265

  @DF-RHF Final Energy:  -310.20321304115197

   => Energetics <=

    Nuclear Repulsion Energy =            316.4956932807579619
    One-Electron Energy =               -1047.7218422698647373
    Two-Electron Energy =                 421.0229359479553182
    DFT Exchange-Correlation Energy =       0.0000000000000000
    Empirical Dispersion Energy =           0.0000000000000000
    PCM Polarization Energy =               0.0000000000000000
    EFP Energy =                            0.0000000000000000
    Total Energy =                       -310.2032130411515141
    Molecular point group: c1
  Basis Set: 6-31G*
  Basis Set:

  -Total Gradient:
     Atom            X                  Y                   Z
    ------   -----------------  -----------------  -----------------
       1        0.000001256114    -0.000000343546     0.000000790657
       2       -0.000000575444     0.000000433966     0.000003420449
       3        0.000004304010     0.000003858954    -0.000010192259
       4       -0.001067104676     0.003103818068     0.000032280458
       5       -0.000002229429     0.000000322696     0.000000448284
       6       -0.000000390168    -0.000002530208    -0.000000734438
       7        0.000495881636     0.001008043648    -0.002771646849
       8        0.000785005741    -0.002944089360     0.000718863244
       9       -0.000000579846    -0.000002851761    -0.000000208143
      10       -0.000218792646    -0.001167036787     0.002033182018
      11        0.000002967076     0.000001063789    -0.000000300018
      12        0.000002265546     0.000000067625     0.000000410923
      13        0.000002029685    -0.000002567181    -0.000006873541
      14        0.000000655079     0.000004781560     0.000001472552
      15        0.000003161668    -0.000003278237     0.000000226639
      16       -0.000001521631     0.000003375953     0.000001665705
      17       -0.000003077589    -0.000005895301     0.000000438223
      18       -0.000002253357     0.000001772531    -0.000002616085
      19        0.000002178320    -0.000000365041    -0.000000689396
      20       -0.000002152177     0.000001042267    -0.000001420543
      21       -0.000001027907     0.000000376369     0.000001482120

  **** Optimization is complete! (in 10 steps) ****
    Final optimized geometry and variables:
    Molecular point group: c1

    Geometry (in Angstrom), charge = 0, multiplicity = 1:

    H           -3.062548115170    -2.263051835224    -1.136639904116
    O           -2.954124760297    -1.391969096975    -0.782530860345
    C           -1.599703903256    -1.174236765301    -0.474550595524
    C           -1.495634166228     0.238072930090     0.086695354546
    H           -1.257569869508    -1.904870493482     0.255242297552
    H           -0.987143567469    -1.287159910969    -1.365545270639
    C           -0.083064091290     0.718999111738     0.515266950444
    H           -2.162958890275     0.268086354136     0.941371830326
    H           -1.912374034891     0.907446706340    -0.657960838304
    C            1.107508270436    -0.169865183705     0.128771114939
    H            0.073461772409     1.715541801495     0.117510436965
    H           -0.067392521383     0.829010820856     1.596874813038
    C            2.453994199601     0.342815020649     0.655309200360
    H            1.169242503899    -0.266856484590    -0.953440449879
    H            0.954511740174    -1.172007182743     0.519185751033
    C            2.923998888143     1.660179248234     0.035430857078
    H            3.207139950493    -0.417973315976     0.465023623835
    H            2.399387309460     0.450897871985     1.736675087534
    H            2.972709496905     1.586007448921    -1.047709469286
    H            2.264715940378     2.485600813179     0.281450959631
    H            3.915858402915     1.919876288363     0.392445223856

  Mulliken Charges: (a.u.)
   Center  Symbol    Alpha    Beta     Spin     Total
       1     H     0.28131  0.28131  0.00000  0.43737
       2     O     4.37289  4.37289  0.00000 -0.74577
       3     C     2.99454  2.99454  0.00000  0.01092
       4     C     3.16282  3.16282  0.00000 -0.32564
       5     H     0.43206  0.43206  0.00000  0.13587
       6     H     0.43080  0.43080  0.00000  0.13839
       7     C     3.16241  3.16241  0.00000 -0.32482
       8     H     0.41195  0.41195  0.00000  0.17610
       9     H     0.41218  0.41218  0.00000  0.17564
      10     C     3.15919  3.15919  0.00000 -0.31838
      11     H     0.41642  0.41642  0.00000  0.16715
      12     H     0.42077  0.42077  0.00000  0.15846
      13     C     3.15198  3.15198  0.00000 -0.30397
      14     H     0.42327  0.42327  0.00000  0.15346
      15     H     0.42171  0.42171  0.00000  0.15658
      16     C     3.24144  3.24144  0.00000 -0.48288
      17     H     0.42091  0.42091  0.00000  0.15818
      18     H     0.42284  0.42284  0.00000  0.15432
      19     H     0.42219  0.42219  0.00000  0.15563
      20     H     0.41936  0.41936  0.00000  0.16129
      21     H     0.41896  0.41896  0.00000  0.16209

   Total alpha = 29.00000, Total beta = 29.00000, Total charge = -0.00000
