                              Psi4 1.0.54 Driver

  ==> Input File <==

--------------------------------------------------------------------------
set {
	reference rhf
	basis cc-pvtz
}

set_num_threads( 4 )
memory 2 gb

molecule MOL {
0 1

H	 -1.809258	 3.907668	 -0.899744
O	 -1.121528	 3.314995	 -1.140494
C	 -1.067312	 2.244797	 -0.234870
C	 0.051203	 1.313167	 -0.655717
H	 -0.886321	 2.608894	 0.774313
H	 -2.013024	 1.706890	 -0.224160
C	 0.196029	 0.106276	 0.266738
H	 0.978122	 1.877529	 -0.678903
H	 -0.139072	 0.984958	 -1.672570
C	 1.330220	 -0.826136	 -0.155230
H	 0.360637	 0.452251	 1.282573
H	 -0.736959	 -0.453110	 0.280980
C	 2.719700	 -0.407669	 0.328325
H	 1.339388	 -0.911200	 -1.239363
H	 1.119001	 -1.821953	 0.224128
C	 3.241564	 0.893452	 -0.276737
H	 3.418299	 -1.204729	 0.093035
H	 2.711776	 -0.323368	 1.411960
H	 3.254204	 0.841071	 -1.360784
H	 2.634460	 1.745075	 0.005842
H	 4.254264	 1.092401	 0.054971

	symmetry c1
}
set optking {
	frozen_dihedral = ("
		4 7 10 14
	")
}

ee,wfn = optimize('scf', return_wfn=True)
oeprop( wfn, 'DIPOLE', 'QUADRUPOLE', 'MULLIKEN_CHARGES')
f=open( 'psi4out.xyz', 'w' )
f.write( "21  " )
f.write( str(ee) + "\n" )
f.write( MOL.save_string_xyz() )
f.close()
--------------------------------------------------------------------------

    Molecular point group: c1
  Charge       = 0
  Multiplicity = 1
  Basis Set: CC-PVTZ
  Basis Set:
  @DF-RHF Final Energy:  -310.32494230502584
    Total Energy =                       -310.3249423050259566
    Molecular point group: c1
  Basis Set: CC-PVTZ
  Basis Set:
  Basis Set: CC-PVTZ
  Basis Set:
  @DF-RHF Final Energy:  -310.32215425393127
    Total Energy =                       -310.3221542539311031
  Basis Set: CC-PVTZ
  Basis Set:
  Basis Set: CC-PVTZ
  Basis Set:
  @DF-RHF Final Energy:  -310.32787852747413
    Total Energy =                       -310.3278785274740130
  Basis Set: CC-PVTZ
  Basis Set:
  Basis Set: CC-PVTZ
  Basis Set:
  @DF-RHF Final Energy:  -310.32822191755889
    Total Energy =                       -310.3282219175588352
  Basis Set: CC-PVTZ
  Basis Set:
  Basis Set: CC-PVTZ
  Basis Set:
  @DF-RHF Final Energy:  -310.32825358700404
    Total Energy =                       -310.3282535870043262
  Basis Set: CC-PVTZ
  Basis Set:
  Basis Set: CC-PVTZ
  Basis Set:
  @DF-RHF Final Energy:  -310.32825507228387
    Total Energy =                       -310.3282550722840938
  Basis Set: CC-PVTZ
  Basis Set:
  Charge       = 0
  Multiplicity = 1
  Basis Set: CC-PVTZ
  Basis Set:

    Orbital Energies (a.u.)
    -----------------------

    Doubly Occupied:

       1A    -20.545220     2A    -11.264572     3A    -11.214141
       4A    -11.212958     5A    -11.211940     6A    -11.207569
       7A    -11.204310     8A     -1.363023     9A     -1.084828
      10A     -1.031501    11A     -0.958362    12A     -0.877216
      13A     -0.809413    14A     -0.775081    15A     -0.695088
      16A     -0.661047    17A     -0.620677    18A     -0.608382
      19A     -0.587949    20A     -0.565563    21A     -0.546508
      22A     -0.522419    23A     -0.504030    24A     -0.496092
      25A     -0.479898    26A     -0.459961    27A     -0.447893
      28A     -0.441944    29A     -0.436814

  @DF-RHF Final Energy:  -310.32825519722257

   => Energetics <=

    Nuclear Repulsion Energy =            318.6891467862700438
    One-Electron Energy =               -1052.3660044082375862
    Two-Electron Energy =                 423.3486024247446835
    DFT Exchange-Correlation Energy =       0.0000000000000000
    Empirical Dispersion Energy =           0.0000000000000000
    PCM Polarization Energy =               0.0000000000000000
    EFP Energy =                            0.0000000000000000
    Total Energy =                       -310.3282551972228589
    Molecular point group: c1
  Basis Set: CC-PVTZ
  Basis Set:

  -Total Gradient:
     Atom            X                  Y                   Z
    ------   -----------------  -----------------  -----------------
       1       -0.000006439277     0.000000663567     0.000004834905
       2        0.000007126888    -0.000005298572    -0.000002080207
       3        0.000006249281     0.000004189817    -0.000010493998
       4        0.000392260988     0.000451098535     0.000450689738
       5        0.000002844233    -0.000000330347    -0.000005753251
       6       -0.000007895793    -0.000005861350     0.000001109118
       7       -0.000678706784    -0.000831254345    -0.000627654147
       8       -0.000000447066    -0.000012056028    -0.000000715280
       9       -0.000001730666     0.000005029789     0.000003091902
      10        0.000741774558     0.001274446201     0.000179119755
      11        0.000000928086    -0.000003610705     0.000001210164
      12       -0.000004321619     0.000005671109     0.000000231821
      13        0.000008519038    -0.000002854590     0.000009086085
      14       -0.000460000710    -0.000880655683     0.000020084717
      15        0.000006040497     0.000000331019    -0.000004268483
      16       -0.000000507137     0.000005858023    -0.000005921252
      17       -0.000000181925    -0.000009318210    -0.000004798618
      18       -0.000003085407    -0.000007834988    -0.000004386242
      19        0.000006595087     0.000003960213    -0.000006652569
      20       -0.000005116895     0.000008784550    -0.000000865470
      21       -0.000003905378    -0.000000958004     0.000004131311

  **** Optimization is complete! (in 7 steps) ****
    Final optimized geometry and variables:
    Molecular point group: c1

    Geometry (in Angstrom), charge = 0, multiplicity = 1:

    H           -3.220868139717     2.306932137964    -0.382710336336
    O           -2.409333862771     1.931656858060    -0.670289638244
    C           -2.077864143510     0.827210235167     0.129046343047
    C           -0.763404208205     0.253984932839    -0.362317068565
    H           -1.985171106884     1.126146815152     1.171216023794
    H           -2.857073837574     0.069869886056     0.074084042154
    C           -0.324900562853    -0.965969919230     0.447072808109
    H           -0.020230596347     1.038680317466    -0.330992176570
    H           -0.880116551435    -0.022413708886    -1.405548241604
    C            0.965796274342    -1.650834894218    -0.025682051711
    H           -0.221621696303    -0.693740084463     1.495310340619
    H           -1.126478528769    -1.698192197625     0.407587622469
    C            2.290352403713    -1.091787602853     0.503777895276
    H            0.983951774852    -1.674573447740    -1.112637961808
    H            0.919885985541    -2.689294645122     0.287864835982
    C            2.676521121625     0.314132618032     0.050515632879
    H            3.076310327820    -1.775825514024     0.197532614779
    H            2.274505809793    -1.123321762733     1.590205419545
    H            2.633746083856     0.406871853369    -1.029633854814
    H            2.031107277899     1.072085407556     0.474871386534
    H            3.689677917637     0.543624489361     0.361042201505

  Mulliken Charges: (a.u.)
   Center  Symbol    Alpha    Beta     Spin     Total
       1     H     0.39744  0.39744  0.00000  0.20513
       2     O     4.19532  4.19532  0.00000 -0.39064
       3     C     2.96538  2.96538  0.00000  0.06924
       4     C     3.08721  3.08721  0.00000 -0.17443
       5     H     0.47458  0.47458  0.00000  0.05085
       6     H     0.47278  0.47278  0.00000  0.05443
       7     C     3.10955  3.10955  0.00000 -0.21911
       8     H     0.44718  0.44718  0.00000  0.10565
       9     H     0.45076  0.45076  0.00000  0.09847
      10     C     3.10129  3.10129  0.00000 -0.20258
      11     H     0.45447  0.45447  0.00000  0.09105
      12     H     0.44793  0.44793  0.00000  0.10414
      13     C     3.08389  3.08389  0.00000 -0.16778
      14     H     0.45317  0.45317  0.00000  0.09367
      15     H     0.44559  0.44559  0.00000  0.10882
      16     C     3.16019  3.16019  0.00000 -0.32038
      17     H     0.44958  0.44958  0.00000  0.10085
      18     H     0.45527  0.45527  0.00000  0.08947
      19     H     0.45144  0.45144  0.00000  0.09711
      20     H     0.45249  0.45249  0.00000  0.09501
      21     H     0.44449  0.44449  0.00000  0.11102

   Total alpha = 29.00000, Total beta = 29.00000, Total charge = -0.00000

*** Psi4 exiting successfully. Buy a developer a beer!
