  ==> Input File <==

--------------------------------------------------------------------------
set {
	reference rhf
	basis cc-pvtz
}

set_num_threads( 4 )
memory 2 gb

molecule MOL {
0 1

H	 -0.856392	 -2.399144	 0.715329
N	 -0.101440	 -1.756078	 0.605387
C	 -0.561396	 -0.500007	 0.035200
H	 0.572583	 -2.191729	 0.011050
C	 0.575129	 0.507849	 -0.048832
H	 -1.339318	 -0.106979	 0.681408
H	 -1.006998	 -0.619580	 -0.953514
C	 1.951750	 -0.141983	 0.035101
H	 0.478254	 1.061643	 -0.975981
H	 0.467676	 1.231891	 0.755499
H	 2.101550	 -0.848142	 -0.774949
H	 2.738260	 0.600794	 -0.026526
H	 2.078939	 -0.679792	 0.968824

	symmetry c1
}
set optking {
	frozen_dihedral = ("
		6 3 5 9
	")
}

ee = optimize('scf')
oeprop('DIPOLE', 'QUADRUPOLE', 'MULLIKEN_CHARGES')
f=open( 'psi4out.xyz', 'w' )
f.write( "13  " )
f.write( str(ee) + "\n" )
f.write( MOL.save_string_xyz() )
f.close()
--------------------------------------------------------------------------

    Molecular point group: c1
  Charge       = 0
  Multiplicity = 1
  Basis Set: CC-PVTZ
  Basis Set:
  @DF-RHF Final Energy:  -173.34216197373067
    Total Energy =                       -173.3421619737304979
    Molecular point group: c1
  Basis Set: CC-PVTZ
  Basis Set:
  Basis Set: CC-PVTZ
  Basis Set:
  @DF-RHF Final Energy:  -173.34274969999558
    Total Energy =                       -173.3427496999955508
  Basis Set: CC-PVTZ
  Basis Set:
  Basis Set: CC-PVTZ
  Basis Set:
  @DF-RHF Final Energy:  -173.34464082030041
    Total Energy =                       -173.3446408203003557
  Basis Set: CC-PVTZ
  Basis Set:
  Basis Set: CC-PVTZ
  Basis Set:
  @DF-RHF Final Energy:  -173.34478520337720
    Total Energy =                       -173.3447852033772847
  Basis Set: CC-PVTZ
  Basis Set:
  Basis Set: CC-PVTZ
  Basis Set:
  @DF-RHF Final Energy:  -173.34479611209397
    Total Energy =                       -173.3447961120938601
  Basis Set: CC-PVTZ
  Basis Set:
  Charge       = 0
  Multiplicity = 1
  Basis Set: CC-PVTZ
  Basis Set:

    Orbital Energies (a.u.)
    -----------------------

    Doubly Occupied:

       1A    -15.525985     2A    -11.239340     3A    -11.210878
       4A    -11.202070     5A     -1.177034     6A     -1.027537
       7A     -0.907848     8A     -0.785372     9A     -0.670093
      10A     -0.639590    11A     -0.582392    12A     -0.561319
      13A     -0.543386    14A     -0.485178    15A     -0.477700
      16A     -0.464471    17A     -0.381300

  @DF-RHF Final Energy:  -173.34479695301101

   => Energetics <=

    Nuclear Repulsion Energy =            134.1340057727250894
    One-Electron Energy =                -499.1946176812118665
    Two-Electron Energy =                 191.7158149554757074
    DFT Exchange-Correlation Energy =       0.0000000000000000
    Empirical Dispersion Energy =           0.0000000000000000
    PCM Polarization Energy =               0.0000000000000000
    EFP Energy =                            0.0000000000000000
    Total Energy =                       -173.3447969530110413
    Molecular point group: c1
  Basis Set: CC-PVTZ
  Basis Set:

  -Total Gradient:
     Atom            X                  Y                   Z
    ------   -----------------  -----------------  -----------------
       1        0.000014844271     0.000013654748    -0.000007346649
       2        0.000029954385     0.000021422352    -0.000001358078
       3       -0.002268062870     0.002257126918    -0.006346381734
       4       -0.000008520305    -0.000000219431     0.000024428938
       5       -0.003650650023     0.004238694400     0.004322102943
       6        0.002477938556    -0.002583964155     0.004713850431
       7       -0.000013196601     0.000036467996    -0.000011869159
       8       -0.000035059597    -0.000004881692    -0.000006440220
       9        0.003425274151    -0.003970990136    -0.002695781904
      10       -0.000011491269     0.000020156038    -0.000001801027
      11        0.000035173551     0.000024031611     0.000010704814
      12        0.000005910390    -0.000000677881     0.000010794660
      13       -0.000002114638    -0.000050820769    -0.000010903015

  **** Optimization is complete! (in 6 steps) ****
    Final optimized geometry and variables:
    Molecular point group: c1

    Geometry (in Angstrom), charge = 0, multiplicity = 1:

    H           -1.439375153435    -1.850715396595     0.614444856739
    N           -0.635680511086    -1.277704954026     0.469652800523
    C           -1.020011833662    -0.011337654845    -0.143632555782
    H           -0.010218314348    -1.793586687453    -0.111633283542
    C            0.130359233966     1.017173582520    -0.177434111337
    H           -1.810947189876     0.379015843847     0.484641193830
    H           -1.422989803712    -0.141020362643    -1.146110811630
    C            1.539149660351     0.423754295857    -0.140586851537
    H            0.052950791135     1.580127970363    -1.101815161882
    H            0.024089240583     1.714930931770     0.644367108978
    H            1.713548958170    -0.243368361337    -0.979784873020
    H            2.276174244289     1.216204699054    -0.203147713570
    H            1.715684675192    -0.130594345660     0.770347526991

  Mulliken Charges: (a.u.)
   Center  Symbol    Alpha    Beta     Spin     Total
       1     H     0.42920  0.42920  0.00000  0.14159
       2     N     3.69099  3.69099  0.00000 -0.38199
       3     C     3.03284  3.03284  0.00000 -0.06568
       4     H     0.42793  0.42793  0.00000  0.14415
       5     C     3.07740  3.07740  0.00000 -0.15480
       6     H     0.45645  0.45645  0.00000  0.08709
       7     H     0.46354  0.46354  0.00000  0.07291
       8     C     3.15962  3.15962  0.00000 -0.31924
       9     H     0.45613  0.45613  0.00000  0.08773
      10     H     0.45384  0.45384  0.00000  0.09231
      11     H     0.45944  0.45944  0.00000  0.08112
      12     H     0.44849  0.44849  0.00000  0.10302
      13     H     0.44411  0.44411  0.00000  0.11177

   Total alpha = 17.00000, Total beta = 17.00000, Total charge = -0.00000
