                              Psi4 1.0.54 Driver

  ==> Input File <==

--------------------------------------------------------------------------
set {
	reference rhf
	basis cc-pvtz
}

set_num_threads( 4 )
memory 2 gb

molecule MOL {
0 1

H	 -2.816458	 -0.841657	 -0.064679
N	 -1.878861	 -0.711874	 0.250184
C	 -1.341419	 0.551458	 -0.220231
H	 -1.333674	 -1.468530	 -0.105118
C	 -2.448551	 1.564953	 -0.398376
H	 -0.589911	 0.976790	 0.443751
H	 -0.870576	 0.391115	 -1.183894
O	 -3.005840	 1.846875	 0.849686
H	 -2.048498	 2.474880	 -0.843531
H	 -3.207321	 1.163708	 -1.066357
C	 -4.086318	 2.718968	 0.814450
H	 -4.429603	 2.864096	 1.828590
H	 -3.804671	 3.684544	 0.399681
H	 -4.904050	 2.315556	 0.221884

	symmetry c1
}
set optking {
	frozen_dihedral = ("
		6 3 2 4
	")
}

ee,wfn = optimize('scf', return_wfn=True)
oeprop( wfn, 'DIPOLE', 'QUADRUPOLE', 'MULLIKEN_CHARGES')
f=open( 'psi4out.xyz', 'w' )
f.write( "14  " )
f.write( str(ee) + "\n" )
f.write( MOL.save_string_xyz() )
f.close()
--------------------------------------------------------------------------

    Molecular point group: c1
  Charge       = 0
  Multiplicity = 1
  Basis Set: CC-PVTZ
  Basis Set:
  @DF-RHF Final Energy:  -248.21814528159737
    Total Energy =                       -248.2181452815975717
    Molecular point group: c1
  Basis Set: CC-PVTZ
  Basis Set:
  Basis Set: CC-PVTZ
  Basis Set:
  @DF-RHF Final Energy:  -247.77239572897486
    Total Energy =                       -247.7723957289747432
  Basis Set: CC-PVTZ
  Basis Set:
  Basis Set: CC-PVTZ
  Basis Set:
  @DF-RHF Final Energy:  -247.93641756453152
    Total Energy =                       -247.9364175645314958
  Basis Set: CC-PVTZ
  Basis Set:
  Basis Set: CC-PVTZ
  Basis Set:
  @DF-RHF Final Energy:  -248.15770750517996
    Total Energy =                       -248.1577075051799852
  Basis Set: CC-PVTZ
  Basis Set:
  @DF-RHF Final Energy:  -248.21547962804652
    Total Energy =                       -248.2154796280465803
  Basis Set: CC-PVTZ
  Basis Set:
  @DF-RHF Final Energy:  -248.21970840180020
    Total Energy =                       -248.2197084018004034
  Basis Set: CC-PVTZ
  Basis Set:
  Basis Set: CC-PVTZ
  Basis Set:
  @DF-RHF Final Energy:  -248.21983605212404
    Total Energy =                       -248.2198360521239238
  Basis Set: CC-PVTZ
  Basis Set:
  Basis Set: CC-PVTZ
  Basis Set:
  @DF-RHF Final Energy:  -248.21984727637800
    Total Energy =                       -248.2198472763781751
  Basis Set: CC-PVTZ
  Basis Set:
  Charge       = 0
  Multiplicity = 1
  Basis Set: CC-PVTZ
  Basis Set:

    Orbital Energies (a.u.)
    -----------------------

    Doubly Occupied:

       1A    -20.548847     2A    -15.523852     3A    -11.269625
       4A    -11.263052     5A    -11.241309     6A     -1.384977
       7A     -1.175486     8A     -1.001973     9A     -0.907715
      10A     -0.821114    11A     -0.685505    12A     -0.669911
      13A     -0.654332    14A     -0.613235    15A     -0.583494
      16A     -0.578756    17A     -0.519420    18A     -0.500144
      19A     -0.470712    20A     -0.420140    21A     -0.381076

  @DF-RHF Final Energy:  -248.21984797038238

   => Energetics <=

    Nuclear Repulsion Energy =            194.0290489231633160
    One-Electron Energy =                -722.0684438516123009
    Two-Electron Energy =                 279.8195469580665531
    DFT Exchange-Correlation Energy =       0.0000000000000000
    Empirical Dispersion Energy =           0.0000000000000000
    PCM Polarization Energy =               0.0000000000000000
    EFP Energy =                            0.0000000000000000
    Total Energy =                       -248.2198479703823750
    Molecular point group: c1
  Basis Set: CC-PVTZ
  Basis Set:

  -Total Gradient:
     Atom            X                  Y                   Z
    ------   -----------------  -----------------  -----------------
       1       -0.000003675764     0.000012029195    -0.000027526572
       2        0.000098687267    -0.000423310778     0.001927754766
       3        0.001553114118    -0.000230416448    -0.000853647367
       4       -0.000330746919     0.000417233948    -0.001429836605
       5       -0.000033858788    -0.000055495681    -0.000037828045
       6       -0.001291325322     0.000281354164     0.000399703198
       7       -0.000027898867    -0.000015281453     0.000013313679
       8        0.000017537353     0.000025059670    -0.000005749612
       9       -0.000016384353    -0.000022056021     0.000012672359
      10        0.000000436571     0.000017526792    -0.000012643581
      11        0.000033425143    -0.000009059052     0.000014806046
      12        0.000002497383     0.000004894445    -0.000007875304
      13       -0.000011780638     0.000003170531    -0.000002582781
      14        0.000009972815    -0.000005649310     0.000009439821

  **** Optimization is complete! (in 9 steps) ****
    Final optimized geometry and variables:
    Molecular point group: c1

    Geometry (in Angstrom), charge = 0, multiplicity = 1:

    H            0.269236253260    -1.770857322473    -1.143796895426
    N            0.984811842170    -1.751859105525    -0.448693311730
    C            1.402355171033    -0.388189209202    -0.159262727394
    H            1.745154552451    -2.296706070537    -0.793451654761
    C            0.278311879729     0.610071335771    -0.336114358547
    H            1.740623679605    -0.332686210146     0.869328602086
    H            2.222556601059    -0.057075635685    -0.794293354803
    O           -0.756789918263     0.334666700532     0.549152767811
    H            0.666765430628     1.613014401111    -0.162995297456
    H           -0.087910009550     0.578835984391    -1.364182249139
    C           -1.834448013405     1.204985155178     0.459744362689
    H           -2.569228055019     0.897810067816     1.189438596486
    H           -1.538546873730     2.230694522746     0.671213788535
    H           -2.290123493474     1.177046618510    -0.528139703499

  Mulliken Charges: (a.u.)
   Center  Symbol    Alpha    Beta     Spin     Total
       1     H     0.43314  0.43314  0.00000  0.13372
       2     N     3.68085  3.68085  0.00000 -0.36169
       3     C     3.01703  3.01703  0.00000 -0.03406
       4     H     0.43178  0.43178  0.00000  0.13644
       5     C     2.97018  2.97018  0.00000  0.05964
       6     H     0.46022  0.46022  0.00000  0.07957
       7     H     0.46916  0.46916  0.00000  0.06169
       8     O     4.16793  4.16793  0.00000 -0.33586
       9     H     0.46793  0.46793  0.00000  0.06414
      10     H     0.47840  0.47840  0.00000  0.04319
      11     C     3.03229  3.03229  0.00000 -0.06458
      12     H     0.44550  0.44550  0.00000  0.10900
      13     H     0.47260  0.47260  0.00000  0.05480
      14     H     0.47301  0.47301  0.00000  0.05399

   Total alpha = 21.00000, Total beta = 21.00000, Total charge = -0.00000

*** Psi4 exiting successfully. Buy a developer a beer!
