  ==> Input File <==

--------------------------------------------------------------------------
set {
	reference rhf
	basis 6-31G*
}

set_num_threads( 1 )
memory 2 gb

molecule MOL {
0 1

H	 -3.420663	 1.227371	 -1.044276
O	 -3.452007	 0.283848	 -0.965577
C	 -3.181085	 -0.079926	 0.364119
C	 -1.765924	 0.277073	 0.805136
H	 -3.327791	 -1.152017	 0.410903
H	 -3.905698	 0.375695	 1.036898
C	 -0.677594	 -0.417312	 -0.014550
H	 -1.637766	 1.358238	 0.744969
H	 -1.659588	 0.017670	 1.857098
C	 0.738335	 -0.034840	 0.421385
H	 -0.814977	 -0.178223	 -1.064632
H	 -0.802730	 -1.495410	 0.071702
C	 1.822265	 -0.738362	 -0.399735
H	 0.853533	 1.043532	 0.342250
H	 0.871597	 -0.279636	 1.474438
C	 2.059383	 -2.205989	 -0.025569
H	 2.757741	 -0.189005	 -0.306003
H	 1.547725	 -0.690710	 -1.451483
C	 2.629975	 -2.420307	 1.377605
H	 2.744789	 -2.639428	 -0.749889
H	 1.126453	 -2.757468	 -0.124131
H	 3.557768	 -1.869920	 1.509561
H	 2.842701	 -3.470802	 1.550936
H	 1.940650	 -2.096922	 2.150533

	symmetry c1
}
set optking {
	frozen_dihedral = ("
		20 16 13 17,
		13 10 7 11,
		11 7 4 3,
		1 2 3 5,
		7 4 3 2
	")
}

ee = energy('scf')
oeprop('DIPOLE', 'QUADRUPOLE', 'MULLIKEN_CHARGES')
f=open( 'psi4out.xyz', 'w' )
f.write( "24  " )
f.write( str(ee) + "\n" )
f.write( MOL.save_string_xyz() )
f.close()
--------------------------------------------------------------------------

    Molecular point group: c1

    Geometry (in Angstrom), charge = 0, multiplicity = 1:

       Center              X                  Y                   Z               Mass
    ------------   -----------------  -----------------  -----------------  -----------------
           H         -3.136339900072     1.880083095555    -1.228183791915     1.007825032070
           O         -3.167683900072     0.936560095555    -1.149484791915    15.994914619560
           C         -2.896761900072     0.572786095555     0.180211208085    12.000000000000
           C         -1.481600900072     0.929785095555     0.621228208085    12.000000000000
           H         -3.043467900072    -0.499304904445     0.226995208085     1.007825032070
           H         -3.621374900072     1.028407095555     0.852990208085     1.007825032070
           C         -0.393270900072     0.235400095555    -0.198457791915    12.000000000000
           H         -1.353442900072     2.010950095555     0.561061208085     1.007825032070
           H         -1.375264900072     0.670382095555     1.673190208085     1.007825032070
           C          1.022658099928     0.617872095555     0.237477208085    12.000000000000
           H         -0.530653900072     0.474489095555    -1.248539791915     1.007825032070
           H         -0.518406900072    -0.842697904445    -0.112205791915     1.007825032070
           C          2.106588099928    -0.085649904445    -0.583642791915    12.000000000000
           H          1.137856099928     1.696244095555     0.158342208085     1.007825032070
           H          1.155920099928     0.373076095555     1.290530208085     1.007825032070
           C          2.343706099928    -1.553276904445    -0.209476791915    12.000000000000
           H          3.042064099928     0.463707095555    -0.489910791915     1.007825032070
           H          1.832048099928    -0.037997904445    -1.635390791915     1.007825032070
           C          2.914298099928    -1.767594904445     1.193697208085    12.000000000000
           H          3.029112099928    -1.986715904445    -0.933796791915     1.007825032070
           H          1.410776099928    -2.104755904445    -0.308038791915     1.007825032070
           H          3.842091099928    -1.217207904445     1.325653208085     1.007825032070
           H          3.127024099928    -2.818089904445     1.367028208085     1.007825032070
           H          2.224973099928    -1.444209904445     1.966625208085     1.007825032070

  Charge       = 0
  Multiplicity = 1
  Basis Set: 6-31G*
  Basis Set:

    Orbital Energies (a.u.)
    -----------------------

    Doubly Occupied:

       1A    -20.553578     2A    -11.267688     3A    -11.217368
       4A    -11.213562     5A    -11.211836     6A    -11.211125
       7A    -11.210559     8A    -11.207441     9A     -1.360167
      10A     -1.089760    11A     -1.046721    12A     -0.984766
      13A     -0.915155    14A     -0.852752    15A     -0.807852
      16A     -0.765568    17A     -0.680155    18A     -0.652545
      19A     -0.625172    20A     -0.617174    21A     -0.607926
      22A     -0.574807    23A     -0.557950    24A     -0.544835
      25A     -0.520861    26A     -0.508677    27A     -0.494646
      28A     -0.476253    29A     -0.467960    30A     -0.461067
      31A     -0.450968    32A     -0.446194    33A     -0.419616

  @DF-RHF Final Energy:  -349.24511662765678

   => Energetics <=

    Nuclear Repulsion Energy =            390.0257887066139801
    One-Electron Energy =               -1246.4966119535206417
    Two-Electron Energy =                 507.2257066192497632
    DFT Exchange-Correlation Energy =       0.0000000000000000
    Empirical Dispersion Energy =           0.0000000000000000
    PCM Polarization Energy =               0.0000000000000000
    EFP Energy =                            0.0000000000000000
    Total Energy =                       -349.2451166276568983

  Mulliken Charges: (a.u.)
   Center  Symbol    Alpha    Beta     Spin     Total
       1     H     0.28337  0.28337  0.00000  0.43326
       2     O     4.36831  4.36831  0.00000 -0.73661
       3     C     2.99606  2.99606  0.00000  0.00789
       4     C     3.16849  3.16849  0.00000 -0.33697
       5     H     0.41647  0.41647  0.00000  0.16706
       6     H     0.42826  0.42826  0.00000  0.14349
       7     C     3.15377  3.15377  0.00000 -0.30753
       8     H     0.42832  0.42832  0.00000  0.14336
       9     H     0.42259  0.42259  0.00000  0.15482
      10     C     3.15577  3.15577  0.00000 -0.31155
      11     H     0.41202  0.41202  0.00000  0.17596
      12     H     0.42256  0.42256  0.00000  0.15487
      13     C     3.15498  3.15498  0.00000 -0.30996
      14     H     0.42241  0.42241  0.00000  0.15519
      15     H     0.42301  0.42301  0.00000  0.15397
      16     C     3.15436  3.15436  0.00000 -0.30872
      17     H     0.42261  0.42261  0.00000  0.15477
      18     H     0.42122  0.42122  0.00000  0.15757
      19     C     3.24069  3.24069  0.00000 -0.48138
      20     H     0.42049  0.42049  0.00000  0.15901
      21     H     0.42163  0.42163  0.00000  0.15674
      22     H     0.42215  0.42215  0.00000  0.15570
      23     H     0.41920  0.41920  0.00000  0.16160
      24     H     0.42127  0.42127  0.00000  0.15745

   Total alpha = 33.00000, Total beta = 33.00000, Total charge =  0.00000
