  ==> Input File <==

--------------------------------------------------------------------------
set {
	reference rhf
	basis 6-31G*
}

set_num_threads( 1 )
memory 2 gb

molecule MOL {
0 1

H	 2.591676	 2.013956	 0.335017
O	 3.341076	 1.666752	 -0.126416
C	 3.569581	 0.339145	 0.272707
C	 2.539767	 -0.640285	 -0.279495
H	 4.553106	 0.084646	 -0.100901
H	 3.608576	 0.269204	 1.359154
C	 1.115811	 -0.397273	 0.226630
H	 2.556196	 -0.582511	 -1.364741
H	 2.852081	 -1.648031	 -0.010655
C	 1.074899	 0.020426	 1.699271
H	 0.528955	 -1.301236	 0.089454
H	 0.644072	 0.377731	 -0.377664
C	 -0.321417	 0.359186	 2.233954
H	 1.511298	 -0.769628	 2.307726
H	 1.714093	 0.891093	 1.829925
C	 -1.290726	 -0.824251	 2.300250
H	 -0.212961	 0.774832	 3.233600
H	 -0.757727	 1.149164	 1.624523
C	 -2.633438	 -0.460059	 2.937373
H	 -0.832181	 -1.632499	 2.868214
H	 -1.470692	 -1.217002	 1.302421
C	 -3.605205	 -1.637999	 2.998947
H	 -2.463573	 -0.079913	 3.942421
H	 -3.088598	 0.353962	 2.376941
H	 -3.192058	 -2.457067	 3.580893
H	 -4.546022	 -1.348773	 3.457036
H	 -3.824716	 -2.018079	 2.005107

	symmetry c1
}
set optking {
	frozen_dihedral = ("
		14 10 7 4,
		14 10 13 16,
		8 4 3 2,
		10 13 16 20,
		20 16 19 22,
		4 3 2 1
	")
}

ee = energy('scf')
oeprop('DIPOLE', 'QUADRUPOLE', 'MULLIKEN_CHARGES')
f=open( 'psi4out.xyz', 'w' )
f.write( "27  " )
f.write( str(ee) + "\n" )
f.write( MOL.save_string_xyz() )
f.close()
--------------------------------------------------------------------------

    Molecular point group: c1

    Geometry (in Angstrom), charge = 0, multiplicity = 1:

       Center              X                  Y                   Z               Mass
    ------------   -----------------  -----------------  -----------------  -----------------
           H          2.138269847918     2.163259974578    -1.012305083645     1.007825032070
           O          2.887669847918     1.816055974578    -1.473738083645    15.994914619560
           C          3.116174847918     0.488448974578    -1.074615083645    12.000000000000
           C          2.086360847918    -0.490981025422    -1.626817083645    12.000000000000
           H          4.099699847918     0.233949974578    -1.448223083645     1.007825032070
           H          3.155169847918     0.418507974578     0.011831916355     1.007825032070
           C          0.662404847918    -0.247969025422    -1.120692083645    12.000000000000
           H          2.102789847918    -0.433207025422    -2.712063083645     1.007825032070
           H          2.398674847918    -1.498727025422    -1.357977083645     1.007825032070
           C          0.621492847918     0.169729974578     0.351948916355    12.000000000000
           H          0.075548847918    -1.151932025422    -1.257868083645     1.007825032070
           H          0.190665847918     0.527034974578    -1.724986083645     1.007825032070
           C         -0.774823152082     0.508489974578     0.886631916355    12.000000000000
           H          1.057891847918    -0.620324025422     0.960403916355     1.007825032070
           H          1.260686847918     1.040396974578     0.482602916355     1.007825032070
           C         -1.744132152082    -0.674947025422     0.952927916355    12.000000000000
           H         -0.666367152082     0.924135974578     1.886277916355     1.007825032070
           H         -1.211133152082     1.298467974578     0.277200916355     1.007825032070
           C         -3.086844152082    -0.310755025422     1.590050916355    12.000000000000
           H         -1.285587152082    -1.483195025422     1.520891916355     1.007825032070
           H         -1.924098152082    -1.067698025422    -0.044901083645     1.007825032070
           C         -4.058611152082    -1.488695025422     1.651624916355    12.000000000000
           H         -2.916979152082     0.069390974578     2.595098916355     1.007825032070
           H         -3.542004152082     0.503265974578     1.029618916355     1.007825032070
           H         -3.645464152082    -2.307763025422     2.233570916355     1.007825032070
           H         -4.999428152082    -1.199469025422     2.109713916355     1.007825032070
           H         -4.278122152082    -1.868775025422     0.657784916355     1.007825032070

  Charge       = 0
  Multiplicity = 1
  Basis Set: 6-31G*
  Basis Set:

    Orbital Energies (a.u.)
    -----------------------

    Doubly Occupied:

       1A    -20.551673     2A    -11.264553     3A    -11.222591
       4A    -11.219188     5A    -11.219062     6A    -11.217627
       7A    -11.216403     8A    -11.214542     9A    -11.210540
      10A     -1.358785    11A     -1.098870    12A     -1.063461
      13A     -1.011357    14A     -0.946597    15A     -0.894749
      16A     -0.830256    17A     -0.799299    18A     -0.773182
      19A     -0.693490    20A     -0.653347    21A     -0.645481
      22A     -0.611806    23A     -0.600307    24A     -0.585552
      25A     -0.572967    26A     -0.565309    27A     -0.544509
      28A     -0.527618    29A     -0.515598    30A     -0.498288
      31A     -0.483814    32A     -0.474739    33A     -0.465267
      34A     -0.460357    35A     -0.455659    36A     -0.443593
      37A     -0.421417

  @DF-RHF Final Energy:  -388.27502848898155

   => Energetics <=

    Nuclear Repulsion Energy =            467.7186711429421848
    One-Electron Energy =               -1453.3237668628403298
    Two-Electron Energy =                 597.3300672309171659
    DFT Exchange-Correlation Energy =       0.0000000000000000
    Empirical Dispersion Energy =           0.0000000000000000
    PCM Polarization Energy =               0.0000000000000000
    EFP Energy =                            0.0000000000000000
    Total Energy =                       -388.2750284889809791

  Mulliken Charges: (a.u.)
   Center  Symbol    Alpha    Beta     Spin     Total
       1     H     0.27742  0.27742  0.00000  0.44516
       2     O     4.37407  4.37407  0.00000 -0.74814
       3     C     3.00545  3.00545  0.00000 -0.01090
       4     C     3.16102  3.16102  0.00000 -0.32204
       5     H     0.41368  0.41368  0.00000  0.17264
       6     H     0.42649  0.42649  0.00000  0.14703
       7     C     3.16406  3.16406  0.00000 -0.32813
       8     H     0.41289  0.41289  0.00000  0.17422
       9     H     0.42389  0.42389  0.00000  0.15222
      10     C     3.16115  3.16115  0.00000 -0.32231
      11     H     0.41487  0.41487  0.00000  0.17026
      12     H     0.42043  0.42043  0.00000  0.15913
      13     C     3.15112  3.15112  0.00000 -0.30224
      14     H     0.42051  0.42051  0.00000  0.15898
      15     H     0.43023  0.43023  0.00000  0.13955
      16     C     3.15331  3.15331  0.00000 -0.30662
      17     H     0.42110  0.42110  0.00000  0.15781
      18     H     0.42406  0.42406  0.00000  0.15189
      19     C     3.15143  3.15143  0.00000 -0.30286
      20     H     0.42420  0.42420  0.00000  0.15160
      21     H     0.42142  0.42142  0.00000  0.15716
      22     C     3.23934  3.23934  0.00000 -0.47869
      23     H     0.42289  0.42289  0.00000  0.15421
      24     H     0.42270  0.42270  0.00000  0.15461
      25     H     0.42171  0.42171  0.00000  0.15659
      26     H     0.41890  0.41890  0.00000  0.16220
      27     H     0.42166  0.42166  0.00000  0.15667

   Total alpha = 37.00000, Total beta = 37.00000, Total charge =  0.00000
