  ==> Input File <==

--------------------------------------------------------------------------
set {
	reference rhf
	basis 6-31G*
}

set_num_threads( 4 )
memory 2 gb

molecule MOL {
0 1

H	 -3.161837	 0.500524	 -0.000234
C	 -2.367097	 -0.232926	 -0.000000
O	 -1.158440	 0.455814	 -0.000122
H	 -2.468853	 -0.861886	 -0.882833
H	 -2.468942	 -0.861421	 0.883154
C	 -0.029776	 -0.365156	 0.000148
C	 0.670248	 -0.236556	 -1.341527
H	 -0.319517	 -1.401605	 0.178256
H	 0.644071	 -0.076648	 0.807985
C	 1.923844	 -1.105541	 -1.432300
H	 -0.031911	 -0.508556	 -2.123607
H	 0.925011	 0.807098	 -1.498316
H	 1.687016	 -2.157877	 -1.302204
H	 2.403139	 -0.993981	 -2.399087
H	 2.650576	 -0.833340	 -0.671924

	symmetry c1
}
set optking {
	frozen_dihedral = ("
		8 6 3 2
	")
}

ee = optimize('scf')
oeprop('DIPOLE', 'QUADRUPOLE', 'MULLIKEN_CHARGES')
f=open( 'psi4out.xyz', 'w' )
f.write( "15  " )
f.write( str(ee) + "\n" )
f.write( MOL.save_string_xyz() )
f.close()
--------------------------------------------------------------------------

    Molecular point group: c1
  Charge       = 0
  Multiplicity = 1
  Basis Set: 6-31G*
  Basis Set:
  @DF-RHF Final Energy:  -232.13504578192291
    Total Energy =                       -232.1350457819229405
    Molecular point group: c1
  Basis Set: 6-31G*
  Basis Set:
  Basis Set: 6-31G*
  Basis Set:
  @DF-RHF Final Energy:  -232.13553804960014
    Total Energy =                       -232.1355380496000862
  Basis Set: 6-31G*
  Basis Set:
  Basis Set: 6-31G*
  Basis Set:
  @DF-RHF Final Energy:  -232.13566410128502
    Total Energy =                       -232.1356641012849877
  Basis Set: 6-31G*
  Basis Set:
  Basis Set: 6-31G*
  Basis Set:
  @DF-RHF Final Energy:  -232.13566553405681
    Total Energy =                       -232.1356655340567841
  Basis Set: 6-31G*
  Basis Set:
  Charge       = 0
  Multiplicity = 1
  Basis Set: 6-31G*
  Basis Set:

    Orbital Energies (a.u.)
    -----------------------

    Doubly Occupied:

       1A    -20.550137     2A    -11.265925     3A    -11.264815
       4A    -11.214343     5A    -11.213279     6A     -1.373294
       7A     -1.056059     8A     -0.956725     9A     -0.879874
      10A     -0.807864    11A     -0.669463    12A     -0.652912
      13A     -0.635611    14A     -0.599143    15A     -0.569127
      16A     -0.537755    17A     -0.507889    18A     -0.494810
      19A     -0.481588    20A     -0.461557    21A     -0.403763

  @DF-RHF Final Energy:  -232.13566566716904

   => Energetics <=

    Nuclear Repulsion Energy =            190.3005363252417794
    One-Electron Energy =                -691.6805356768644515
    Two-Electron Energy =                 269.2443336844535793
    DFT Exchange-Correlation Energy =       0.0000000000000000
    Empirical Dispersion Energy =           0.0000000000000000
    PCM Polarization Energy =               0.0000000000000000
    EFP Energy =                            0.0000000000000000
    Total Energy =                       -232.1356656671691212
    Molecular point group: c1
  Basis Set: 6-31G*
  Basis Set:

  -Total Gradient:
     Atom            X                  Y                   Z
    ------   -----------------  -----------------  -----------------
       1        0.000001729645    -0.000004680316    -0.000001173880
       2        0.000017081336    -0.000015802673     0.000634357974
       3       -0.000017024321     0.000000527682    -0.001124825231
       4        0.000001367375     0.000000763862     0.000003661759
       5       -0.000000733834    -0.000005119590    -0.000000550777
       6        0.000090855365     0.000142689918     0.001258902891
       7       -0.000018942278    -0.000014439874     0.000018720699
       8       -0.000099296189    -0.000106672490    -0.000771277301
       9        0.000003542649    -0.000000711368    -0.000000755896
      10        0.000015897671     0.000018739780    -0.000007330058
      11       -0.000004395593     0.000000423797     0.000003083432
      12        0.000001985461    -0.000003905812    -0.000006386481
      13       -0.000002250953     0.000003139534    -0.000005343627
      14        0.000014111973    -0.000005680801    -0.000002041972
      15       -0.000003928305    -0.000009271650     0.000000958468

  **** Optimization is complete! (in 5 steps) ****
    Final optimized geometry and variables:
    Molecular point group: c1

    Geometry (in Angstrom), charge = 0, multiplicity = 1:

    H           -2.948147521826     0.849538122050     0.570786886567
    C           -2.177073486399     0.090997398796     0.574543820619
    O           -0.948220418667     0.745303664636     0.557811844651
    H           -2.310004420206    -0.544219588265    -0.299153435957
    H           -2.293511767742    -0.520721583109     1.466765082423
    C            0.184462913265    -0.080866641868     0.516771754189
    C            0.905164652991     0.057448393100    -0.817518480678
    H           -0.093254187934    -1.119874928917     0.681503372934
    H            0.842382867398     0.211759822252     1.329578569161
    C            2.176707373897    -0.787387233411    -0.886799218171
    H            0.224627023028    -0.226912962173    -1.615994544076
    H            1.142967757446     1.105655016110    -0.970834773326
    H            1.957930884284    -1.844755359371    -0.763952026019
    H            2.674833324083    -0.664343626123    -1.842693348270
    H            2.881472670695    -0.504003389793    -0.109973278434

  Mulliken Charges: (a.u.)
   Center  Symbol    Alpha    Beta     Spin     Total
       1     H     0.41293  0.41293  0.00000  0.17415
       2     C     3.07920  3.07920  0.00000 -0.15840
       3     O     4.30872  4.30872  0.00000 -0.61745
       4     H     0.43121  0.43121  0.00000  0.13757
       5     H     0.42935  0.42935  0.00000  0.14131
       6     C     2.98639  2.98639  0.00000  0.02721
       7     C     3.15811  3.15811  0.00000 -0.31621
       8     H     0.43192  0.43192  0.00000  0.13616
       9     H     0.42133  0.42133  0.00000  0.15734
      10     C     3.24886  3.24886  0.00000 -0.49772
      11     H     0.42084  0.42084  0.00000  0.15831
      12     H     0.41377  0.41377  0.00000  0.17247
      13     H     0.42172  0.42172  0.00000  0.15656
      14     H     0.41557  0.41557  0.00000  0.16886
      15     H     0.42008  0.42008  0.00000  0.15984

   Total alpha = 21.00000, Total beta = 21.00000, Total charge = -0.00000
