  ==> Input File <==

--------------------------------------------------------------------------
set {
	reference rhf
	basis 6-31G*
}

set_num_threads( 1 )
memory 2 gb

molecule MOL {
0 1

O	 0.234241	 0.914979	 0.891860
C	 0.486307	 0.169203	 0.000779
C	 1.608116	 -0.841643	 0.000302
O	 -0.198594	 0.128922	 -1.133635
C	 2.990107	 -0.200498	 -0.000684
H	 1.468623	 -1.481519	 -0.865924
H	 1.469683	 -1.481289	 0.866878
H	 3.129736	 0.423364	 -0.875135
H	 3.757882	 -0.966877	 -0.001197
H	 3.130964	 0.423383	 0.873533
C	 -1.290407	 1.031846	 -1.275316
C	 -1.901619	 0.794282	 -2.639975
H	 -0.925948	 2.044742	 -1.171409
H	 -2.002359	 0.851586	 -0.481451
H	 -1.174500	 0.973688	 -3.423728
H	 -2.741391	 1.464943	 -2.790464
H	 -2.256896	 -0.225971	 -2.730080

	symmetry c1
}
set optking {
	frozen_dihedral = ("
		2 4 11 13,
		11 4 2 3
	")
}

ee = energy('scf')
oeprop('DIPOLE', 'QUADRUPOLE', 'MULLIKEN_CHARGES')
f=open( 'psi4out.xyz', 'w' )
f.write( "17  " )
f.write( str(ee) + "\n" )
f.write( MOL.save_string_xyz() )
f.close()
--------------------------------------------------------------------------

    Molecular point group: c1

    Geometry (in Angstrom), charge = 0, multiplicity = 1:

       Center              X                  Y                   Z               Mass
    ------------   -----------------  -----------------  -----------------  -----------------
           O         -0.031916495569     0.619320539464     1.494671506618    15.994914619560
           C          0.220149504431    -0.126455460536     0.603590506618    12.000000000000
           C          1.341958504431    -1.137301460536     0.603113506618    12.000000000000
           O         -0.464751495569    -0.166736460536    -0.530823493382    15.994914619560
           C          2.723949504431    -0.496156460536     0.602127506618    12.000000000000
           H          1.202465504431    -1.777177460536    -0.263112493382     1.007825032070
           H          1.203525504431    -1.776947460536     1.469689506618     1.007825032070
           H          2.863578504431     0.127705539464    -0.272323493382     1.007825032070
           H          3.491724504431    -1.262535460536     0.601614506618     1.007825032070
           H          2.864806504431     0.127724539464     1.476344506618     1.007825032070
           C         -1.556564495569     0.736187539464    -0.672504493382    12.000000000000
           C         -2.167776495569     0.498623539464    -2.037163493382    12.000000000000
           H         -1.192105495569     1.749083539464    -0.568597493382     1.007825032070
           H         -2.268516495569     0.555927539464     0.121360506618     1.007825032070
           H         -1.440657495569     0.678029539464    -2.820916493382     1.007825032070
           H         -3.007548495569     1.169284539464    -2.187652493382     1.007825032070
           H         -2.523053495569    -0.521629460536    -2.127268493382     1.007825032070

  Charge       = 0
  Multiplicity = 1
  Basis Set: 6-31G*
  Basis Set:

    Orbital Energies (a.u.)
    -----------------------

    Doubly Occupied:

       1A    -20.602350     2A    -20.542120     3A    -11.370656
       4A    -11.284318     5A    -11.235622     6A    -11.224619
       7A    -11.222291     8A     -1.467401     9A     -1.360896
      10A     -1.072014    11A     -1.032151    12A     -0.911126
      13A     -0.851388    14A     -0.775963    15A     -0.693485
      16A     -0.684719    17A     -0.666796    18A     -0.616089
      19A     -0.596700    20A     -0.575509    21A     -0.555380
      22A     -0.535182    23A     -0.528644    24A     -0.509338
      25A     -0.500920    26A     -0.494065    27A     -0.451342
      28A     -0.432092

  @DF-RHF Final Energy:  -344.90938975540848

   => Energetics <=

    Nuclear Repulsion Energy =            315.2428750501679815
    One-Electron Energy =               -1094.7180124922467712
    Two-Electron Energy =                 434.5657476866701359
    DFT Exchange-Correlation Energy =       0.0000000000000000
    Empirical Dispersion Energy =           0.0000000000000000
    PCM Polarization Energy =               0.0000000000000000
    EFP Energy =                            0.0000000000000000
    Total Energy =                       -344.9093897554086539

  Mulliken Charges: (a.u.)
   Center  Symbol    Alpha    Beta     Spin     Total
       1     O     4.28608  4.28608  0.00000 -0.57215
       2     C     2.60977  2.60977  0.00000  0.78046
       3     C     3.20186  3.20186  0.00000 -0.40371
       4     O     4.30961  4.30961  0.00000 -0.61921
       5     C     3.24697  3.24697  0.00000 -0.49394
       6     H     0.40126  0.40126  0.00000  0.19749
       7     H     0.40120  0.40120  0.00000  0.19760
       8     H     0.41384  0.41384  0.00000  0.17232
       9     H     0.41291  0.41291  0.00000  0.17419
      10     H     0.40460  0.40460  0.00000  0.19081
      11     C     3.00323  3.00323  0.00000 -0.00646
      12     C     3.24846  3.24846  0.00000 -0.49693
      13     H     0.41014  0.41014  0.00000  0.17971
      14     H     0.40997  0.40997  0.00000  0.18007
      15     H     0.41199  0.41199  0.00000  0.17602
      16     H     0.41627  0.41627  0.00000  0.16746
      17     H     0.41186  0.41186  0.00000  0.17628

   Total alpha = 28.00000, Total beta = 28.00000, Total charge =  0.00000
