                              Psi4 1.0.54 Driver

  ==> Input File <==

--------------------------------------------------------------------------
set {
	reference rhf
	basis cc-pvtz
}

set_num_threads( 4 )
memory 2 gb

molecule MOL {
0 1

H	 -3.401682	 -1.036167	 0.000000
O	 -3.113760	 -0.140926	 0.000000
C	 -1.775087	 -0.058754	 0.000000
C	 -1.106219	 1.090572	 -0.402619
C	 -1.065513	 -1.171510	 0.420073
H	 -1.663667	 1.949829	 -0.727206
C	 0.267962	 1.121201	 -0.383102
H	 -1.600716	 -2.047702	 0.726446
C	 0.310219	 -1.124578	 0.433701
H	 0.795793	 2.001849	 -0.691259
C	 0.993354	 0.014270	 0.035207
H	 0.861727	 -1.987289	 0.759411
C	 2.467669	 0.041117	 0.058330
O	 3.136072	 0.966425	 -0.262916
H	 2.937415	 -0.885519	 0.405440

	symmetry c1
}
set optking {
	frozen_dihedral = ("
		5 3 2 1
	")
}

ee,wfn = optimize('scf', return_wfn=True)
oeprop( wfn, 'DIPOLE', 'QUADRUPOLE', 'MULLIKEN_CHARGES')
f=open( 'psi4out.xyz', 'w' )
f.write( "15  " )
f.write( str(ee) + "\n" )
f.write( MOL.save_string_xyz() )
f.close()
--------------------------------------------------------------------------

    Molecular point group: c1
  Charge       = 0
  Multiplicity = 1
  Basis Set: CC-PVTZ
  Basis Set:
  @DF-RHF Final Energy:  -418.43987271917564
    Total Energy =                       -418.4398727191754688
    Molecular point group: c1
  Basis Set: CC-PVTZ
  Basis Set:
  Basis Set: CC-PVTZ
  Basis Set:
  @DF-RHF Final Energy:  -418.44168058938743
    Total Energy =                       -418.4416805893876017
  Basis Set: CC-PVTZ
  Basis Set:
  Basis Set: CC-PVTZ
  Basis Set:
  @DF-RHF Final Energy:  -418.44183584558931
    Total Energy =                       -418.4418358455893667
  Basis Set: CC-PVTZ
  Basis Set:
  Basis Set: CC-PVTZ
  Basis Set:
  @DF-RHF Final Energy:  -418.44115899572665
    Total Energy =                       -418.4411589957268234
  Basis Set: CC-PVTZ
  Basis Set:
  Basis Set: CC-PVTZ
  Basis Set:
  @DF-RHF Final Energy:  -418.44185476404454
    Total Energy =                       -418.4418547640442512
  Basis Set: CC-PVTZ
  Basis Set:
  Basis Set: CC-PVTZ
  Basis Set:
  @DF-RHF Final Energy:  -418.44186457781979
    Total Energy =                       -418.4418645778193877
  Basis Set: CC-PVTZ
  Basis Set:
  Charge       = 0
  Multiplicity = 1
  Basis Set: CC-PVTZ
  Basis Set:

    Orbital Energies (a.u.)
    -----------------------

    Doubly Occupied:

       1A    -20.603256     2A    -20.545955     3A    -11.322949
       4A    -11.321762     5A    -11.260445     6A    -11.251908
       7A    -11.242437     8A    -11.237644     9A    -11.236580
      10A     -1.436022    11A     -1.402258    12A     -1.175309
      13A     -1.046595    14A     -1.040412    15A     -0.896809
      16A     -0.861458    17A     -0.805729    18A     -0.761307
      19A     -0.699830    20A     -0.690260    21A     -0.643325
      22A     -0.629429    23A     -0.619838    24A     -0.610762
      25A     -0.581150    26A     -0.561007    27A     -0.555297
      28A     -0.508954    29A     -0.490236    30A     -0.421781
      31A     -0.361765    32A     -0.333385

  @DF-RHF Final Energy:  -418.44186539938835

   => Energetics <=

    Nuclear Repulsion Energy =            402.2336644180849135
    One-Electron Energy =               -1367.0393431975919611
    Two-Electron Energy =                 546.3638133801186996
    DFT Exchange-Correlation Energy =       0.0000000000000000
    Empirical Dispersion Energy =           0.0000000000000000
    PCM Polarization Energy =               0.0000000000000000
    EFP Energy =                            0.0000000000000000
    Total Energy =                       -418.4418653993883481
    Molecular point group: c1
  Basis Set: CC-PVTZ
  Basis Set:

  -Total Gradient:
     Atom            X                  Y                   Z
    ------   -----------------  -----------------  -----------------
       1        0.000017683165    -0.000031706720    -0.002306699509
       2        0.000005492936     0.000374114960     0.003800764517
       3       -0.000034161981    -0.000937647002    -0.003151984032
       4       -0.000005483245    -0.000009595739     0.000024633593
       5        0.000027146210     0.000585128960     0.001633482347
       6       -0.000006273381    -0.000010641412     0.000000882408
       7        0.000059659811    -0.000025576066     0.000019870058
       8       -0.000005410643     0.000000675798    -0.000001878423
       9       -0.000087875697    -0.000048349063     0.000040734861
      10       -0.000003449364    -0.000006413283    -0.000001834544
      11        0.000055880611     0.000091971261    -0.000045286034
      12        0.000005447709     0.000011804405    -0.000008818935
      13        0.000036508155    -0.000022383119     0.000007957755
      14       -0.000023628557    -0.000057367483     0.000020897918
      15       -0.000041535740     0.000085984507    -0.000032721982

  **** Optimization is complete! (in 7 steps) ****
    Final optimized geometry and variables:
    Molecular point group: c1

    Geometry (in Angstrom), charge = 0, multiplicity = 1:

    H           -3.463545761370    -1.029726390037     0.009226228190
    O           -3.110006549827    -0.158191228401    -0.003194008354
    C           -1.766946912122    -0.175482533534     0.009974004695
    C           -1.109525323292     0.984584271534    -0.386622644276
    C           -1.047782469962    -1.276599367700     0.436966220314
    H           -1.691174931408     1.825934762613    -0.706559141525
    C            0.260342328218     1.028238087584    -0.362717872854
    H           -1.559789006112    -2.164372887624     0.758267601760
    C            0.332345934079    -1.219543515230     0.448670935943
    H            0.780923330299     1.914292516593    -0.667779954035
    C            0.999864927345    -0.076432929801     0.053158863077
    H            0.890991933589    -2.076701459332     0.776754560650
    C            2.474322304207    -0.036706403123     0.077503589409
    O            3.134801988092     0.894272775945    -0.241998344363
    H            2.950911541056    -0.960189068311     0.424076339713

  Mulliken Charges: (a.u.)
   Center  Symbol    Alpha    Beta     Spin     Total
       1     H     0.38498  0.38498  0.00000  0.23004
       2     O     4.16847  4.16847  0.00000 -0.33693
       3     C     2.84723  2.84723  0.00000  0.30554
       4     C     3.10734  3.10734  0.00000 -0.21469
       5     C     3.13193  3.13193  0.00000 -0.26386
       6     H     0.41495  0.41495  0.00000  0.17010
       7     C     3.06038  3.06038  0.00000 -0.12076
       8     H     0.43009  0.43009  0.00000  0.13981
       9     C     3.07428  3.07428  0.00000 -0.14855
      10     H     0.40726  0.40726  0.00000  0.18549
      11     C     3.00176  3.00176  0.00000 -0.00352
      12     H     0.42124  0.42124  0.00000  0.15752
      13     C     2.91126  2.91126  0.00000  0.17748
      14     O     4.17797  4.17797  0.00000 -0.35594
      15     H     0.46086  0.46086  0.00000  0.07827

   Total alpha = 32.00000, Total beta = 32.00000, Total charge = -0.00000

*** Psi4 exiting successfully. Buy a developer a beer!
