                              Psi4 1.0.54 Driver

  ==> Input File <==

--------------------------------------------------------------------------
set {
	reference rhf
	basis cc-pvtz
}

set_num_threads( 4 )
memory 2 gb

molecule MOL {
0 1

O	 -2.440701	 -0.934798	 -0.415053
C	 -1.922978	 0.063265	 -0.045005
C	 -2.632749	 1.372204	 0.158357
O	 -0.637375	 0.157174	 0.243149
H	 -2.187724	 2.129143	 -0.474664
H	 -3.677681	 1.257276	 -0.079438
H	 -2.516788	 1.693160	 1.185542
C	 0.162530	 -1.009518	 0.097799
C	 1.587210	 -0.664190	 0.477086
H	 0.096803	 -1.356267	 -0.924704
H	 -0.233803	 -1.785900	 0.736810
C	 1.788235	 0.788703	 0.899528
H	 2.212782	 -0.882239	 -0.384221
H	 1.910030	 -1.328587	 1.272826
C	 3.239269	 1.105052	 1.245994
H	 1.458060	 1.442176	 0.096375
H	 1.156250	 1.005779	 1.752943
H	 3.354265	 2.142285	 1.538071
H	 3.894128	 0.925420	 0.399659
H	 3.587878	 0.489683	 2.068678

	symmetry c1
}
set optking {
	frozen_dihedral = ("
		12 9 8 10
	")
}

ee,wfn = optimize('scf', return_wfn=True)
oeprop( wfn, 'DIPOLE', 'QUADRUPOLE', 'MULLIKEN_CHARGES')
f=open( 'psi4out.xyz', 'w' )
f.write( "20  " )
f.write( str(ee) + "\n" )
f.write( MOL.save_string_xyz() )
f.close()
--------------------------------------------------------------------------

    Molecular point group: c1
  Charge       = 0
  Multiplicity = 1
  Basis Set: CC-PVTZ
  Basis Set:
  @DF-RHF Final Energy:  -384.07716785615827
    Total Energy =                       -384.0771678561580984
    Molecular point group: c1
  Basis Set: CC-PVTZ
  Basis Set:
  Basis Set: CC-PVTZ
  Basis Set:
  @DF-RHF Final Energy:  -384.07741035672530
    Total Energy =                       -384.0774103567249540
  Basis Set: CC-PVTZ
  Basis Set:
  Basis Set: CC-PVTZ
  Basis Set:
  @DF-RHF Final Energy:  -384.07869920244121
    Total Energy =                       -384.0786992024411575
  Basis Set: CC-PVTZ
  Basis Set:
  Basis Set: CC-PVTZ
  Basis Set:
  @DF-RHF Final Energy:  -384.07844664973993
    Total Energy =                       -384.0784466497399308
  Basis Set: CC-PVTZ
  Basis Set:
  Basis Set: CC-PVTZ
  Basis Set:
  @DF-RHF Final Energy:  -384.07875727779742
    Total Energy =                       -384.0787572777976493
  Basis Set: CC-PVTZ
  Basis Set:
  Basis Set: CC-PVTZ
  Basis Set:
  @DF-RHF Final Energy:  -384.07876473293231
    Total Energy =                       -384.0787647329320862
  Basis Set: CC-PVTZ
  Basis Set:
  Charge       = 0
  Multiplicity = 1
  Basis Set: CC-PVTZ
  Basis Set:

    Orbital Energies (a.u.)
    -----------------------

    Doubly Occupied:

       1A    -20.594115     2A    -20.532628     3A    -11.366599
       4A    -11.280791     5A    -11.231674     6A    -11.224087
       7A    -11.217954     8A    -11.210400     9A     -1.471202
      10A     -1.365163    11A     -1.082476    12A     -1.028896
      13A     -0.979845    14A     -0.882322    15A     -0.819344
      16A     -0.762035    17A     -0.693298    18A     -0.692090
      19A     -0.670281    20A     -0.635845    21A     -0.594847
      22A     -0.594421    23A     -0.574275    24A     -0.547429
      25A     -0.546267    26A     -0.534928    27A     -0.507953
      28A     -0.483286    29A     -0.479934    30A     -0.469823
      31A     -0.445102    32A     -0.442094

  @DF-RHF Final Energy:  -384.07876468215954

   => Energetics <=

    Nuclear Repulsion Energy =            386.9886749583314440
    One-Electron Energy =               -1290.2120737182697212
    Two-Electron Energy =                 519.1446340777785053
    DFT Exchange-Correlation Energy =       0.0000000000000000
    Empirical Dispersion Energy =           0.0000000000000000
    PCM Polarization Energy =               0.0000000000000000
    EFP Energy =                            0.0000000000000000
    Total Energy =                       -384.0787646821597718
    Molecular point group: c1
  Basis Set: CC-PVTZ
  Basis Set:

  -Total Gradient:
     Atom            X                  Y                   Z
    ------   -----------------  -----------------  -----------------
       1        0.000000131225     0.000042272360     0.000023245210
       2        0.000057627736    -0.000006421514    -0.000024771616
       3        0.000016663417    -0.000021631164     0.000019496697
       4       -0.000157673456     0.000045732525    -0.000010054069
       5       -0.000001918735    -0.000021065401     0.000009493326
       6        0.000026929742    -0.000011038843     0.000002712102
       7       -0.000000135920    -0.000002700605    -0.000025705403
       8       -0.000022946506     0.000085723635    -0.000054281112
       9        0.000053542150     0.000019017300    -0.000101991323
      10        0.000021969396    -0.000087246693     0.000045723328
      11        0.000002746033    -0.000005930468     0.000002341744
      12        0.000008187874    -0.000010614750     0.000169545220
      13        0.000018156794    -0.000009911124     0.000012316235
      14       -0.000012679969     0.000020044296    -0.000006966877
      15       -0.000016392449    -0.000009907729    -0.000043660382
      16        0.000001884335    -0.000015627932     0.000006882776
      17        0.000036282386     0.000001716978    -0.000002241108
      18       -0.000021112036    -0.000014889202    -0.000017482645
      19        0.000005526055    -0.000005657221    -0.000001712033
      20       -0.000016788068     0.000008135549    -0.000002890072

  **** Optimization is complete! (in 7 steps) ****
    Final optimized geometry and variables:
    Molecular point group: c1

    Geometry (in Angstrom), charge = 0, multiplicity = 1:

    O           -2.338444173891    -1.078016746294    -0.744250967007
    C           -1.849569767568    -0.061884121182    -0.384134645398
    C           -2.596078890791     1.229176242247    -0.200285759789
    O           -0.568731960992     0.072295455861    -0.093357043533
    H           -2.168204854682     1.990452930981    -0.839743894510
    H           -3.636003634269     1.082594902584    -0.442520028039
    H           -2.495332632945     1.565171854190     0.823612329049
    C            0.260583271551    -1.075199990851    -0.224454195626
    C            1.713415650552    -0.737542141770     0.154998534635
    H            0.194954210996    -1.426122412405    -1.243448551229
    H           -0.136849273807    -1.854154413929     0.408880580145
    C            1.988767408108     0.705393330961     0.576956107434
    H            2.352976252489    -0.978466052225    -0.687208386462
    H            2.019930242372    -1.396084039226     0.960441737180
    C            3.458195956747     0.922494475722     0.922374844409
    H            1.699649448520     1.381743867755    -0.218756812128
    H            1.373617650462     0.961564292449     1.431405718390
    H            3.639787653272     1.949010870755     1.218669676077
    H            4.098754281573     0.705563821875     0.073883496569
    H            3.769165946364     0.282532571363     1.741544615993

  Mulliken Charges: (a.u.)
   Center  Symbol    Alpha    Beta     Spin     Total
       1     O     4.19804  4.19804  0.00000 -0.39608
       2     C     2.81222  2.81222  0.00000  0.37556
       3     C     3.13825  3.13825  0.00000 -0.27649
       4     O     4.14637  4.14637  0.00000 -0.29274
       5     H     0.44609  0.44609  0.00000  0.10783
       6     H     0.43756  0.43756  0.00000  0.12489
       7     H     0.44606  0.44606  0.00000  0.10788
       8     C     2.98239  2.98239  0.00000  0.03522
       9     C     3.10716  3.10716  0.00000 -0.21433
      10     H     0.45065  0.45065  0.00000  0.09869
      11     H     0.45057  0.45057  0.00000  0.09887
      12     C     3.07285  3.07285  0.00000 -0.14570
      13     H     0.44976  0.44976  0.00000  0.10048
      14     H     0.44974  0.44974  0.00000  0.10051
      15     C     3.15245  3.15245  0.00000 -0.30490
      16     H     0.45079  0.45079  0.00000  0.09842
      17     H     0.45074  0.45074  0.00000  0.09852
      18     H     0.44739  0.44739  0.00000  0.10521
      19     H     0.45547  0.45547  0.00000  0.08906
      20     H     0.45545  0.45545  0.00000  0.08910

   Total alpha = 32.00000, Total beta = 32.00000, Total charge = -0.00000

*** Psi4 exiting successfully. Buy a developer a beer!
