  ==> Input File <==

--------------------------------------------------------------------------
set {
	reference rhf
	basis 6-31G*
}

set_num_threads( 4 )
memory 2 gb

molecule MOL {
0 1

H	 -2.646374	 -0.642757	 1.268656
C	 -2.083525	 -0.384536	 0.393091
O	 -0.807605	 -0.127164	 0.768327
F	 -2.118945	 -1.383102	 -0.486752
F	 -2.621877	 0.670592	 -0.209486
C	 0.084052	 0.273579	 -0.209957
C	 1.353033	 -0.546803	 -0.018071
Cl	 0.433844	 2.004619	 -0.074457
H	 -0.288836	 0.092657	 -1.202930
F	 1.218912	 -1.735733	 -0.566337
F	 1.559959	 -0.712565	 1.273108
F	 2.404667	 0.040372	 -0.535050

	symmetry c1
}
set optking {
	frozen_dihedral = ("
		10 7 6 9
	")
}

ee = optimize('scf')
oeprop('DIPOLE', 'QUADRUPOLE', 'MULLIKEN_CHARGES')
f=open( 'psi4out.xyz', 'w' )
f.write( "12  " )
f.write( str(ee) + "\n" )
f.write( MOL.save_string_xyz() )
f.close()
--------------------------------------------------------------------------

    Molecular point group: c1
  Charge       = 0
  Multiplicity = 1
  Basis Set: 6-31G*
  Basis Set:
  @DF-RHF Final Energy: -1146.31040760374117
    Total Energy =                      -1146.3104076037409413
    Molecular point group: c1
  Basis Set: 6-31G*
  Basis Set:
  Basis Set: 6-31G*
  Basis Set:
  @DF-RHF Final Energy: -1146.31129531268130
    Total Energy =                      -1146.3112953126810680
  Basis Set: 6-31G*
  Basis Set:
  Basis Set: 6-31G*
  Basis Set:
  @DF-RHF Final Energy: -1146.31197762135116
    Total Energy =                      -1146.3119776213511614
  Basis Set: 6-31G*
  Basis Set:
  Basis Set: 6-31G*
  Basis Set:
  @DF-RHF Final Energy: -1146.31201136973095
    Total Energy =                      -1146.3120113697304987
  Basis Set: 6-31G*
  Basis Set:
  Basis Set: 6-31G*
  Basis Set:
  @DF-RHF Final Energy: -1146.31201801437896
    Total Energy =                      -1146.3120180143787366
  Basis Set: 6-31G*
  Basis Set:
  Basis Set: 6-31G*
  Basis Set:
  @DF-RHF Final Energy: -1146.31202006192734
    Total Energy =                      -1146.3120200619262050
  Basis Set: 6-31G*
  Basis Set:
  Charge       = 0
  Multiplicity = 1
  Basis Set: 6-31G*
  Basis Set:

    Orbital Energies (a.u.)
    -----------------------

    Doubly Occupied:

       1A   -104.844748     2A    -26.359026     3A    -26.358388
       4A    -26.357557     5A    -26.345807     6A    -26.345472
       7A    -20.648259     8A    -11.527912     9A    -11.488625
      10A    -11.400699    11A    -10.579450    12A     -8.048822
      13A     -8.045240    14A     -8.045194    15A     -1.761088
      16A     -1.717019    17A     -1.658238    18A     -1.654732
      19A     -1.637755    20A     -1.484107    21A     -1.179793
      22A     -1.051906    23A     -0.985321    24A     -0.919201
      25A     -0.859157    26A     -0.851247    27A     -0.845218
      28A     -0.823240    29A     -0.810178    30A     -0.789832
      31A     -0.725508    32A     -0.724713    33A     -0.705483
      34A     -0.701570    35A     -0.677695    36A     -0.674511
      37A     -0.657661    38A     -0.657308    39A     -0.645967
      40A     -0.633123    41A     -0.596607    42A     -0.580444
      43A     -0.524296    44A     -0.476507    45A     -0.469638

  @DF-RHF Final Energy: -1146.31202028744201

   => Energetics <=

    Nuclear Repulsion Energy =            737.4636679443407274
    One-Electron Energy =               -3057.8028489290013567
    Two-Electron Energy =                1174.0271606972185054
    DFT Exchange-Correlation Energy =       0.0000000000000000
    Empirical Dispersion Energy =           0.0000000000000000
    PCM Polarization Energy =               0.0000000000000000
    EFP Energy =                            0.0000000000000000
    Total Energy =                      -1146.3120202874422375
    Molecular point group: c1
  Basis Set: 6-31G*
  Basis Set:

  -Total Gradient:
     Atom            X                  Y                   Z
    ------   -----------------  -----------------  -----------------
       1       -0.000012683872     0.000004418649     0.000006718811
       2        0.000024851304    -0.000116175718     0.000023325433
       3       -0.000106757212     0.000119316272     0.000103583222
       4       -0.000014332176    -0.000022246203    -0.000048861841
       5        0.000048203143    -0.000000502965     0.000008739532
       6        0.004382994275     0.006446502386    -0.004424806528
       7       -0.002633025650    -0.003231039930     0.006335828054
       8        0.000168333941     0.000013577139     0.000115133672
       9       -0.003524933902    -0.004881495558     0.002394931402
      10        0.001932297429     0.001900494716    -0.004396396181
      11       -0.000127985353    -0.000140899878    -0.000031138562
      12       -0.000136961926    -0.000091948931    -0.000087057015

  **** Optimization is complete! (in 7 steps) ****
    Final optimized geometry and variables:
    Molecular point group: c1

    Geometry (in Angstrom), charge = 0, multiplicity = 1:

    H           -2.655503657791    -0.668322055257     1.227319523528
    C           -2.084348886309    -0.390983066553     0.363009251416
    O           -0.810614120596    -0.149947458548     0.754013208318
    F           -2.117900803932    -1.368761118451    -0.541129703381
    F           -2.614594815856     0.680012478825    -0.218390223190
    C            0.092781369371     0.277394814570    -0.209293394904
    C            1.363054271802    -0.548157729794     0.000952055674
    CL           0.402582920564     2.009319922205    -0.052812205348
    H           -0.284866199503     0.066354496713    -1.194187973438
    F            1.173708364641    -1.744133107730    -0.524595839004
    F            1.663892467104    -0.681027293754     1.267805301791
    F            2.389324661095    -0.008331554534    -0.620743096430

  Mulliken Charges: (a.u.)
   Center  Symbol    Alpha    Beta     Spin     Total
       1     H     0.40139  0.40139  0.00000  0.19722
       2     C     2.56636  2.56636  0.00000  0.86727
       3     O     4.29888  4.29888  0.00000 -0.59776
       4     F     4.68670  4.68670  0.00000 -0.37341
       5     F     4.68412  4.68412  0.00000 -0.36825
       6     C     3.05238  3.05238  0.00000 -0.10477
       7     C     2.43156  2.43156  0.00000  1.13688
       8    CL     8.49588  8.49588  0.00000  0.00824
       9     H     0.36625  0.36625  0.00000  0.26749
      10     F     4.67676  4.67676  0.00000 -0.35352
      11     F     4.66684  4.66684  0.00000 -0.33367
      12     F     4.67287  4.67287  0.00000 -0.34573

   Total alpha = 45.00000, Total beta = 45.00000, Total charge = -0.00000
