  ==> Input File <==

--------------------------------------------------------------------------
set {
	reference rhf
	basis 6-31G*
}

set_num_threads( 4 )
memory 2 gb

molecule MOL {
0 1

H	 0.828766	 -0.589501	 2.248355
C	 -0.126582	 -0.648729	 1.745259
O	 0.000000	 0.000000	 0.521119
H	 -0.391982	 -1.696793	 1.615590
H	 -0.883511	 -0.177185	 2.370075
C	 -1.165642	 0.000000	 -0.238270
H	 -1.228672	 0.883184	 -0.872070
H	 -2.003012	 0.000000	 0.445920
H	 -1.228672	 -0.883184	 -0.872070

	symmetry c1
}
set optking {
	frozen_dihedral = ("
		2 3 6 7
	")
}

ee = optimize('scf')
oeprop('DIPOLE', 'QUADRUPOLE', 'MULLIKEN_CHARGES')
f=open( 'psi4out.xyz', 'w' )
f.write( "9  " )
f.write( str(ee) + "\n" )
f.write( MOL.save_string_xyz() )
f.close()
--------------------------------------------------------------------------

    Molecular point group: c1
  Charge       = 0
  Multiplicity = 1
  Basis Set: 6-31G*
  Basis Set:
  @DF-RHF Final Energy:  -154.06146537043600
    Total Energy =                       -154.0614653704361103
    Molecular point group: c1
  Basis Set: 6-31G*
  Basis Set:
  Basis Set: 6-31G*
  Basis Set:
  @DF-RHF Final Energy:  -154.06235688190370
    Total Energy =                       -154.0623568819037246
  Basis Set: 6-31G*
  Basis Set:
  Basis Set: 6-31G*
  Basis Set:
  @DF-RHF Final Energy:  -154.06260125867658
    Total Energy =                       -154.0626012586766365
  Basis Set: 6-31G*
  Basis Set:
  Charge       = 0
  Multiplicity = 1
  Basis Set: 6-31G*
  Basis Set:

    Orbital Energies (a.u.)
    -----------------------

    Doubly Occupied:

       1A    -20.554300     2A    -11.265459     3A    -11.264888
       4A     -1.376825     5A     -0.974921     6A     -0.872941
       7A     -0.659808     8A     -0.653057     9A     -0.643994
      10A     -0.556777    11A     -0.527407    12A     -0.473475
      13A     -0.414962

  @DF-RHF Final Energy:  -154.06260258948896

   => Energetics <=

    Nuclear Repulsion Energy =             84.6284846838616573
    One-Electron Energy =                -376.9045442060743198
    Two-Electron Energy =                 138.2134569327236591
    DFT Exchange-Correlation Energy =       0.0000000000000000
    Empirical Dispersion Energy =           0.0000000000000000
    PCM Polarization Energy =               0.0000000000000000
    EFP Energy =                            0.0000000000000000
    Total Energy =                       -154.0626025894890176
    Molecular point group: c1
  Basis Set: 6-31G*
  Basis Set:

  -Total Gradient:
     Atom            X                  Y                   Z
    ------   -----------------  -----------------  -----------------
       1        0.000013880840     0.000044543747    -0.000075551183
       2       -0.000874989459     0.002187830983     0.001055137523
       3        0.000677268925    -0.002756158165    -0.001107620598
       4        0.000013101085     0.000011768550    -0.000011019906
       5       -0.000010663568     0.000021320148    -0.000016442515
       6        0.001558175515    -0.001072021528    -0.002297721482
       7       -0.001416717892     0.001563643930     0.002378680190
       8       -0.000024773725    -0.000005215703     0.000043571931
       9        0.000064718279     0.000004288036     0.000030966041

  **** Optimization is complete! (in 4 steps) ****
    Final optimized geometry and variables:
    Molecular point group: c1

    Geometry (in Angstrom), charge = 0, multiplicity = 1:

    H            1.293917099818    -0.348798072163     1.556688123323
    C            0.332279353775    -0.423735893852     1.067758439960
    O            0.437338287082     0.219883852117    -0.161565028146
    H            0.079573543530    -1.476712003453     0.953333933519
    H           -0.420951510045     0.045058170937     1.697988488908
    C           -0.731338262452     0.220981223436    -0.921793006199
    H           -0.737033793199     1.117441430025    -1.528057400532
    H           -1.617606385894     0.242743845958    -0.291005106935
    H           -0.787248878465    -0.655284544721    -1.562779210296

  Mulliken Charges: (a.u.)
   Center  Symbol    Alpha    Beta     Spin     Total
       1     H     0.41233  0.41233  0.00000  0.17534
       2     C     3.07956  3.07956  0.00000 -0.15912
       3     O     4.29767  4.29767  0.00000 -0.59534
       4     H     0.43054  0.43054  0.00000  0.13891
       5     H     0.42964  0.42964  0.00000  0.14073
       6     C     3.07853  3.07853  0.00000 -0.15705
       7     H     0.41422  0.41422  0.00000  0.17155
       8     H     0.43166  0.43166  0.00000  0.13667
       9     H     0.42585  0.42585  0.00000  0.14830

   Total alpha = 13.00000, Total beta = 13.00000, Total charge =  0.00000
