  ==> Input File <==

--------------------------------------------------------------------------
set {
	reference rhf
	basis 6-31G*
}

set_num_threads( 4 )
memory 2 gb

molecule MOL {
0 1

O	 0.241670	 1.007992	 0.704718
C	 0.028650	 0.075053	 -0.000277
C	 -1.233602	 -0.752807	 0.000328
O	 0.895677	 -0.369773	 -0.900441
C	 -2.501530	 0.091881	 0.000126
H	 -1.193807	 -1.406641	 -0.865785
H	 -1.193516	 -1.405779	 0.867015
H	 -2.545121	 0.729328	 -0.874513
H	 -3.377167	 -0.548497	 0.000561
H	 -2.544818	 0.730135	 0.874258
C	 2.127332	 0.321692	 -1.002857
H	 1.961568	 1.354714	 -1.272675
H	 2.685064	 -0.182188	 -1.776744
H	 2.664962	 0.280843	 -0.066504

	symmetry c1
}
set optking {
	frozen_dihedral = ("
		4 2 3 6
	")
}

ee = optimize('scf')
oeprop('DIPOLE', 'QUADRUPOLE', 'MULLIKEN_CHARGES')
f=open( 'psi4out.xyz', 'w' )
f.write( "14  " )
f.write( str(ee) + "\n" )
f.write( MOL.save_string_xyz() )
f.close()
--------------------------------------------------------------------------

    Molecular point group: c1
  Charge       = 0
  Multiplicity = 1
  Basis Set: 6-31G*
  Basis Set:
  @DF-RHF Final Energy:  -305.87036313230726
    Total Energy =                       -305.8703631323074319
    Molecular point group: c1
  Basis Set: 6-31G*
  Basis Set:
  Basis Set: 6-31G*
  Basis Set:
  @DF-RHF Final Energy:  -305.87079692178145
    Total Energy =                       -305.8707969217815617
  Basis Set: 6-31G*
  Basis Set:
  Basis Set: 6-31G*
  Basis Set:
  @DF-RHF Final Energy:  -305.87079804944210
    Total Energy =                       -305.8707980494421577
  Basis Set: 6-31G*
  Basis Set:
  Basis Set: 6-31G*
  Basis Set:
  @DF-RHF Final Energy:  -305.87081869479385
    Total Energy =                       -305.8708186947938543
  Basis Set: 6-31G*
  Basis Set:
  Basis Set: 6-31G*
  Basis Set:
  @DF-RHF Final Energy:  -305.87082514074183
    Total Energy =                       -305.8708251407421699
  Basis Set: 6-31G*
  Basis Set:
  Charge       = 0
  Multiplicity = 1
  Basis Set: 6-31G*
  Basis Set:

    Orbital Energies (a.u.)
    -----------------------

    Doubly Occupied:

       1A    -20.606827     2A    -20.543705     3A    -11.372751
       4A    -11.281568     5A    -11.237710     6A    -11.221119
       7A     -1.470767     8A     -1.362739     9A     -1.064390
      10A     -0.980356    11A     -0.879954    12A     -0.771543
      13A     -0.699478    14A     -0.681156    15A     -0.672317
      16A     -0.618292    17A     -0.601962    18A     -0.556611
      19A     -0.538865    20A     -0.518428    21A     -0.512596
      22A     -0.497848    23A     -0.456095    24A     -0.437138

  @DF-RHF Final Energy:  -305.87082521100695

   => Energetics <=

    Nuclear Repulsion Energy =            247.2075502041699053
    One-Electron Energy =                -906.9883187088441900
    Two-Electron Energy =                 353.9099432936671974
    DFT Exchange-Correlation Energy =       0.0000000000000000
    Empirical Dispersion Energy =           0.0000000000000000
    PCM Polarization Energy =               0.0000000000000000
    EFP Energy =                            0.0000000000000000
    Total Energy =                       -305.8708252110070589
    Molecular point group: c1
  Basis Set: 6-31G*
  Basis Set:

  -Total Gradient:
     Atom            X                  Y                   Z
    ------   -----------------  -----------------  -----------------
       1        0.000010736020    -0.000002320314    -0.000019722250
       2        0.000586137196    -0.000913072047     0.001108550884
       3       -0.000806638283     0.001155254023    -0.001054473009
       4       -0.000312994383     0.000529792693    -0.000646626450
       5        0.000032905808    -0.000008189458     0.000033275446
       6        0.000522807857    -0.000814872448     0.000609367425
       7       -0.000006665285     0.000016558645    -0.000019134578
       8        0.000017889013    -0.000010836770     0.000005442983
       9        0.000014481256    -0.000005724586     0.000005386079
      10       -0.000026801103     0.000030772651     0.000011468795
      11       -0.000050961776     0.000049471371    -0.000060346013
      12        0.000025032781    -0.000003325070     0.000002769451
      13        0.000003988192    -0.000009980489     0.000007379018
      14       -0.000009917297    -0.000013528201     0.000016662221

  **** Optimization is complete! (in 6 steps) ****
    Final optimized geometry and variables:
    Molecular point group: c1

    Geometry (in Angstrom), charge = 0, multiplicity = 1:

    O            0.266995569388     0.919804334929     0.903656950259
    C            0.073976869965    -0.010025083028     0.187098222555
    C           -1.187497966984    -0.841589085990     0.191830308602
    O            0.957216465020    -0.435040714071    -0.704057926161
    C           -2.445562176786     0.025616894765     0.228729270170
    H           -1.181665969565    -1.510188835781    -0.658785070652
    H           -1.143733500596    -1.460388239234     1.084301463186
    H           -2.530730764326     0.630517943862    -0.668053887388
    H           -3.329502052057    -0.598903161283     0.296039992908
    H           -2.426370623569     0.690032809651     1.082829268957
    C            2.189043783032     0.261517043333    -0.768821783818
    H            2.025281240162     1.297779414946    -1.026720676944
    H            2.765239569492    -0.229591108439    -1.537325572311
    H            2.705174232157     0.208360133840     0.178885053882

  Mulliken Charges: (a.u.)
   Center  Symbol    Alpha    Beta     Spin     Total
       1     O     4.28628  4.28628  0.00000 -0.57257
       2     C     2.60752  2.60752  0.00000  0.78496
       3     C     3.20554  3.20554  0.00000 -0.41108
       4     O     4.30406  4.30406  0.00000 -0.60813
       5     C     3.24572  3.24572  0.00000 -0.49144
       6     H     0.39985  0.39985  0.00000  0.20029
       7     H     0.40022  0.40022  0.00000  0.19956
       8     H     0.41523  0.41523  0.00000  0.16954
       9     H     0.41510  0.41510  0.00000  0.16981
      10     H     0.40185  0.40185  0.00000  0.19631
      11     C     3.09354  3.09354  0.00000 -0.18709
      12     H     0.40822  0.40822  0.00000  0.18356
      13     H     0.40827  0.40827  0.00000  0.18346
      14     H     0.40859  0.40859  0.00000  0.18282

   Total alpha = 24.00000, Total beta = 24.00000, Total charge =  0.00000
