  ==> Input File <==

--------------------------------------------------------------------------
set {
	reference rhf
	basis cc-pvtz
}

set_num_threads( 4 )
memory 2 gb

molecule MOL {
0 1

H	 1.128311	 0.207724	 1.465118
C	 1.134565	 0.093781	 0.372499
C	 0.062554	 0.862911	 -0.350953
O	 1.948932	 -0.587720	 -0.146651
C	 -0.441841	 0.136544	 -1.601789
H	 0.445841	 1.846471	 -0.590110
H	 -0.761249	 0.984399	 0.348808
C	 0.605178	 0.032611	 -2.707048
H	 -1.311836	 0.663235	 -1.976328
H	 -0.784900	 -0.857116	 -1.327208
H	 0.934429	 1.015981	 -3.023488
H	 0.201689	 -0.478759	 -3.572691
H	 1.481778	 -0.515298	 -2.379323

	symmetry c1
}
set optking {
	frozen_dihedral = ("
		6 3 2 4
	")
}

ee = optimize('scf')
oeprop('DIPOLE', 'QUADRUPOLE', 'MULLIKEN_CHARGES')
f=open( 'psi4out.xyz', 'w' )
f.write( "13  " )
f.write( str(ee) + "\n" )
f.write( MOL.save_string_xyz() )
f.close()
--------------------------------------------------------------------------

    Molecular point group: c1
  Charge       = 0
  Multiplicity = 1
  Basis Set: CC-PVTZ
  Basis Set:
  @DF-RHF Final Energy:  -231.06648049454719
    Total Energy =                       -231.0664804945472497
    Molecular point group: c1
  Basis Set: CC-PVTZ
  Basis Set:
  Basis Set: CC-PVTZ
  Basis Set:
  @DF-RHF Final Energy:  -231.06853494733741
    Total Energy =                       -231.0685349473375254
  Basis Set: CC-PVTZ
  Basis Set:
  Basis Set: CC-PVTZ
  Basis Set:
  @DF-RHF Final Energy:  -231.06731146915703
    Total Energy =                       -231.0673114691571470
  Basis Set: CC-PVTZ
  Basis Set:
  Basis Set: CC-PVTZ
  Basis Set:
  @DF-RHF Final Energy:  -231.06888569105712
    Total Energy =                       -231.0688856910571189
  Basis Set: CC-PVTZ
  Basis Set:
  Basis Set: CC-PVTZ
  Basis Set:
  @DF-RHF Final Energy:  -231.06891730614490
    Total Energy =                       -231.0689173061449537
  Basis Set: CC-PVTZ
  Basis Set:
  Basis Set: CC-PVTZ
  Basis Set:
  @DF-RHF Final Energy:  -231.06892220975439
    Total Energy =                       -231.0689222097544189
  Basis Set: CC-PVTZ
  Basis Set:
  Charge       = 0
  Multiplicity = 1
  Basis Set: CC-PVTZ
  Basis Set:

    Orbital Energies (a.u.)
    -----------------------

    Doubly Occupied:

       1A    -20.553508     2A    -11.324190     3A    -11.236847
       4A    -11.226828     5A    -11.205790     6A     -1.409319
       7A     -1.077942     8A     -0.972736     9A     -0.847268
      10A     -0.772111    11A     -0.686892    12A     -0.648959
      13A     -0.609485    14A     -0.586985    15A     -0.571375
      16A     -0.524239    17A     -0.498057    18A     -0.485597
      19A     -0.481751    20A     -0.410815

  @DF-RHF Final Energy:  -231.06892266290254

   => Energetics <=

    Nuclear Repulsion Energy =            176.2230986943557127
    One-Electron Energy =                -662.3226566768270231
    Two-Electron Energy =                 255.0306353195687450
    DFT Exchange-Correlation Energy =       0.0000000000000000
    Empirical Dispersion Energy =           0.0000000000000000
    PCM Polarization Energy =               0.0000000000000000
    EFP Energy =                            0.0000000000000000
    Total Energy =                       -231.0689226629025654
    Molecular point group: c1
  Basis Set: CC-PVTZ
  Basis Set:

  -Total Gradient:
     Atom            X                  Y                   Z
    ------   -----------------  -----------------  -----------------
       1        0.000020110463    -0.000003662192    -0.000003275242
       2       -0.002857656405    -0.003671773499     0.000078978341
       3       -0.000242583028     0.002622540295     0.002693111223
       4        0.002106021492     0.002337820801    -0.000377623559
       5       -0.000010172639     0.000002071539     0.000000361532
       6        0.000994366083    -0.001290673672    -0.002400605463
       7       -0.000005705832     0.000010667544    -0.000009251853
       8        0.000006457640     0.000007839325     0.000021797939
       9        0.000010657213    -0.000002970682    -0.000007141982
      10       -0.000003440141    -0.000008648247    -0.000009832515
      11       -0.000007773002     0.000000860950     0.000004651543
      12        0.000001262141    -0.000002038791     0.000010991855
      13       -0.000011543981    -0.000002033373    -0.000002161816

  **** Optimization is complete! (in 7 steps) ****
    Final optimized geometry and variables:
    Molecular point group: c1

    Geometry (in Angstrom), charge = 0, multiplicity = 1:

    H            0.430256929702     0.246837660904     2.399177082151
    C            0.434240295350     0.002766591305     1.329557217384
    C           -0.571722834714     0.761570179463     0.498964151094
    O            1.222210790339    -0.771757984539     0.908178433987
    C           -1.074788865691     0.031068310816    -0.750475141434
    H           -0.079997145474     1.687223007870     0.203533116666
    H           -1.398504180742     1.038639794769     1.143661541254
    C           -0.088223981123     0.018572607307    -1.914791245426
    H           -1.991905490470     0.514628371590    -1.069803076725
    H           -1.339937070843    -0.986960566891    -0.485814258732
    H            0.159234250587     1.030295350379    -2.221054280925
    H           -0.519969025250    -0.486537879278    -2.771190447296
    H            0.828225320438    -0.487659367723    -1.648980886799

  Mulliken Charges: (a.u.)
   Center  Symbol    Alpha    Beta     Spin     Total
       1     H     0.44931  0.44931  0.00000  0.10138
       2     C     2.92102  2.92102  0.00000  0.15796
       3     C     3.09573  3.09573  0.00000 -0.19146
       4     O     4.16751  4.16751  0.00000 -0.33501
       5     C     3.08323  3.08323  0.00000 -0.16647
       6     H     0.44595  0.44595  0.00000  0.10811
       7     H     0.44086  0.44086  0.00000  0.11828
       8     C     3.14869  3.14869  0.00000 -0.29738
       9     H     0.44786  0.44786  0.00000  0.10429
      10     H     0.45037  0.45037  0.00000  0.09925
      11     H     0.45980  0.45980  0.00000  0.08041
      12     H     0.45016  0.45016  0.00000  0.09968
      13     H     0.43951  0.43951  0.00000  0.12097

   Total alpha = 20.00000, Total beta = 20.00000, Total charge =  0.00000
