  ==> Input File <==

--------------------------------------------------------------------------
set {
	reference rhf
	basis cc-pvtz
}

set_num_threads( 4 )
memory 2 gb

molecule MOL {
0 1

H	 -2.698799	 -0.000846	 0.036018
C	 -1.694291	 -0.000483	 0.434279
O	 -0.828718	 -0.000608	 -0.655022
H	 -1.576855	 0.881100	 1.056504
H	 -1.576401	 -0.881658	 1.057001
C	 0.557892	 0.000078	 -0.420099
C	 0.901478	 -0.143663	 1.058264
C	 1.299379	 -1.010724	 -1.287697
H	 0.861677	 0.990711	 -0.734708
H	 0.330196	 0.562325	 1.648414
H	 1.955168	 0.058474	 1.211964
H	 0.703240	 -1.142218	 1.429982
H	 1.004108	 -0.905995	 -2.324466
H	 2.367555	 -0.840194	 -1.219205
H	 1.111610	 -2.032270	 -0.978295

	symmetry c1
}
set optking {
	frozen_dihedral = ("
		9 6 3 2
	")
}

ee = optimize('scf')
oeprop('DIPOLE', 'QUADRUPOLE', 'MULLIKEN_CHARGES')
f=open( 'psi4out.xyz', 'w' )
f.write( "15  " )
f.write( str(ee) + "\n" )
f.write( MOL.save_string_xyz() )
f.close()
--------------------------------------------------------------------------

    Molecular point group: c1
  Charge       = 0
  Multiplicity = 1
  Basis Set: CC-PVTZ
  Basis Set:
  @DF-RHF Final Energy:  -232.21782502520824
    Total Energy =                       -232.2178250252081853
    Molecular point group: c1
  Basis Set: CC-PVTZ
  Basis Set:
  Basis Set: CC-PVTZ
  Basis Set:
  @DF-RHF Final Energy:  -232.21913164054632
    Total Energy =                       -232.2191316405462089
  Basis Set: CC-PVTZ
  Basis Set:
  Basis Set: CC-PVTZ
  Basis Set:
  @DF-RHF Final Energy:  -232.22212220402832
    Total Energy =                       -232.2221222040282669
  Basis Set: CC-PVTZ
  Basis Set:
  Basis Set: CC-PVTZ
  Basis Set:
  @DF-RHF Final Energy:  -232.22239489428625
    Total Energy =                       -232.2223948942863672
  Basis Set: CC-PVTZ
  Basis Set:
  Basis Set: CC-PVTZ
  Basis Set:
  @DF-RHF Final Energy:  -232.22245928876973
    Total Energy =                       -232.2224592887698122
  Basis Set: CC-PVTZ
  Basis Set:
  Basis Set: CC-PVTZ
  Basis Set:
  @DF-RHF Final Energy:  -232.22247161281604
    Total Energy =                       -232.2224716128158661
  Basis Set: CC-PVTZ
  Basis Set:
  Charge       = 0
  Multiplicity = 1
  Basis Set: CC-PVTZ
  Basis Set:

    Orbital Energies (a.u.)
    -----------------------

    Doubly Occupied:

       1A    -20.539375     2A    -11.273296     3A    -11.259881
       4A    -11.213560     5A    -11.203151     6A     -1.370303
       7A     -1.054304     8A     -0.950118     9A     -0.915469
      10A     -0.783330    11A     -0.677424    12A     -0.643525
      13A     -0.631757    14A     -0.588859    15A     -0.553084
      16A     -0.541766    17A     -0.530354    18A     -0.506792
      19A     -0.493936    20A     -0.449843    21A     -0.401447

  @DF-RHF Final Energy:  -232.22247176258830

   => Energetics <=

    Nuclear Repulsion Energy =            198.0770615797448215
    One-Electron Energy =                -707.4359205950881915
    Two-Electron Energy =                 277.1363872527550711
    DFT Exchange-Correlation Energy =       0.0000000000000000
    Empirical Dispersion Energy =           0.0000000000000000
    PCM Polarization Energy =               0.0000000000000000
    EFP Energy =                            0.0000000000000000
    Total Energy =                       -232.2224717625882704
    Molecular point group: c1
  Basis Set: CC-PVTZ
  Basis Set:

  -Total Gradient:
     Atom            X                  Y                   Z
    ------   -----------------  -----------------  -----------------
       1        0.000002299849     0.000004268454    -0.000001845230
       2        0.000126935467    -0.002682285090     0.000109535563
       3       -0.000000583246     0.003757223998    -0.000757364510
       4        0.000010145788     0.000006009955    -0.000006840840
       5       -0.000014785605     0.000007371851     0.000005197321
       6       -0.000690932647     0.000041745778     0.003373332746
       7        0.000007706837    -0.000008072856     0.000005483904
       8       -0.000019764417    -0.000017398044     0.000003703319
       9        0.000590942266    -0.001107618562    -0.002739467699
      10       -0.000005301305     0.000001582625     0.000002111826
      11       -0.000001991237     0.000000643598    -0.000005426681
      12        0.000006207026    -0.000001334421     0.000003972830
      13        0.000001952693     0.000009329071     0.000000170666
      14       -0.000014849650     0.000005778237     0.000014927693
      15        0.000002018179    -0.000017244593    -0.000007490909

  **** Optimization is complete! (in 7 steps) ****
    Final optimized geometry and variables:
    Molecular point group: c1

    Geometry (in Angstrom), charge = 0, multiplicity = 1:

    H           -2.745394582877     0.106495146970     0.069142740763
    C           -1.775361146773     0.195351212237     0.537397253378
    O           -0.838871326241     0.199256827236    -0.489230845423
    H           -1.762938003687     1.115747372001     1.115233250675
    H           -1.649204237190    -0.641121275598     1.216286409277
    C            0.545372187312     0.277492533905    -0.223572168514
    C            0.949523571495     0.099215249694     1.233848974772
    C            1.222764381795    -0.751970029882    -1.115651989428
    H            0.872835547174     1.260749404309    -0.553857208680
    H            0.493675275125     0.836762427853     1.881133891943
    H            2.023632605241     0.215871926683     1.310915575708
    H            0.696928935930    -0.887777186268     1.603225682737
    H            0.916019141941    -0.610151494655    -2.143738253545
    H            2.302013798438    -0.659991063578    -1.062144142771
    H            0.946135532933    -1.756765842385    -0.815762180702

  Mulliken Charges: (a.u.)
   Center  Symbol    Alpha    Beta     Spin     Total
       1     H     0.44238  0.44238  0.00000  0.11524
       2     C     3.03761  3.03761  0.00000 -0.07521
       3     O     4.18795  4.18795  0.00000 -0.37589
       4     H     0.47019  0.47019  0.00000  0.05962
       5     H     0.47016  0.47016  0.00000  0.05968
       6     C     2.92082  2.92082  0.00000  0.15836
       7     C     3.17160  3.17160  0.00000 -0.34321
       8     C     3.13879  3.13879  0.00000 -0.27758
       9     H     0.45813  0.45813  0.00000  0.08374
      10     H     0.44477  0.44477  0.00000  0.11046
      11     H     0.44341  0.44341  0.00000  0.11318
      12     H     0.45059  0.45059  0.00000  0.09883
      13     H     0.44598  0.44598  0.00000  0.10804
      14     H     0.45996  0.45996  0.00000  0.08007
      15     H     0.45767  0.45767  0.00000  0.08467

   Total alpha = 21.00000, Total beta = 21.00000, Total charge = -0.00000
