                              Psi4 1.0.54 Driver

  ==> Input File <==

--------------------------------------------------------------------------
set {
	reference rhf
	basis cc-pvtz
}

set_num_threads( 4 )
memory 2 gb

molecule MOL {
0 1

H	 -3.941973	 0.934228	 -0.390224
C	 -3.240162	 0.342701	 0.161016
C	 -2.105997	 -0.000418	 -0.398703
H	 -3.485368	 0.047206	 1.162193
O	 -1.927095	 0.022292	 -1.739338
H	 -1.251881	 -0.307154	 0.177081
C	 -0.737405	 -0.455842	 -2.258131
C	 -0.813447	 -1.934520	 -2.578694
H	 0.097719	 -0.303614	 -1.584953
H	 -0.540067	 0.067005	 -3.181780
F	 0.330676	 -2.329974	 -3.099922
F	 -1.034005	 -2.659478	 -1.502916
F	 -1.763075	 -2.203631	 -3.441390

	symmetry c1
}
set optking {
	frozen_dihedral = ("
		6 3 2 1
	")
}

ee,wfn = optimize('scf', return_wfn=True)
oeprop( wfn, 'DIPOLE', 'QUADRUPOLE', 'MULLIKEN_CHARGES')
f=open( 'psi4out.xyz', 'w' )
f.write( "13  " )
f.write( str(ee) + "\n" )
f.write( MOL.save_string_xyz() )
f.close()
--------------------------------------------------------------------------

    Molecular point group: c1
  Charge       = 0
  Multiplicity = 1
  Basis Set: CC-PVTZ
  Basis Set:
  @DF-RHF Final Energy:  -527.73280212198028
    Total Energy =                       -527.7328021219802849
    Molecular point group: c1
  Basis Set: CC-PVTZ
  Basis Set:
  Basis Set: CC-PVTZ
  Basis Set:
  @DF-RHF Final Energy:  -527.73801706868733
    Total Energy =                       -527.7380170686870997
  Basis Set: CC-PVTZ
  Basis Set:
  Basis Set: CC-PVTZ
  Basis Set:
  @DF-RHF Final Energy:  -527.73830961999442
    Total Energy =                       -527.7383096199944248
  Basis Set: CC-PVTZ
  Basis Set:
  Basis Set: CC-PVTZ
  Basis Set:
  @DF-RHF Final Energy:  -527.73834191126230
    Total Energy =                       -527.7383419112622960
  Basis Set: CC-PVTZ
  Basis Set:
  Basis Set: CC-PVTZ
  Basis Set:
  @DF-RHF Final Energy:  -527.73834547585011
    Total Energy =                       -527.7383454758502239
  Basis Set: CC-PVTZ
  Basis Set:
  Basis Set: CC-PVTZ
  Basis Set:
  @DF-RHF Final Energy:  -527.73834737463903
    Total Energy =                       -527.7383473746394884
  Basis Set: CC-PVTZ
  Basis Set:
  Charge       = 0
  Multiplicity = 1
  Basis Set: CC-PVTZ
  Basis Set:

    Orbital Energies (a.u.)
    -----------------------

    Doubly Occupied:

       1A    -26.341534     2A    -26.340069     3A    -26.337663
       4A    -20.603916     5A    -11.497527     6A    -11.320189
       7A    -11.299766     8A    -11.214194     9A     -1.750110
      10A     -1.646603    11A     -1.645000    12A     -1.444507
      13A     -1.088449    14A     -1.020506    15A     -0.932003
      16A     -0.843758    17A     -0.839251    18A     -0.826856
      19A     -0.798734    20A     -0.728349    21A     -0.718970
      22A     -0.703406    23A     -0.681621    24A     -0.667815
      25A     -0.661299    26A     -0.650536    27A     -0.640594
      28A     -0.587610    29A     -0.566242    30A     -0.529091
      31A     -0.518780    32A     -0.355368

  @DF-RHF Final Energy:  -527.73834778246282

   => Energetics <=

    Nuclear Repulsion Energy =            413.0884446664153984
    One-Electron Energy =               -1550.0529507567430301
    Two-Electron Energy =                 609.2261583078645799
    DFT Exchange-Correlation Energy =       0.0000000000000000
    Empirical Dispersion Energy =           0.0000000000000000
    PCM Polarization Energy =               0.0000000000000000
    EFP Energy =                            0.0000000000000000
    Total Energy =                       -527.7383477824630518
    Molecular point group: c1
  Basis Set: CC-PVTZ
  Basis Set:

  -Total Gradient:
     Atom            X                  Y                   Z
    ------   -----------------  -----------------  -----------------
       1        0.005285539705     0.010524892468     0.002575239114
       2       -0.005824229011    -0.009985355616    -0.004105000064
       3       -0.003176324765    -0.011786212019     0.002728551468
       4       -0.000016442519    -0.000070765821    -0.000016994456
       5        0.000005258376    -0.000140788557    -0.000064614339
       6        0.003713255771     0.011415091025    -0.001131470032
       7       -0.000002009554     0.000051230342     0.000025185665
       8        0.000000814821     0.000005304563    -0.000017069803
       9        0.000007001552    -0.000000489521    -0.000001563194
      10        0.000001779973     0.000004112193     0.000002050469
      11       -0.000012896875    -0.000003517755     0.000004326894
      12        0.000014317106    -0.000015702504     0.000017345648
      13        0.000003935419     0.000002201205    -0.000015987359

  **** Optimization is complete! (in 7 steps) ****
    Final optimized geometry and variables:
    Molecular point group: c1

    Geometry (in Angstrom), charge = 0, multiplicity = 1:

    H           -2.631835516396     2.220754001810     1.522323780378
    C           -1.882838406437     1.703225299192     2.089070509166
    C           -0.771178822714     1.274014890563     1.541275265727
    H           -1.964221653734     1.708383404229     3.157222111968
    O           -0.584843012325     1.281300643474     0.200827737415
    H            0.104450153845     1.045496450550     2.121194169299
    C            0.608674745150     0.801302322522    -0.307242163101
    C            0.531358760173    -0.677596097812    -0.626746591088
    H            1.439000054135     0.951975373194     0.372168336156
    H            0.815487589504     1.322758423555    -1.229669370520
    F            1.680056821348    -1.077215517502    -1.134777544481
    F            0.296556424931    -1.400241305931     0.447264718581
    F           -0.409273965902    -0.944501579551    -1.499947421938

  Mulliken Charges: (a.u.)
   Center  Symbol    Alpha    Beta     Spin     Total
       1     H     0.42478  0.42478  0.00000  0.15043
       2     C     3.19570  3.19570  0.00000 -0.39139
       3     C     2.95801  2.95801  0.00000  0.08398
       4     H     0.42732  0.42732  0.00000  0.14536
       5     O     4.14508  4.14508  0.00000 -0.29016
       6     H     0.43422  0.43422  0.00000  0.13155
       7     C     3.01926  3.01926  0.00000 -0.03852
       8     C     2.67590  2.67590  0.00000  0.64820
       9     H     0.45525  0.45525  0.00000  0.08950
      10     H     0.43513  0.43513  0.00000  0.12973
      11     F     4.61275  4.61275  0.00000 -0.22550
      12     F     4.60995  4.60995  0.00000 -0.21990
      13     F     4.60664  4.60664  0.00000 -0.21328

   Total alpha = 32.00000, Total beta = 32.00000, Total charge = -0.00000

*** Psi4 exiting successfully. Buy a developer a beer!
