  ==> Input File <==

--------------------------------------------------------------------------
set {
	reference rhf
	basis 6-31G*
}

set_num_threads( 1 )
memory 2 gb

molecule MOL {
0 1

H	 -2.205318	 -0.286622	 -0.644682
O	 -1.422729	 -0.573567	 -0.196946
C	 -0.731407	 0.539437	 0.309156
C	 0.680193	 0.672443	 -0.251532
H	 -1.319765	 1.404033	 0.030086
H	 -0.700012	 0.506517	 1.397677
C	 1.599139	 -0.492137	 0.118598
H	 0.616402	 0.758534	 -1.332349
H	 1.107032	 1.602637	 0.117369
H	 1.239738	 -1.428634	 -0.297334
H	 2.601428	 -0.335055	 -0.265730
H	 1.674954	 -0.608418	 1.197020

	symmetry c1
}
set optking {
	frozen_dihedral = ("
		8 4 3 2
	")
}

ee = energy('scf')
oeprop('DIPOLE', 'QUADRUPOLE', 'MULLIKEN_CHARGES')
f=open( 'psi4out.xyz', 'w' )
f.write( "12  " )
f.write( str(ee) + "\n" )
f.write( MOL.save_string_xyz() )
f.close()
--------------------------------------------------------------------------

    Molecular point group: c1

    Geometry (in Angstrom), charge = 0, multiplicity = 1:

       Center              X                  Y                   Z               Mass
    ------------   -----------------  -----------------  -----------------  -----------------
           H         -2.186281553924    -0.304744203737    -0.630831404386     1.007825032070
           O         -1.403692553924    -0.591689203737    -0.183095404386    15.994914619560
           C         -0.712370553924     0.521314796263     0.323006595614    12.000000000000
           C          0.699229446076     0.654320796263    -0.237681404386    12.000000000000
           H         -1.300728553924     1.385910796263     0.043936595614     1.007825032070
           H         -0.680975553924     0.488394796263     1.411527595614     1.007825032070
           C          1.618175446076    -0.510259203737     0.132448595614    12.000000000000
           H          0.635438446076     0.740411796263    -1.318498404386     1.007825032070
           H          1.126068446076     1.584514796263     0.131219595614     1.007825032070
           H          1.258774446076    -1.446756203737    -0.283483404386     1.007825032070
           H          2.620464446076    -0.353177203737    -0.251879404386     1.007825032070
           H          1.693990446076    -0.626540203737     1.210870595614     1.007825032070

  Charge       = 0
  Multiplicity = 1
  Basis Set: 6-31G*
  Basis Set:

    Orbital Energies (a.u.)
    -----------------------

    Doubly Occupied:

       1A    -20.550999     2A    -11.268610     3A    -11.215764
       4A    -11.204548     5A     -1.359305     6A     -1.045891
       7A     -0.918216     8A     -0.803147     9A     -0.698601
      10A     -0.642406    11A     -0.597556    12A     -0.569203
      13A     -0.535845    14A     -0.507030    15A     -0.481493
      16A     -0.462802    17A     -0.428109

  @DF-RHF Final Energy:  -193.10693325103506

   => Energetics <=

    Nuclear Repulsion Energy =            132.5188710523600548
    One-Electron Energy =                -524.6725231884638561
    Two-Electron Energy =                 199.0467188850684011
    DFT Exchange-Correlation Energy =       0.0000000000000000
    Empirical Dispersion Energy =           0.0000000000000000
    PCM Polarization Energy =               0.0000000000000000
    EFP Energy =                            0.0000000000000000
    Total Energy =                       -193.1069332510354002

  Mulliken Charges: (a.u.)
   Center  Symbol    Alpha    Beta     Spin     Total
       1     H     0.27855  0.27855  0.00000  0.44290
       2     O     4.37265  4.37265  0.00000 -0.74531
       3     C     2.99492  2.99492  0.00000  0.01015
       4     C     3.15674  3.15674  0.00000 -0.31348
       5     H     0.43277  0.43277  0.00000  0.13446
       6     H     0.42482  0.42482  0.00000  0.15035
       7     C     3.24224  3.24224  0.00000 -0.48448
       8     H     0.42079  0.42079  0.00000  0.15841
       9     H     0.42434  0.42434  0.00000  0.15132
      10     H     0.40859  0.40859  0.00000  0.18282
      11     H     0.42071  0.42071  0.00000  0.15857
      12     H     0.42286  0.42286  0.00000  0.15428

   Total alpha = 17.00000, Total beta = 17.00000, Total charge =  0.00000
