  ==> Input File <==

--------------------------------------------------------------------------
set {
	reference rhf
	basis cc-pvtz
}

set_num_threads( 4 )
memory 2 gb

molecule MOL {
0 1

H	 -0.366580	 2.045936	 -0.305741
C	 0.351829	 1.335402	 0.083179
N	 -0.000018	 0.000080	 -0.334836
H	 1.327156	 1.599860	 -0.305475
H	 0.380566	 1.445403	 1.171445
C	 -0.245141	 -0.073926	 -1.754983
C	 0.972588	 -0.974688	 0.096564
H	 -0.573598	 -1.070380	 -2.021979
H	 -1.027738	 0.621105	 -2.031861
H	 0.641722	 0.160732	 -2.351203
H	 1.080186	 -0.938353	 1.173265
H	 0.642965	 -1.970185	 -0.172619
H	 1.959738	 -0.813948	 -0.347068

	symmetry c1
}
set optking {
	frozen_dihedral = ("
		6 3 2 1
	")
}

ee = optimize('scf')
oeprop('DIPOLE', 'QUADRUPOLE', 'MULLIKEN_CHARGES')
f=open( 'psi4out.xyz', 'w' )
f.write( "13  " )
f.write( str(ee) + "\n" )
f.write( MOL.save_string_xyz() )
f.close()
--------------------------------------------------------------------------

    Molecular point group: c1
  Charge       = 0
  Multiplicity = 1
  Basis Set: CC-PVTZ
  Basis Set:
  @DF-RHF Final Energy:  -173.33315512724570
    Total Energy =                       -173.3331551272456750
    Molecular point group: c1
  Basis Set: CC-PVTZ
  Basis Set:
  Basis Set: CC-PVTZ
  Basis Set:
  @DF-RHF Final Energy:  -173.33375656905807
    Total Energy =                       -173.3337565690580959
  Basis Set: CC-PVTZ
  Basis Set:
  Basis Set: CC-PVTZ
  Basis Set:
  @DF-RHF Final Energy:  -173.33382440363619
    Total Energy =                       -173.3338244036362994
  Basis Set: CC-PVTZ
  Basis Set:
  Charge       = 0
  Multiplicity = 1
  Basis Set: CC-PVTZ
  Basis Set:

    Orbital Energies (a.u.)
    -----------------------

    Doubly Occupied:

       1A    -15.538863     2A    -11.234378     3A    -11.234312
       4A    -11.234282     5A     -1.226911     6A     -0.952802
       7A     -0.952428     8A     -0.806494     9A     -0.642872
      10A     -0.632076    11A     -0.631459    12A     -0.544516
      13A     -0.543086    14A     -0.517428    15A     -0.503317
      16A     -0.502631    17A     -0.347838

  @DF-RHF Final Energy:  -173.33382563503031

   => Energetics <=

    Nuclear Repulsion Energy =            139.4182734283830030
    One-Electron Energy =                -509.4128117551641708
    Two-Electron Energy =                 196.6607126917508026
    DFT Exchange-Correlation Energy =       0.0000000000000000
    Empirical Dispersion Energy =           0.0000000000000000
    PCM Polarization Energy =               0.0000000000000000
    EFP Energy =                            0.0000000000000000
    Total Energy =                       -173.3338256350303368
    Molecular point group: c1
  Basis Set: CC-PVTZ
  Basis Set:

  -Total Gradient:
     Atom            X                  Y                   Z
    ------   -----------------  -----------------  -----------------
       1        0.000862319377     0.000159085584    -0.001340356668
       2       -0.001523102703    -0.000075281099     0.001722291825
       3        0.001770850044    -0.000344275911    -0.000594437670
       4        0.000002301070    -0.000029346210    -0.000015047230
       5       -0.000017824628    -0.000052878254    -0.000028255087
       6       -0.001152907406     0.000372810184     0.000115460399
       7        0.000079457454    -0.000018722060     0.000030306028
       8        0.000018231855     0.000005213705     0.000074055130
       9       -0.000019901750     0.000010548071    -0.000002546697
      10       -0.000008706737    -0.000020026054     0.000021194011
      11        0.000008827660    -0.000008673034     0.000007667089
      12       -0.000002173768     0.000006372922     0.000002127792
      13       -0.000017370468    -0.000004827843     0.000007541078

  **** Optimization is complete! (in 4 steps) ****
    Final optimized geometry and variables:
    Molecular point group: c1

    Geometry (in Angstrom), charge = 0, multiplicity = 1:

    H           -0.653053876804     1.970736875679     0.187881076659
    C            0.069563341714     1.260732255704     0.568988436888
    N           -0.282378067890    -0.073544273297     0.148630865734
    H            1.055853012014     1.571056738240     0.209198482830
    H            0.073308186718     1.323120544721     1.649980293519
    C           -0.539502122453    -0.153493259642    -1.268224124127
    C            0.680076432340    -1.052502578724     0.589247254587
    H           -0.864477456543    -1.153276614461    -1.527459669092
    H           -1.329200418370     0.535132498646    -1.540454305804
    H            0.339533996188     0.082471277414    -1.876342067294
    H            0.790589624175    -1.003485972456     1.665417644975
    H            0.340268406920    -2.048317526411     0.333837469504
    H            1.668565291448    -0.907325071959     0.142425190290

  Mulliken Charges: (a.u.)
   Center  Symbol    Alpha    Beta     Spin     Total
       1     H     0.45338  0.45338  0.00000  0.09324
       2     C     3.08876  3.08876  0.00000 -0.17751
       3     N     3.59539  3.59539  0.00000 -0.19077
       4     H     0.47411  0.47411  0.00000  0.05179
       5     H     0.45189  0.45189  0.00000  0.09622
       6     C     3.08870  3.08870  0.00000 -0.17739
       7     C     3.08905  3.08905  0.00000 -0.17811
       8     H     0.45274  0.45274  0.00000  0.09452
       9     H     0.45249  0.45249  0.00000  0.09502
      10     H     0.47426  0.47426  0.00000  0.05148
      11     H     0.45288  0.45288  0.00000  0.09423
      12     H     0.45267  0.45267  0.00000  0.09466
      13     H     0.47369  0.47369  0.00000  0.05263

   Total alpha = 17.00000, Total beta = 17.00000, Total charge = -0.00000
