                              Psi4 1.0.54 Driver

  ==> Input File <==

--------------------------------------------------------------------------
set {
	reference rhf
	basis cc-pvtz
}

set_num_threads( 4 )
memory 2 gb

molecule MOL {
0 1

H	 -2.948016	 1.072756	 -1.182723
O	 -3.458596	 0.315260	 -0.960865
C	 -3.176635	 -0.080824	 0.355601
C	 -1.763371	 0.265266	 0.799691
H	 -3.321825	 -1.153438	 0.379502
H	 -3.895468	 0.357385	 1.043382
C	 -0.673390	 -0.426948	 -0.013392
H	 -1.631049	 1.344913	 0.747560
H	 -1.664587	 -0.001624	 1.849167
C	 0.737842	 -0.043159	 0.423759
H	 -0.806103	 -0.190518	 -1.063345
H	 -0.797221	 -1.503753	 0.074146
C	 1.824000	 -0.743224	 -0.390623
H	 0.850588	 1.033777	 0.343840
H	 0.868587	 -0.286314	 1.476203
C	 3.255957	 -0.453067	 0.062319
H	 1.718250	 -0.470599	 -1.438164
H	 1.658105	 -1.815850	 -0.339904
C	 3.707029	 0.992337	 -0.133857
H	 3.928201	 -1.104096	 -0.488158
H	 3.362667	 -0.724561	 1.109374
H	 3.605811	 1.294044	 -1.171549
H	 4.748333	 1.111029	 0.143343
H	 3.129882	 1.683078	 0.468956

	symmetry c1
}
set optking {
	frozen_dihedral = ("
		1 2 3 5
	")
}

ee,wfn = optimize('scf', return_wfn=True)
oeprop( wfn, 'DIPOLE', 'QUADRUPOLE', 'MULLIKEN_CHARGES')
f=open( 'psi4out.xyz', 'w' )
f.write( "24  " )
f.write( str(ee) + "\n" )
f.write( MOL.save_string_xyz() )
f.close()
--------------------------------------------------------------------------

    Molecular point group: c1
  Charge       = 0
  Multiplicity = 1
  Basis Set: CC-PVTZ
  Basis Set:
  @DF-RHF Final Energy:  -349.37885620093783
    Total Energy =                       -349.3788562009372072
    Molecular point group: c1
  Basis Set: CC-PVTZ
  Basis Set:
  Basis Set: CC-PVTZ
  Basis Set:
  @DF-RHF Final Energy:  -349.37891356413047
    Total Energy =                       -349.3789135641305847
  Basis Set: CC-PVTZ
  Basis Set:
  Basis Set: CC-PVTZ
  Basis Set:
  @DF-RHF Final Energy:  -349.37895286594755
    Total Energy =                       -349.3789528659474399
  Basis Set: CC-PVTZ
  Basis Set:
  Basis Set: CC-PVTZ
  Basis Set:
  @DF-RHF Final Energy:  -349.37895556507766
    Total Energy =                       -349.3789555650772627
  Basis Set: CC-PVTZ
  Basis Set:
  Charge       = 0
  Multiplicity = 1
  Basis Set: CC-PVTZ
  Basis Set:

    Orbital Energies (a.u.)
    -----------------------

    Doubly Occupied:

       1A    -20.544158     2A    -11.264827     3A    -11.220153
       4A    -11.215135     5A    -11.214468     6A    -11.213856
       7A    -11.212573     8A    -11.207387     9A     -1.362381
      10A     -1.093557    11A     -1.052226    12A     -0.989032
      13A     -0.918830    14A     -0.854984    15A     -0.805357
      16A     -0.779880    17A     -0.666528    18A     -0.658368
      19A     -0.636728    20A     -0.625363    21A     -0.605206
      22A     -0.588486    23A     -0.560247    24A     -0.541968
      25A     -0.520402    26A     -0.514000    27A     -0.498943
      28A     -0.476015    29A     -0.472367    30A     -0.463927
      31A     -0.455569    32A     -0.452479    33A     -0.424543

  @DF-RHF Final Energy:  -349.37895589645893

   => Energetics <=

    Nuclear Repulsion Energy =            385.0978493707549433
    One-Electron Energy =               -1236.7337324919710682
    Two-Electron Energy =                 502.2569272247570211
    DFT Exchange-Correlation Energy =       0.0000000000000000
    Empirical Dispersion Energy =           0.0000000000000000
    PCM Polarization Energy =               0.0000000000000000
    EFP Energy =                            0.0000000000000000
    Total Energy =                       -349.3789558964591038
    Molecular point group: c1
  Basis Set: CC-PVTZ
  Basis Set:

  -Total Gradient:
     Atom            X                  Y                   Z
    ------   -----------------  -----------------  -----------------
       1        0.001700110043    -0.001333904180    -0.000803223243
       2       -0.001675396518     0.001604088974     0.000860219543
       3       -0.001880656158    -0.000060693867     0.000459933776
       4       -0.000016964264     0.000036132404    -0.000017098621
       5        0.001862813416    -0.000215900694    -0.000495892171
       6        0.000030770691    -0.000014874512    -0.000013912833
       7       -0.000012890879    -0.000007776821    -0.000004918832
       8        0.000006967540     0.000000278234     0.000001283007
       9       -0.000005104544    -0.000006545177     0.000001165298
      10       -0.000010542271     0.000003367047     0.000005890027
      11       -0.000001707253    -0.000000611684     0.000008365684
      12       -0.000000938740    -0.000005346333     0.000003243749
      13        0.000000834086     0.000003972535    -0.000005130660
      14       -0.000000423055    -0.000000934700     0.000002012146
      15        0.000001012369    -0.000002956286    -0.000000866433
      16       -0.000000355183     0.000000660924    -0.000002546701
      17        0.000000067550    -0.000001243159    -0.000000068036
      18        0.000001072433     0.000003153919     0.000001623197
      19        0.000000473068    -0.000000301133    -0.000000287831
      20        0.000001434212     0.000000545455     0.000000531570
      21       -0.000000667011     0.000000825474    -0.000000646154
      22       -0.000000410419    -0.000000206686     0.000001009286
      23        0.000000428191    -0.000000321733     0.000000026462
      24        0.000000072699    -0.000001408003    -0.000000712231

  **** Optimization is complete! (in 5 steps) ****
    Final optimized geometry and variables:
    Molecular point group: c1

    Geometry (in Angstrom), charge = 0, multiplicity = 1:

    H           -2.983653362412     1.112254601319    -1.189633191664
    O           -3.480897681501     0.346515196848    -0.968794937954
    C           -3.182852065111    -0.065629178586     0.340231881883
    C           -1.767696188943     0.278903752504     0.779531156429
    H           -3.313010510312    -1.141080859185     0.361760293791
    H           -3.895937076439     0.371092950894     1.033274688822
    C           -0.675074389787    -0.421435786644    -0.025082097016
    H           -1.632861755218     1.358683674065     0.725470222280
    H           -1.669898748366     0.017225268705     1.829550975145
    C            0.734810294037    -0.046478956318     0.424316808402
    H           -0.790751398240    -0.189409468909    -1.079130724960
    H           -0.808050400098    -1.496730535377     0.062014603172
    C            1.823912097513    -0.754558325260    -0.379201134884
    H            0.855628548110     1.029628216282     0.345457668574
    H            0.853036899276    -0.290080050027     1.477950966893
    C            3.253303119919    -0.473050026448     0.087175184025
    H            1.730176138512    -0.482452064704    -1.428087709228
    H            1.650456839624    -1.825949927527    -0.328902845493
    C            3.715285249586     0.969421123311    -0.105147160354
    H            3.926375807876    -1.128498681991    -0.456860130793
    H            3.348432931859    -0.745083438325     1.135155691071
    H            3.624348105741     1.272032066460    -1.143530396922
    H            4.755087207344     1.081106440671     0.180197145491
    H            3.138261014492     1.663962139426     0.493417662739

  Mulliken Charges: (a.u.)
   Center  Symbol    Alpha    Beta     Spin     Total
       1     H     0.39343  0.39343  0.00000  0.21314
       2     O     4.20695  4.20695  0.00000 -0.41390
       3     C     2.96068  2.96068  0.00000  0.07864
       4     C     3.11432  3.11432  0.00000 -0.22865
       5     H     0.46618  0.46618  0.00000  0.06764
       6     H     0.46329  0.46329  0.00000  0.07342
       7     C     3.08726  3.08726  0.00000 -0.17452
       8     H     0.45636  0.45636  0.00000  0.08729
       9     H     0.45013  0.45013  0.00000  0.09973
      10     C     3.09168  3.09168  0.00000 -0.18336
      11     H     0.45027  0.45027  0.00000  0.09947
      12     H     0.45246  0.45246  0.00000  0.09508
      13     C     3.09501  3.09501  0.00000 -0.19002
      14     H     0.45321  0.45321  0.00000  0.09357
      15     H     0.45491  0.45491  0.00000  0.09019
      16     C     3.09029  3.09029  0.00000 -0.18058
      17     H     0.45362  0.45362  0.00000  0.09275
      18     H     0.44911  0.44911  0.00000  0.10178
      19     C     3.15264  3.15264  0.00000 -0.30529
      20     H     0.44818  0.44818  0.00000  0.10363
      21     H     0.45481  0.45481  0.00000  0.09037
      22     H     0.45485  0.45485  0.00000  0.09029
      23     H     0.44616  0.44616  0.00000  0.10769
      24     H     0.45418  0.45418  0.00000  0.09164

   Total alpha = 33.00000, Total beta = 33.00000, Total charge =  0.00000

*** Psi4 exiting successfully. Buy a developer a beer!
