  ==> Input File <==

--------------------------------------------------------------------------
set {
	reference rhf
	basis 6-31G*
}

set_num_threads( 4 )
memory 2 gb

molecule MOL {
0 1

O	 -2.042549	 -1.228399	 -0.269030
C	 -1.653912	 -0.146171	 0.050137
C	 -0.332303	 0.024011	 0.778412
C	 -2.438579	 1.106236	 -0.272369
C	 0.845713	 -0.001731	 -0.208243
H	 -0.323783	 0.953829	 1.340327
H	 -0.235459	 -0.796807	 1.480410
C	 2.200309	 0.136118	 0.488247
H	 0.733710	 0.800019	 -0.936072
H	 0.811185	 -0.933796	 -0.764304
C	 2.265359	 1.345191	 1.420512
H	 2.409752	 -0.769056	 1.054125
H	 2.982374	 0.215918	 -0.263135
H	 1.516263	 1.277584	 2.204309
H	 2.091914	 2.268935	 0.876402
H	 3.237329	 1.419474	 1.897778
H	 -3.277823	 0.863061	 -0.908988
H	 -1.806773	 1.843019	 -0.759671
H	 -2.802853	 1.554979	 0.648059

	symmetry c1
}
set optking {
	frozen_dihedral = ("
		11 8 5 9
	")
}

ee = optimize('scf')
oeprop('DIPOLE', 'QUADRUPOLE', 'MULLIKEN_CHARGES')
f=open( 'psi4out.xyz', 'w' )
f.write( "19  " )
f.write( str(ee) + "\n" )
f.write( MOL.save_string_xyz() )
f.close()
--------------------------------------------------------------------------

    Molecular point group: c1
  Charge       = 0
  Multiplicity = 1
  Basis Set: 6-31G*
  Basis Set:
  @DF-RHF Final Energy:  -309.06163786198721
    Total Energy =                       -309.0616378619872648
    Molecular point group: c1
  Basis Set: 6-31G*
  Basis Set:
  Basis Set: 6-31G*
  Basis Set:
  @DF-RHF Final Energy:  -309.06223070577119
    Total Energy =                       -309.0622307057707303
  Basis Set: 6-31G*
  Basis Set:
  Basis Set: 6-31G*
  Basis Set:
  @DF-RHF Final Energy:  -309.06302021199747
    Total Energy =                       -309.0630202119972409
  Basis Set: 6-31G*
  Basis Set:
  Basis Set: 6-31G*
  Basis Set:
  @DF-RHF Final Energy:  -309.06308779758706
    Total Energy =                       -309.0630877975869453
  Basis Set: 6-31G*
  Basis Set:
  @DF-RHF Final Energy:  -309.06306746327061
    Total Energy =                       -309.0630674632704995
  @DF-RHF Final Energy:  -309.06304866896028
    Total Energy =                       -309.0630486689602208
  @DF-RHF Final Energy:  -309.06306775167445
    Total Energy =                       -309.0630677516745095
  Basis Set: 6-31G*
  Basis Set:
  @DF-RHF Final Energy:  -309.06308911082601
    Total Energy =                       -309.0630891108260130
  Basis Set: 6-31G*
  Basis Set:
  Basis Set: 6-31G*
  Basis Set:
  @DF-RHF Final Energy:  -309.06309556369882
    Total Energy =                       -309.0630955636988801
  Basis Set: 6-31G*
  Basis Set:
  Basis Set: 6-31G*
  Basis Set:
  @DF-RHF Final Energy:  -309.06309763660374
    Total Energy =                       -309.0630976366034588
  Basis Set: 6-31G*
  Basis Set:
  Charge       = 0
  Multiplicity = 1
  Basis Set: 6-31G*
  Basis Set:

    Orbital Energies (a.u.)
    -----------------------

    Doubly Occupied:

       1A    -20.547521     2A    -11.324695     3A    -11.230657
       4A    -11.229193     5A    -11.228267     6A    -11.225045
       7A    -11.216524     8A     -1.393329     9A     -1.091082
      10A     -1.027667    11A     -0.981742    12A     -0.901353
      13A     -0.797467    14A     -0.735004    15A     -0.658801
      16A     -0.651363    17A     -0.619556    18A     -0.603993
      19A     -0.596388    20A     -0.570254    21A     -0.552309
      22A     -0.541683    23A     -0.522465    24A     -0.496976
      25A     -0.479623    26A     -0.471836    27A     -0.464386
      28A     -0.397544

  @DF-RHF Final Energy:  -309.06309776847104

   => Energetics <=

    Nuclear Repulsion Energy =            304.7337794571263885
    One-Electron Energy =               -1022.4803123131405300
    Two-Electron Energy =                 408.6834350875431028
    DFT Exchange-Correlation Energy =       0.0000000000000000
    Empirical Dispersion Energy =           0.0000000000000000
    PCM Polarization Energy =               0.0000000000000000
    EFP Energy =                            0.0000000000000000
    Total Energy =                       -309.0630977684710388
    Molecular point group: c1
  Basis Set: 6-31G*
  Basis Set:

  -Total Gradient:
     Atom            X                  Y                   Z
    ------   -----------------  -----------------  -----------------
       1        0.000003406192    -0.000001194792    -0.000002094663
       2       -0.000004708553     0.000000143685    -0.000003452367
       3        0.000002435665    -0.000000781430    -0.000008117158
       4       -0.000001438746    -0.000001667510     0.000002407367
       5       -0.001525609402     0.001447595485     0.002936467484
       6        0.000007201386    -0.000000906369    -0.000003843981
       7        0.000000946698    -0.000000450519     0.000003488226
       8        0.001181993248     0.001184267685    -0.002518979557
       9        0.000995622124    -0.001534659754    -0.001883988854
      10       -0.000013379247     0.000001410184     0.000006440961
      11       -0.000660657997    -0.001095651155     0.001460072435
      12        0.000009622856    -0.000000852094     0.000007707886
      13        0.000003890350     0.000008496217     0.000008062942
      14       -0.000001429204    -0.000007021237    -0.000005216072
      15       -0.000002120588    -0.000002479331    -0.000000582381
      16        0.000001528837     0.000002716497     0.000001000963
      17        0.000000872528    -0.000000482323     0.000000595505
      18        0.000001543864     0.000000029832    -0.000000468944
      19        0.000000280002     0.000001486929     0.000000500208

  **** Optimization is complete! (in 11 steps) ****
    Final optimized geometry and variables:
    Molecular point group: c1

    Geometry (in Angstrom), charge = 0, multiplicity = 1:

    O           -1.849375893084    -1.450310539869    -0.545664454424
    C           -1.506320420069    -0.346488448899    -0.249205493971
    C           -0.206910311839    -0.107193792753     0.499943513448
    C           -2.329515019032     0.867156275758    -0.620451975344
    C            0.984475372073    -0.112828021032    -0.471332020433
    H           -0.254575477372     0.831448381853     1.041548547755
    H           -0.090422208147    -0.910494036784     1.219818163101
    C            2.358403015022    -0.042244058582     0.206035073052
    H            0.892717160562     0.702167142146    -1.187343949148
    H            0.936115477792    -1.027712392415    -1.054018825690
    C            2.547613815348     1.132994231635     1.166334177919
    H            2.531718990537    -0.970039686108     0.746630580145
    H            3.116652629152     0.002912697755    -0.570879483711
    H            1.900209326380     1.054888126879     2.033197259706
    H            2.337508844079     2.081376541274     0.678182015124
    H            3.570249576392     1.169608671338     1.527985685738
    H           -3.146110990926     0.576359064591    -1.266477060067
    H           -1.715098242567     1.613686856699    -1.115095327284
    H           -2.728828052566     1.326163345567     0.280168057808

  Mulliken Charges: (a.u.)
   Center  Symbol    Alpha    Beta     Spin     Total
       1     O     4.26202  4.26202  0.00000 -0.52404
       2     C     2.73712  2.73712  0.00000  0.52576
       3     C     3.20218  3.20218  0.00000 -0.40436
       4     C     3.28948  3.28948  0.00000 -0.57897
       5     C     3.16365  3.16365  0.00000 -0.32730
       6     H     0.41431  0.41431  0.00000  0.17137
       7     H     0.40155  0.40155  0.00000  0.19691
       8     C     3.15229  3.15229  0.00000 -0.30458
       9     H     0.42107  0.42107  0.00000  0.15786
      10     H     0.40479  0.40479  0.00000  0.19043
      11     C     3.24364  3.24364  0.00000 -0.48729
      12     H     0.41893  0.41893  0.00000  0.16213
      13     H     0.41744  0.41744  0.00000  0.16511
      14     H     0.41945  0.41945  0.00000  0.16109
      15     H     0.42233  0.42233  0.00000  0.15534
      16     H     0.41622  0.41622  0.00000  0.16756
      17     H     0.39701  0.39701  0.00000  0.20598
      18     H     0.40970  0.40970  0.00000  0.18060
      19     H     0.40681  0.40681  0.00000  0.18639

   Total alpha = 28.00000, Total beta = 28.00000, Total charge = -0.00000
