  ==> Input File <==

--------------------------------------------------------------------------
set {
	reference rhf
	basis cc-pvtz
}

set_num_threads( 4 )
memory 2 gb

molecule MOL {
0 1

O	 0.074770	 1.259872	 0.000487
C	 0.029490	 0.077183	 0.000078
C	 -1.232113	 -0.748027	 0.000015
O	 1.106773	 -0.690081	 -0.000204
C	 -2.501422	 0.088592	 -0.000052
H	 -1.188777	 -1.400384	 -0.865133
H	 -1.188857	 -1.400312	 0.865225
H	 -2.548170	 0.725504	 -0.873205
H	 -3.371613	 -0.556398	 -0.000040
H	 -2.548215	 0.725571	 0.873047
C	 1.386299	 -1.416586	 1.179498
H	 1.536201	 -0.746740	 2.013208
H	 2.288852	 -1.971336	 0.980813
H	 0.576670	 -2.092485	 1.411675

	symmetry c1
}
set optking {
	frozen_dihedral = ("
		11 4 2 3
	")
}

ee = optimize('scf')
oeprop('DIPOLE', 'QUADRUPOLE', 'MULLIKEN_CHARGES')
f=open( 'psi4out.xyz', 'w' )
f.write( "14  " )
f.write( str(ee) + "\n" )
f.write( MOL.save_string_xyz() )
f.close()
--------------------------------------------------------------------------

    Molecular point group: c1
  Charge       = 0
  Multiplicity = 1
  Basis Set: CC-PVTZ
  Basis Set:
  @DF-RHF Final Energy:  -305.96437104562358
    Total Energy =                       -305.9643710456238068
    Molecular point group: c1
  Basis Set: CC-PVTZ
  Basis Set:
  Basis Set: CC-PVTZ
  Basis Set:
  @DF-RHF Final Energy:  -305.96616536741624
    Total Energy =                       -305.9661653674163517
  Basis Set: CC-PVTZ
  Basis Set:
  Basis Set: CC-PVTZ
  Basis Set:
  @DF-RHF Final Energy:  -305.96738023749771
    Total Energy =                       -305.9673802374975935
  Basis Set: CC-PVTZ
  Basis Set:
  Basis Set: CC-PVTZ
  Basis Set:
  @DF-RHF Final Energy:  -305.96747714098416
    Total Energy =                       -305.9674771409845562
  Basis Set: CC-PVTZ
  Basis Set:
  Basis Set: CC-PVTZ
  Basis Set:
  @DF-RHF Final Energy:  -305.96746866585090
    Total Energy =                       -305.9674686658510723
  Basis Set: CC-PVTZ
  Basis Set:
  Basis Set: CC-PVTZ
  Basis Set:
  @DF-RHF Final Energy:  -305.96755691076510
    Total Energy =                       -305.9675569107648698
  Basis Set: CC-PVTZ
  Basis Set:
  Charge       = 0
  Multiplicity = 1
  Basis Set: CC-PVTZ
  Basis Set:

    Orbital Energies (a.u.)
    -----------------------

    Doubly Occupied:

       1A    -20.581333     2A    -20.543815     3A    -11.368094
       4A    -11.291882     5A    -11.243210     6A    -11.218564
       7A     -1.462500     8A     -1.371144     9A     -1.063546
      10A     -0.979239    11A     -0.896094    12A     -0.768097
      13A     -0.703597    14A     -0.680569    15A     -0.676672
      16A     -0.629360    17A     -0.613727    18A     -0.559110
      19A     -0.547869    20A     -0.526088    21A     -0.512379
      22A     -0.492373    23A     -0.460310    24A     -0.439545

  @DF-RHF Final Energy:  -305.96755767400828

   => Energetics <=

    Nuclear Repulsion Energy =            247.1540326679789530
    One-Electron Energy =                -906.9849481640276281
    Two-Electron Energy =                 353.8633578220403137
    DFT Exchange-Correlation Energy =       0.0000000000000000
    Empirical Dispersion Energy =           0.0000000000000000
    PCM Polarization Energy =               0.0000000000000000
    EFP Energy =                            0.0000000000000000
    Total Energy =                       -305.9675576740083329
    Molecular point group: c1
  Basis Set: CC-PVTZ
  Basis Set:

  -Total Gradient:
     Atom            X                  Y                   Z
    ------   -----------------  -----------------  -----------------
       1       -0.000043131465     0.000065559877    -0.000020172446
       2        0.000539715310     0.000342943843     0.001939120698
       3       -0.000001268643     0.000035928044    -0.001132075023
       4       -0.001188604879    -0.001467653663    -0.001135909186
       5        0.000000740815     0.000008809910    -0.000020261512
       6        0.000004565767     0.000002347061    -0.000011057797
       7        0.000009046261    -0.000013426297    -0.000005182739
       8       -0.000003625136     0.000003054644     0.000000237218
       9        0.000010140575    -0.000002618537     0.000001954694
      10        0.000003064781    -0.000000038595     0.000005936542
      11        0.000681685699     0.001032938129     0.000377527991
      12       -0.000008434463     0.000007770273    -0.000006435055
      13       -0.000000770857    -0.000006735367    -0.000002691918
      14       -0.000003123764    -0.000008879324     0.000009008533

  **** Optimization is complete! (in 7 steps) ****
    Final optimized geometry and variables:
    Molecular point group: c1

    Geometry (in Angstrom), charge = 0, multiplicity = 1:

    O            0.238106731824     1.474010466383    -0.231464816601
    C            0.178430951101     0.301193187455    -0.173281507593
    C           -1.111338743437    -0.484931640919    -0.172906951171
    O            1.300568723324    -0.444305312068    -0.193993760860
    C           -2.353534333244     0.388427913281    -0.253104616457
    H           -1.056445988349    -1.172818717570    -1.010187320660
    H           -1.137390002159    -1.103542087514     0.717693749408
    H           -2.348083663919     0.988544740156    -1.152662149916
    H           -3.243322994613    -0.229280192208    -0.257659952946
    H           -2.409621425192     1.063052403068     0.590651482146
    C            1.648423109775    -1.190042008485     0.948237912226
    H            1.676610279427    -0.557179081234     1.827135327430
    H            2.635327395917    -1.583701915977     0.767398731954
    H            0.966642138257    -2.014819196293     1.115140110289

  Mulliken Charges: (a.u.)
   Center  Symbol    Alpha    Beta     Spin     Total
       1     O     4.16663  4.16663  0.00000 -0.33326
       2     C     2.79536  2.79536  0.00000  0.40928
       3     C     3.11224  3.11224  0.00000 -0.22448
       4     O     4.15760  4.15760  0.00000 -0.31519
       5     C     3.13864  3.13864  0.00000 -0.27729
       6     H     0.43775  0.43775  0.00000  0.12450
       7     H     0.44742  0.44742  0.00000  0.10515
       8     H     0.44539  0.44539  0.00000  0.10922
       9     H     0.45091  0.45091  0.00000  0.09819
      10     H     0.44817  0.44817  0.00000  0.10365
      11     C     3.04068  3.04068  0.00000 -0.08136
      12     H     0.45823  0.45823  0.00000  0.08355
      13     H     0.43846  0.43846  0.00000  0.12309
      14     H     0.46253  0.46253  0.00000  0.07495

   Total alpha = 24.00000, Total beta = 24.00000, Total charge = -0.00000
