                              Psi4 1.0.54 Driver

  ==> Input File <==

--------------------------------------------------------------------------
set {
	reference rhf
	basis cc-pvtz
}

set_num_threads( 4 )
memory 2 gb

molecule MOL {
0 1

H	 2.156723	 -0.816389	 -0.685858
O	 2.063695	 -0.083403	 -0.105237
C	 0.742924	 0.005675	 0.350750
H	 0.731380	 0.039219	 1.440080
C	 -0.064076	 -1.193495	 -0.124425
C	 -0.047832	 1.190568	 -0.194462
H	 0.194729	 -1.376165	 -1.161308
H	 0.163013	 -2.094508	 0.429933
C	 -1.533112	 -0.752002	 0.006102
H	 0.148003	 1.266545	 -1.259275
H	 0.226235	 2.136493	 0.259722
C	 -1.506634	 0.799189	 0.067162
H	 -2.124360	 -1.110499	 -0.826089
H	 -1.983103	 -1.158030	 0.903403
H	 -2.183808	 1.252169	 -0.644677
H	 -1.813926	 1.138698	 1.049457

	symmetry c1
}
set optking {
	frozen_dihedral = ("
		1 2 3 6
	")
}

ee,wfn = optimize('scf', return_wfn=True)
oeprop( wfn, 'DIPOLE', 'QUADRUPOLE', 'MULLIKEN_CHARGES')
f=open( 'psi4out.xyz', 'w' )
f.write( "16  " )
f.write( str(ee) + "\n" )
f.write( MOL.save_string_xyz() )
f.close()
--------------------------------------------------------------------------

    Molecular point group: c1
  Charge       = 0
  Multiplicity = 1
  Basis Set: CC-PVTZ
  Basis Set:
  @DF-RHF Final Energy:  -270.11318651579148
    Total Energy =                       -270.1131865157914262
    Molecular point group: c1
  Basis Set: CC-PVTZ
  Basis Set:
  Basis Set: CC-PVTZ
  Basis Set:
  @DF-RHF Final Energy:  -270.11455224600593
    Total Energy =                       -270.1145522460058146
  Basis Set: CC-PVTZ
  Basis Set:
  Basis Set: CC-PVTZ
  Basis Set:
  @DF-RHF Final Energy:  -270.11481457774903
    Total Energy =                       -270.1148145777489162
  Basis Set: CC-PVTZ
  Basis Set:
  Basis Set: CC-PVTZ
  Basis Set:
  @DF-RHF Final Energy:  -270.11482081480460
    Total Energy =                       -270.1148208148046024
  Basis Set: CC-PVTZ
  Basis Set:
  Charge       = 0
  Multiplicity = 1
  Basis Set: CC-PVTZ
  Basis Set:

    Orbital Energies (a.u.)
    -----------------------

    Doubly Occupied:

       1A    -20.543500     2A    -11.267354     3A    -11.218831
       4A    -11.218231     5A    -11.215202     6A    -11.207187
       7A     -1.364082     8A     -1.117229     9A     -0.970129
      10A     -0.950090    11A     -0.802003    12A     -0.783313
      13A     -0.682597    14A     -0.666632    15A     -0.608675
      16A     -0.602134    17A     -0.577983    18A     -0.536503
      19A     -0.504089    20A     -0.485167    21A     -0.473669
      22A     -0.459505    23A     -0.450982    24A     -0.419452

  @DF-RHF Final Energy:  -270.11482133062373

   => Energetics <=

    Nuclear Repulsion Energy =            255.5307026463016484
    One-Electron Energy =                -873.0419690401788557
    Two-Electron Energy =                 347.3964450632533953
    DFT Exchange-Correlation Energy =       0.0000000000000000
    Empirical Dispersion Energy =           0.0000000000000000
    PCM Polarization Energy =               0.0000000000000000
    EFP Energy =                            0.0000000000000000
    Total Energy =                       -270.1148213306238404
    Molecular point group: c1
  Basis Set: CC-PVTZ
  Basis Set:

  -Total Gradient:
     Atom            X                  Y                   Z
    ------   -----------------  -----------------  -----------------
       1        0.000166719745    -0.000544350361     0.000608800933
       2       -0.000162763813     0.000774154802    -0.000570608627
       3       -0.000114605824    -0.000457492489    -0.000449278042
       4       -0.000003726602    -0.000003261969     0.000011390227
       5        0.000020550256     0.000035625223    -0.000038299515
       6        0.000134977214     0.000242100394     0.000398297220
       7        0.000004275422    -0.000011699155     0.000002383852
       8        0.000003121909     0.000021813664    -0.000002470891
       9       -0.000021577098    -0.000000802018    -0.000005329592
      10        0.000024823508    -0.000001479349    -0.000005178474
      11        0.000013689042    -0.000008245031    -0.000000839078
      12       -0.000016738733    -0.000020024361     0.000042833264
      13       -0.000019762198    -0.000008281687    -0.000002385442
      14       -0.000013629462     0.000002571056    -0.000000695873
      15        0.000004771374    -0.000013572230     0.000006059722
      16       -0.000020124742    -0.000007056489     0.000005320317

  **** Optimization is complete! (in 5 steps) ****
    Final optimized geometry and variables:
    Molecular point group: c1

    Geometry (in Angstrom), charge = 0, multiplicity = 1:

    H            2.286526777357    -0.612719530459    -0.631022732194
    O            2.090770208969     0.046183162598     0.008089738222
    C            0.734640327541     0.002784224801     0.359504241560
    H            0.689740347472    -0.014864349350     1.445262471418
    C           -0.042331762822    -1.189480021800    -0.190161233412
    C           -0.067228540572     1.195888416998    -0.144552820318
    H            0.219875659739    -1.319141886161    -1.237973757270
    H            0.190129910907    -2.115853615583     0.320234061029
    C           -1.521065851151    -0.780576218014    -0.060670998104
    H            0.141825268358     1.329316341463    -1.201863478953
    H            0.191037792558     2.118703213992     0.358405659096
    C           -1.521694522949     0.766406434856     0.076119063329
    H           -2.093742817176    -1.109514528952    -0.917684328055
    H           -1.973102638364    -1.239796518210     0.809179527660
    H           -2.199343349182     1.239871439976    -0.621681027337
    H           -1.848081663745     1.050301357626     1.069643602787

  Mulliken Charges: (a.u.)
   Center  Symbol    Alpha    Beta     Spin     Total
       1     H     0.39167  0.39167  0.00000  0.21665
       2     O     4.20876  4.20876  0.00000 -0.41753
       3     C     2.92536  2.92536  0.00000  0.14929
       4     H     0.45429  0.45429  0.00000  0.09142
       5     C     3.11674  3.11674  0.00000 -0.23347
       6     C     3.08998  3.08998  0.00000 -0.17997
       7     H     0.45994  0.45994  0.00000  0.08012
       8     H     0.44071  0.44071  0.00000  0.11858
       9     C     3.10901  3.10901  0.00000 -0.21803
      10     H     0.45996  0.45996  0.00000  0.08008
      11     H     0.44446  0.44446  0.00000  0.11107
      12     C     3.11486  3.11486  0.00000 -0.22972
      13     H     0.44505  0.44505  0.00000  0.10990
      14     H     0.44648  0.44648  0.00000  0.10705
      15     H     0.44335  0.44335  0.00000  0.11330
      16     H     0.44937  0.44937  0.00000  0.10126

   Total alpha = 24.00000, Total beta = 24.00000, Total charge =  0.00000

*** Psi4 exiting successfully. Buy a developer a beer!
