  ==> Input File <==

--------------------------------------------------------------------------
set {
	reference rhf
	basis 6-31G*
}

set_num_threads( 1 )
memory 2 gb

molecule MOL {
0 1

O	 -0.291628	 1.323815	 -0.000732
C	 -0.449655	 0.146360	 0.000961
C	 -1.783294	 -0.549321	 -0.000296
O	 0.550821	 -0.724572	 0.000672
H	 -1.863538	 -1.185371	 -0.874187
H	 -2.574672	 0.185258	 -0.002793
H	 -1.866414	 -1.182381	 0.875436
C	 0.256399	 -2.040364	 0.434596
H	 -0.096648	 -2.033151	 1.455704
H	 1.182655	 -2.588659	 0.362690
H	 -0.495209	 -2.489349	 -0.198523

	symmetry c1
}
set optking {
	frozen_dihedral = ("
		2 4 8 9
	")
}

ee = energy('scf')
oeprop('DIPOLE', 'QUADRUPOLE', 'MULLIKEN_CHARGES')
f=open( 'psi4out.xyz', 'w' )
f.write( "11  " )
f.write( str(ee) + "\n" )
f.write( MOL.save_string_xyz() )
f.close()
--------------------------------------------------------------------------

    Molecular point group: c1

    Geometry (in Angstrom), charge = 0, multiplicity = 1:

       Center              X                  Y                   Z               Mass
    ------------   -----------------  -----------------  -----------------  -----------------
           O          0.050517716780     1.716882280004    -0.093296301397    15.994914619560
           C         -0.107509283220     0.539427280004    -0.091603301397    12.000000000000
           C         -1.441148283220    -0.156253719996    -0.092860301397    12.000000000000
           O          0.892966716780    -0.331504719996    -0.091892301397    15.994914619560
           H         -1.521392283220    -0.792303719996    -0.966751301397     1.007825032070
           H         -2.232526283220     0.578325280004    -0.095357301397     1.007825032070
           H         -1.524268283220    -0.789313719996     0.782871698603     1.007825032070
           C          0.598544716780    -1.647296719996     0.342031698603    12.000000000000
           H          0.245497716780    -1.640083719996     1.363139698603     1.007825032070
           H          1.524800716780    -2.195591719996     0.270125698603     1.007825032070
           H         -0.153063283220    -2.096281719996    -0.291087301397     1.007825032070

  Charge       = 0
  Multiplicity = 1
  Basis Set: 6-31G*
  Basis Set:

    Orbital Energies (a.u.)
    -----------------------

    Doubly Occupied:

       1A    -20.608356     2A    -20.546040     3A    -11.379124
       4A    -11.300095     5A    -11.241490     6A     -1.470320
       7A     -1.371086     8A     -1.026415     9A     -0.990654
      10A     -0.785185    11A     -0.701667    12A     -0.695954
      13A     -0.684817    14A     -0.609419    15A     -0.590818
      16A     -0.567204    17A     -0.555370    18A     -0.523137
      19A     -0.453261    20A     -0.436350

  @DF-RHF Final Energy:  -266.81146739088643

   => Energetics <=

    Nuclear Repulsion Energy =            185.0944952795270524
    One-Electron Energy =                -730.7383114250702647
    Two-Electron Energy =                 278.8323487546563229
    DFT Exchange-Correlation Energy =       0.0000000000000000
    Empirical Dispersion Energy =           0.0000000000000000
    PCM Polarization Energy =               0.0000000000000000
    EFP Energy =                            0.0000000000000000
    Total Energy =                       -266.8114673908869463

  Mulliken Charges: (a.u.)
   Center  Symbol    Alpha    Beta     Spin     Total
       1     O     4.26791  4.26791  0.00000 -0.53582
       2     C     2.60890  2.60890  0.00000  0.78220
       3     C     3.31836  3.31836  0.00000 -0.63673
       4     O     4.29233  4.29233  0.00000 -0.58465
       5     H     0.39846  0.39846  0.00000  0.20307
       6     H     0.38860  0.38860  0.00000  0.22280
       7     H     0.40294  0.40294  0.00000  0.19411
       8     C     3.10256  3.10256  0.00000 -0.20511
       9     H     0.41125  0.41125  0.00000  0.17749
      10     H     0.39530  0.39530  0.00000  0.20940
      11     H     0.41338  0.41338  0.00000  0.17325

   Total alpha = 20.00000, Total beta = 20.00000, Total charge =  0.00000
