  ==> Input File <==

--------------------------------------------------------------------------
set {
	reference rhf
	basis 6-31G*
}

set_num_threads( 1 )
memory 2 gb

molecule MOL {
0 1

O	 2.168066	 0.190786	 -1.101455
C	 2.701189	 0.057885	 -0.047330
C	 2.741663	 1.088643	 1.054798
O	 3.347903	 -1.046386	 0.304773
C	 1.998679	 2.374990	 0.700676
H	 2.338685	 0.618144	 1.945545
H	 3.787901	 1.288355	 1.272052
C	 2.118900	 3.470300	 1.765728
H	 0.951790	 2.147339	 0.523707
H	 2.386413	 2.750345	 -0.240171
C	 1.442487	 3.148677	 3.101443
H	 1.679358	 4.380342	 1.364043
H	 3.170585	 3.694339	 1.938284
C	 1.495338	 4.314426	 4.091006
H	 0.403442	 2.877878	 2.920134
H	 1.909589	 2.279080	 3.558160
C	 0.827007	 4.002579	 5.431236
H	 1.017563	 5.185749	 3.646301
H	 2.533682	 4.592719	 4.264480
C	 0.880753	 5.173161	 6.412333
H	 -0.210398	 3.723319	 5.259632
H	 1.306077	 3.134552	 5.879343
H	 0.399320	 4.921561	 7.352294
H	 0.378842	 6.047404	 6.007390
H	 1.907015	 5.454415	 6.631325
C	 4.728119	 -1.109107	 -0.004993
H	 4.882018	 -1.033965	 -1.071845
H	 5.068212	 -2.067527	 0.355250
H	 5.265056	 -0.311663	 0.488280

	symmetry c1
}
set optking {
	frozen_dihedral = ("
		21 17 14 11,
		17 14 11 15,
		15 11 8 5,
		6 3 5 9,
		11 8 5 9,
		2 4 26 27,
		6 3 2 1
	")
}

ee = energy('scf')
oeprop('DIPOLE', 'QUADRUPOLE', 'MULLIKEN_CHARGES')
f=open( 'psi4out.xyz', 'w' )
f.write( "29  " )
f.write( str(ee) + "\n" )
f.write( MOL.save_string_xyz() )
f.close()
--------------------------------------------------------------------------

    Molecular point group: c1

    Geometry (in Angstrom), charge = 0, multiplicity = 1:

       Center              X                  Y                   Z               Mass
    ------------   -----------------  -----------------  -----------------  -----------------
           O         -0.076398960350    -1.748398424372    -3.060706339511    15.994914619560
           C          0.456724039650    -1.881299424372    -2.006581339511    12.000000000000
           C          0.497198039650    -0.850541424372    -0.904453339511    12.000000000000
           O          1.103438039650    -2.985570424372    -1.654478339511    15.994914619560
           C         -0.245785960350     0.435805575628    -1.258575339511    12.000000000000
           H          0.094220039650    -1.321040424372    -0.013706339511     1.007825032070
           H          1.543436039650    -0.650829424372    -0.687199339511     1.007825032070
           C         -0.125564960350     1.531115575628    -0.193523339511    12.000000000000
           H         -1.292674960350     0.208154575628    -1.435544339511     1.007825032070
           H          0.141948039650     0.811160575628    -2.199422339511     1.007825032070
           C         -0.801977960350     1.209492575628     1.142191660489    12.000000000000
           H         -0.565106960350     2.441157575628    -0.595208339511     1.007825032070
           H          0.926120039650     1.755154575628    -0.020967339511     1.007825032070
           C         -0.749126960350     2.375241575628     2.131754660489    12.000000000000
           H         -1.841022960350     0.938693575628     0.960882660489     1.007825032070
           H         -0.334875960350     0.339895575628     1.598908660489     1.007825032070
           C         -1.417457960350     2.063394575628     3.471984660489    12.000000000000
           H         -1.226901960350     3.246564575628     1.687049660489     1.007825032070
           H          0.289217039650     2.653534575628     2.305228660489     1.007825032070
           C         -1.363711960350     3.233976575628     4.453081660489    12.000000000000
           H         -2.454862960350     1.784134575628     3.300380660489     1.007825032070
           H         -0.938387960350     1.195367575628     3.920091660489     1.007825032070
           H         -1.845144960350     2.982376575628     5.393042660489     1.007825032070
           H         -1.865622960350     4.108219575628     4.048138660489     1.007825032070
           H         -0.337449960350     3.515230575628     4.672073660489     1.007825032070
           C          2.483654039650    -3.048291424372    -1.964244339511    12.000000000000
           H          2.637553039650    -2.973149424372    -3.031096339511     1.007825032070
           H          2.823747039650    -4.006711424372    -1.604001339511     1.007825032070
           H          3.020591039650    -2.250847424372    -1.470971339511     1.007825032070

  Charge       = 0
  Multiplicity = 1
  Basis Set: 6-31G*
  Basis Set:

    Orbital Energies (a.u.)
    -----------------------

    Doubly Occupied:

       1A    -20.586902     2A    -20.554685     3A    -11.373348
       4A    -11.295296     5A    -11.236327     6A    -11.219997
       7A    -11.218847     8A    -11.217147     9A    -11.216756
      10A    -11.215537    11A    -11.209875    12A     -1.463716
      13A     -1.367029    14A     -1.098884    15A     -1.066533
      16A     -1.015842    17A     -0.981062    18A     -0.938135
      19A     -0.866038    20A     -0.802469    21A     -0.792438
      22A     -0.764513    23A     -0.699357    24A     -0.680269
      25A     -0.675871    26A     -0.652210    27A     -0.626136
      28A     -0.619308    29A     -0.598862    30A     -0.587621
      31A     -0.564835    32A     -0.558312    33A     -0.540470
      34A     -0.531555    35A     -0.518824    36A     -0.501868
      37A     -0.488699    38A     -0.482702    39A     -0.473199
      40A     -0.466485    41A     -0.463332    42A     -0.450802
      43A     -0.442255    44A     -0.431013

  @DF-RHF Final Energy:  -501.02241428409729

   => Energetics <=

    Nuclear Repulsion Energy =            612.9292509935637554
    One-Electron Energy =               -1896.7927912730629032
    Two-Electron Energy =                 782.8411259954011712
    DFT Exchange-Correlation Energy =       0.0000000000000000
    Empirical Dispersion Energy =           0.0000000000000000
    PCM Polarization Energy =               0.0000000000000000
    EFP Energy =                            0.0000000000000000
    Total Energy =                       -501.0224142840979766

  Mulliken Charges: (a.u.)
   Center  Symbol    Alpha    Beta     Spin     Total
       1     O     4.25863  4.25863  0.00000 -0.51725
       2     C     2.61449  2.61449  0.00000  0.77103
       3     C     3.21433  3.21433  0.00000 -0.42867
       4     O     4.31046  4.31046  0.00000 -0.62091
       5     C     3.15440  3.15440  0.00000 -0.30879
       6     H     0.39668  0.39668  0.00000  0.20664
       7     H     0.40886  0.40886  0.00000  0.18227
       8     C     3.15623  3.15623  0.00000 -0.31246
       9     H     0.41166  0.41166  0.00000  0.17668
      10     H     0.41004  0.41004  0.00000  0.17991
      11     C     3.15492  3.15492  0.00000 -0.30984
      12     H     0.41817  0.41817  0.00000  0.16366
      13     H     0.42527  0.42527  0.00000  0.14945
      14     C     3.15024  3.15024  0.00000 -0.30049
      15     H     0.42191  0.42191  0.00000  0.15617
      16     H     0.42419  0.42419  0.00000  0.15162
      17     C     3.15149  3.15149  0.00000 -0.30298
      18     H     0.42310  0.42310  0.00000  0.15379
      19     H     0.42444  0.42444  0.00000  0.15112
      20     C     3.23937  3.23937  0.00000 -0.47874
      21     H     0.42243  0.42243  0.00000  0.15514
      22     H     0.42356  0.42356  0.00000  0.15288
      23     H     0.41904  0.41904  0.00000  0.16192
      24     H     0.42142  0.42142  0.00000  0.15715
      25     H     0.42202  0.42202  0.00000  0.15596
      26     C     3.09329  3.09329  0.00000 -0.18658
      27     H     0.40731  0.40731  0.00000  0.18537
      28     H     0.40098  0.40098  0.00000  0.19804
      29     H     0.42106  0.42106  0.00000  0.15788

   Total alpha = 44.00000, Total beta = 44.00000, Total charge = -0.00000
