  ==> Input File <==

--------------------------------------------------------------------------
set {
	reference rhf
	basis cc-pvtz
}

set_num_threads( 4 )
memory 2 gb

molecule MOL {
0 1

H	 1.626355	 0.067635	 1.364301
C	 0.925371	 -0.484972	 0.776271
C	 0.919549	 -1.865072	 0.771361
C	 0.000000	 0.179985	 0.000046
H	 1.631070	 -2.400828	 1.368200
C	 -0.000002	 -2.552036	 -0.000008
N	 0.000000	 1.644631	 0.000076
C	 -0.925371	 -0.484941	 -0.776207
H	 -0.000000	 -3.625035	 -0.000032
C	 -0.919551	 -1.865041	 -0.771351
O	 1.050559	 2.194174	 -0.000073
O	 -1.050559	 2.194174	 -0.000074
H	 -1.626360	 0.067691	 -1.364208
H	 -1.631069	 -2.400772	 -1.368215

	symmetry c1
}
set optking {
	frozen_dihedral = ("
		2 4 7 11
	")
}

ee = optimize('scf')
oeprop('DIPOLE', 'QUADRUPOLE', 'MULLIKEN_CHARGES')
f=open( 'psi4out.xyz', 'w' )
f.write( "14  " )
f.write( str(ee) + "\n" )
f.write( MOL.save_string_xyz() )
f.close()
--------------------------------------------------------------------------

    Molecular point group: c1
  Charge       = 0
  Multiplicity = 1
  Basis Set: CC-PVTZ
  Basis Set:
  @DF-RHF Final Energy:  -434.32675190667601
    Total Energy =                       -434.3267519066758950
    Molecular point group: c1
  Basis Set: CC-PVTZ
  Basis Set:
  Basis Set: CC-PVTZ
  Basis Set:
  @DF-RHF Final Energy:  -434.31999993472465
    Total Energy =                       -434.3199999347247058
  Basis Set: CC-PVTZ
  Basis Set:
  Basis Set: CC-PVTZ
  Basis Set:
  @DF-RHF Final Energy:  -434.32689718174055
    Total Energy =                       -434.3268971817407191
  Basis Set: CC-PVTZ
  Basis Set:
  Basis Set: CC-PVTZ
  Basis Set:
  @DF-RHF Final Energy:  -434.32709948735709
    Total Energy =                       -434.3270994873570316
  Basis Set: CC-PVTZ
  Basis Set:
  Charge       = 0
  Multiplicity = 1
  Basis Set: CC-PVTZ
  Basis Set:

    Orbital Energies (a.u.)
    -----------------------

    Doubly Occupied:

       1A    -20.594042     2A    -20.593952     3A    -15.847457
       4A    -11.304221     5A    -11.267933     6A    -11.267700
       7A    -11.262960     8A    -11.259313     9A    -11.259077
      10A     -1.642180    11A     -1.425051    12A     -1.205747
      13A     -1.096637    14A     -1.056129    15A     -0.959547
      16A     -0.870735    17A     -0.829706    18A     -0.787520
      19A     -0.740355    20A     -0.735841    21A     -0.714762
      22A     -0.656710    23A     -0.651517    24A     -0.626345
      25A     -0.558400    26A     -0.545815    27A     -0.532754
      28A     -0.495819    29A     -0.490028    30A     -0.456891
      31A     -0.375200    32A     -0.370113

  @DF-RHF Final Energy:  -434.32709967306550

   => Energetics <=

    Nuclear Repulsion Energy =            418.0690614615774621
    One-Electron Energy =               -1419.8314038888831874
    Two-Electron Energy =                 567.4352427542403348
    DFT Exchange-Correlation Energy =       0.0000000000000000
    Empirical Dispersion Energy =           0.0000000000000000
    PCM Polarization Energy =               0.0000000000000000
    EFP Energy =                            0.0000000000000000
    Total Energy =                       -434.3270996730653906
    Molecular point group: c1
  Basis Set: CC-PVTZ
  Basis Set:

  -Total Gradient:
     Atom            X                  Y                   Z
    ------   -----------------  -----------------  -----------------
       1        0.000002972229    -0.000007210719    -0.000010116021
       2       -0.002650162572    -0.000129267406     0.003067616204
       3       -0.000015514825     0.000033824302     0.000043690889
       4        0.003835241088     0.000183932094    -0.006165782857
       5        0.000003557514    -0.000000075523    -0.000002953150
       6        0.000034895614    -0.000001616471    -0.000096065277
       7       -0.001286654566    -0.000171337694     0.007693166412
       8        0.000021343477     0.000031919102     0.000033534608
       9       -0.000006389413     0.000000640318     0.000013583149
      10       -0.000021253713    -0.000026551564     0.000061806536
      11        0.000099034591     0.000090401779    -0.004623967841
      12       -0.000025860028    -0.000012634513     0.000006723915
      13        0.000005543592    -0.000000451747    -0.000013841221
      14        0.000003247013     0.000008428037    -0.000007395345

  **** Optimization is complete! (in 5 steps) ****
    Final optimized geometry and variables:
    Molecular point group: c1

    Geometry (in Angstrom), charge = 0, multiplicity = 1:

    H            1.644334349035     0.073155458411     1.345013814926
    C            0.934976751154    -0.481013508136     0.765901413304
    C            0.916782576256    -1.861452335721     0.774728811848
    C            0.016577132351     0.179885531169    -0.017941835310
    H            1.617645357328    -2.398175197817     1.383253455432
    C           -0.001081075796    -2.547118286103     0.000449209120
    N           -0.001524368842     1.641122604590     0.009324444584
    C           -0.927524118605    -0.478875255577    -0.772664324546
    H           -0.005665148612    -3.619943659727     0.004392827869
    C           -0.917450830914    -1.859286681651    -0.774125792088
    O            1.045291573212     2.197325441527     0.041190467103
    O           -1.059629267613     2.174180623705    -0.032841809442
    H           -1.643426159518     0.076164933951    -1.342435497577
    H           -1.629447984792    -2.394839426356    -1.370654479459

  Mulliken Charges: (a.u.)
   Center  Symbol    Alpha    Beta     Spin     Total
       1     H     0.40545  0.40545  0.00000  0.18910
       2     C     3.08462  3.08462  0.00000 -0.16924
       3     C     3.07039  3.07039  0.00000 -0.14079
       4     C     2.94738  2.94738  0.00000  0.10524
       5     H     0.41710  0.41710  0.00000  0.16579
       6     C     3.06804  3.06804  0.00000 -0.13608
       7     N     3.27077  3.27077  0.00000  0.45847
       8     C     3.08349  3.08349  0.00000 -0.16697
       9     H     0.41736  0.41736  0.00000  0.16527
      10     C     3.06972  3.06972  0.00000 -0.13943
      11     O     4.17146  4.17146  0.00000 -0.34292
      12     O     4.17142  4.17142  0.00000 -0.34284
      13     H     0.40570  0.40570  0.00000  0.18861
      14     H     0.41710  0.41710  0.00000  0.16581

   Total alpha = 32.00000, Total beta = 32.00000, Total charge = -0.00000
