  ==> Input File <==

--------------------------------------------------------------------------
set {
	reference rhf
	basis 6-31G*
}

set_num_threads( 1 )
memory 2 gb

molecule MOL {
0 1

H	 -3.632747	 0.615978	 -1.965930
O	 -3.156143	 0.020950	 -1.404953
C	 -1.912912	 0.581713	 -1.069522
C	 -1.177863	 -0.397191	 -0.171080
H	 -1.326506	 0.777520	 -1.966235
H	 -2.047648	 1.531771	 -0.554182
C	 0.198102	 0.111031	 0.262842
H	 -1.078453	 -1.340073	 -0.701947
H	 -1.797149	 -0.593171	 0.699870
C	 1.331804	 -0.827780	 -0.158768
H	 0.361943	 1.100838	 -0.156218
H	 0.217265	 0.229072	 1.345532
C	 2.723619	 -0.410569	 0.329459
H	 1.342964	 -0.912588	 -1.244120
H	 1.116806	 -1.824343	 0.220779
C	 3.243875	 0.895854	 -0.272975
H	 3.424222	 -1.207124	 0.091250
H	 2.714788	 -0.329854	 1.414619
H	 3.251977	 0.848779	 -1.358681
H	 2.637085	 1.747371	 0.016682
H	 4.259473	 1.094070	 0.055697

	symmetry c1
}
set optking {
	frozen_dihedral = ("
		2 3 4 8,
		4 7 10 14,
		16 13 10 14,
		1 2 3 5
	")
}

ee = energy('scf')
oeprop('DIPOLE', 'QUADRUPOLE', 'MULLIKEN_CHARGES')
f=open( 'psi4out.xyz', 'w' )
f.write( "21  " )
f.write( str(ee) + "\n" )
f.write( MOL.save_string_xyz() )
f.close()
--------------------------------------------------------------------------

    Molecular point group: c1

    Geometry (in Angstrom), charge = 0, multiplicity = 1:

       Center              X                  Y                   Z               Mass
    ------------   -----------------  -----------------  -----------------  -----------------
           H         -3.749442993062     0.601055662461    -1.578409038485     1.007825032070
           O         -3.272838993062     0.006027662461    -1.017432038485    15.994914619560
           C         -2.029607993062     0.566790662461    -0.682001038485    12.000000000000
           C         -1.294558993062    -0.412113337539     0.216440961515    12.000000000000
           H         -1.443201993062     0.762597662461    -1.578714038485     1.007825032070
           H         -2.164343993062     1.516848662461    -0.166661038485     1.007825032070
           C          0.081406006938     0.096108662461     0.650362961515    12.000000000000
           H         -1.195148993062    -1.354995337539    -0.314426038485     1.007825032070
           H         -1.913844993062    -0.608093337539     1.087390961515     1.007825032070
           C          1.215108006938    -0.842702337539     0.228752961515    12.000000000000
           H          0.245247006938     1.085915662461     0.231302961515     1.007825032070
           H          0.100569006938     0.214149662461     1.733052961515     1.007825032070
           C          2.606923006938    -0.425491337539     0.716979961515    12.000000000000
           H          1.226268006938    -0.927510337539    -0.856599038485     1.007825032070
           H          1.000110006938    -1.839265337539     0.608299961515     1.007825032070
           C          3.127179006938     0.880931662461     0.114545961515    12.000000000000
           H          3.307526006938    -1.222046337539     0.478770961515     1.007825032070
           H          2.598092006938    -0.344776337539     1.802139961515     1.007825032070
           H          3.135281006938     0.833856662461    -0.971160038485     1.007825032070
           H          2.520389006938     1.732448662461     0.404202961515     1.007825032070
           H          4.142777006938     1.079147662461     0.443217961515     1.007825032070

  Charge       = 0
  Multiplicity = 1
  Basis Set: 6-31G*
  Basis Set:

    Orbital Energies (a.u.)
    -----------------------

    Doubly Occupied:

       1A    -20.551678     2A    -11.267557     3A    -11.214929
       4A    -11.214534     5A    -11.213832     6A    -11.209042
       7A    -11.208592     8A     -1.358596     9A     -1.086655
      10A     -1.032967    11A     -0.953663    12A     -0.876758
      13A     -0.808827    14A     -0.778880    15A     -0.693449
      16A     -0.650174    17A     -0.632114    18A     -0.607580
      19A     -0.584751    20A     -0.570237    21A     -0.534939
      22A     -0.523576    23A     -0.510571    24A     -0.488949
      25A     -0.476360    26A     -0.458269    27A     -0.455885
      28A     -0.444105    29A     -0.431729

  @DF-RHF Final Energy:  -310.20765043371625

   => Energetics <=

    Nuclear Repulsion Energy =            314.3375051054049436
    One-Electron Energy =               -1043.4120492030726837
    Two-Electron Energy =                 418.8668936639504636
    DFT Exchange-Correlation Energy =       0.0000000000000000
    Empirical Dispersion Energy =           0.0000000000000000
    PCM Polarization Energy =               0.0000000000000000
    EFP Energy =                            0.0000000000000000
    Total Energy =                       -310.2076504337172764

  Mulliken Charges: (a.u.)
   Center  Symbol    Alpha    Beta     Spin     Total
       1     H     0.28132  0.28132  0.00000  0.43737
       2     O     4.37163  4.37163  0.00000 -0.74325
       3     C     2.99412  2.99412  0.00000  0.01177
       4     C     3.16008  3.16008  0.00000 -0.32017
       5     H     0.43273  0.43273  0.00000  0.13454
       6     H     0.43229  0.43229  0.00000  0.13541
       7     C     3.16474  3.16474  0.00000 -0.32947
       8     H     0.41188  0.41188  0.00000  0.17624
       9     H     0.41245  0.41245  0.00000  0.17509
      10     C     3.15441  3.15441  0.00000 -0.30883
      11     H     0.42083  0.42083  0.00000  0.15834
      12     H     0.41925  0.41925  0.00000  0.16150
      13     C     3.15309  3.15309  0.00000 -0.30617
      14     H     0.42386  0.42386  0.00000  0.15227
      15     H     0.41989  0.41989  0.00000  0.16021
      16     C     3.24121  3.24121  0.00000 -0.48242
      17     H     0.42084  0.42084  0.00000  0.15833
      18     H     0.42319  0.42319  0.00000  0.15362
      19     H     0.42258  0.42258  0.00000  0.15484
      20     H     0.42055  0.42055  0.00000  0.15890
      21     H     0.41906  0.41906  0.00000  0.16189

   Total alpha = 29.00000, Total beta = 29.00000, Total charge = -0.00000
