  ==> Input File <==

--------------------------------------------------------------------------
set {
	reference rhf
	basis cc-pvtz
}

set_num_threads( 4 )
memory 2 gb

molecule MOL {
0 1

H	 2.196569	 -1.250021	 -0.468871
N	 2.433987	 -0.362316	 -0.080024
C	 1.263552	 0.494993	 0.021953
H	 3.123591	 0.045513	 -0.676227
C	 -0.016533	 -0.325589	 -0.026925
H	 1.280915	 1.180773	 -0.818522
H	 1.263064	 1.106893	 0.925038
C	 -1.280353	 0.525521	 0.047747
H	 -0.016686	 -0.912532	 -0.939714
H	 -0.014099	 -1.037598	 0.796369
C	 -2.560681	 -0.301323	 -0.007747
H	 -1.279957	 1.241025	 -0.770189
H	 -1.270445	 1.110526	 0.963468
H	 -2.617064	 -0.872870	 -0.928010
H	 -3.439525	 0.331102	 0.043462
H	 -2.609427	 -1.002736	 0.818585

	symmetry c1
}
set optking {
	frozen_dihedral = ("
		1 2 3 6
	")
}

ee = optimize('scf')
oeprop('DIPOLE', 'QUADRUPOLE', 'MULLIKEN_CHARGES')
f=open( 'psi4out.xyz', 'w' )
f.write( "16  " )
f.write( str(ee) + "\n" )
f.write( MOL.save_string_xyz() )
f.close()
--------------------------------------------------------------------------

    Molecular point group: c1
  Charge       = 0
  Multiplicity = 1
  Basis Set: CC-PVTZ
  Basis Set:
  @DF-RHF Final Energy:  -212.39599625021805
    Total Energy =                       -212.3959962502180474
    Molecular point group: c1
  Basis Set: CC-PVTZ
  Basis Set:
  Basis Set: CC-PVTZ
  Basis Set:
  @DF-RHF Final Energy:  -212.39740585842767
    Total Energy =                       -212.3974058584274758
  Basis Set: CC-PVTZ
  Basis Set:
  Basis Set: CC-PVTZ
  Basis Set:
  @DF-RHF Final Energy:  -212.39758920390378
    Total Energy =                       -212.3975892039036353
  Basis Set: CC-PVTZ
  Basis Set:
  Basis Set: CC-PVTZ
  Basis Set:
  @DF-RHF Final Energy:  -212.39759532436304
    Total Energy =                       -212.3975953243631238
  Basis Set: CC-PVTZ
  Basis Set:
  Charge       = 0
  Multiplicity = 1
  Basis Set: CC-PVTZ
  Basis Set:

    Orbital Energies (a.u.)
    -----------------------

    Doubly Occupied:

       1A    -15.522870     2A    -11.237426     3A    -11.215387
       4A    -11.213187     5A    -11.207939     6A     -1.175454
       7A     -1.062981     8A     -0.960959     9A     -0.846368
      10A     -0.797375    11A     -0.657556    12A     -0.647843
      13A     -0.599517    14A     -0.580016    15A     -0.572432
      16A     -0.521009    17A     -0.510150    18A     -0.472520
      19A     -0.469373    20A     -0.463277    21A     -0.377569

  @DF-RHF Final Energy:  -212.39759614614658

   => Energetics <=

    Nuclear Repulsion Energy =            186.6747496044435195
    One-Electron Energy =                -655.9222744436299308
    Two-Electron Energy =                 256.8499286930397147
    DFT Exchange-Correlation Energy =       0.0000000000000000
    Empirical Dispersion Energy =           0.0000000000000000
    PCM Polarization Energy =               0.0000000000000000
    EFP Energy =                            0.0000000000000000
    Total Energy =                       -212.3975961461467250
    Molecular point group: c1
  Basis Set: CC-PVTZ
  Basis Set:

  -Total Gradient:
     Atom            X                  Y                   Z
    ------   -----------------  -----------------  -----------------
       1       -0.000702579385    -0.000942350533     0.002591210305
       2        0.001270951783     0.001650617493    -0.002835916665
       3       -0.001892709206    -0.002497546980    -0.001250116684
       4       -0.000011883881     0.000000913670     0.000002436564
       5        0.000113948548     0.000037406730    -0.000003145908
       6        0.001274977402     0.001723492793     0.001472538768
       7       -0.000009575839     0.000008830618     0.000020730583
       8       -0.000034953492    -0.000000376330    -0.000001832047
       9        0.000014413382     0.000014681750     0.000006466980
      10       -0.000004363196     0.000016442664    -0.000023779109
      11       -0.000024665702     0.000010731038     0.000025647209
      12        0.000018538531    -0.000016226622    -0.000004101154
      13       -0.000002833620    -0.000001837549    -0.000006488717
      14        0.000006796475     0.000009352250     0.000000992062
      15       -0.000010163373    -0.000006175130     0.000004086308
      16       -0.000005898428    -0.000007955863     0.000001271505

  **** Optimization is complete! (in 5 steps) ****
    Final optimized geometry and variables:
    Molecular point group: c1

    Geometry (in Angstrom), charge = 0, multiplicity = 1:

    H            2.255690410544    -1.252785351607    -0.402364879844
    N            2.447610985751    -0.355881126886    -0.013280030375
    C            1.266167746726     0.496950633070    -0.007936157983
    H            3.209263520355     0.048907757643    -0.510168438525
    C           -0.016057058540    -0.319747231465    -0.038245914483
    H            1.272279939274     1.203446069342    -0.836153485221
    H            1.276878628900     1.098283388094     0.896751555276
    C           -1.276688145165     0.531469433009     0.075781950728
    H           -0.051019974001    -0.894454991257    -0.961575151842
    H            0.011150508052    -1.040011318966     0.775316978754
    C           -2.558780967461    -0.293748981148     0.042244493187
    H           -1.295347997785     1.257569104478    -0.732280132557
    H           -1.241117529119     1.102829574692     0.998797955520
    H           -2.641824226744    -0.850713648051    -0.885127166267
    H           -3.434809323491     0.338813853274     0.127167799694
    H           -2.585688466880    -1.007574646801     0.858713735890

  Mulliken Charges: (a.u.)
   Center  Symbol    Alpha    Beta     Spin     Total
       1     H     0.42942  0.42942  0.00000  0.14117
       2     N     3.69494  3.69494  0.00000 -0.38988
       3     C     3.01521  3.01521  0.00000 -0.03043
       4     H     0.42851  0.42851  0.00000  0.14299
       5     C     3.08721  3.08721  0.00000 -0.17443
       6     H     0.46752  0.46752  0.00000  0.06495
       7     H     0.46326  0.46326  0.00000  0.07349
       8     C     3.08848  3.08848  0.00000 -0.17695
       9     H     0.45935  0.45935  0.00000  0.08129
      10     H     0.45026  0.45026  0.00000  0.09947
      11     C     3.14917  3.14917  0.00000 -0.29833
      12     H     0.45531  0.45531  0.00000  0.08938
      13     H     0.45318  0.45318  0.00000  0.09363
      14     H     0.45542  0.45542  0.00000  0.08916
      15     H     0.44834  0.44834  0.00000  0.10332
      16     H     0.45442  0.45442  0.00000  0.09116

   Total alpha = 21.00000, Total beta = 21.00000, Total charge = -0.00000
