  ==> Input File <==

--------------------------------------------------------------------------
set {
	reference rhf
	basis cc-pvtz
}

set_num_threads( 4 )
memory 2 gb

molecule MOL {
0 1

O	 -0.041817	 0.413014	 1.936448
C	 0.132458	 -0.323418	 1.025875
C	 1.305216	 -1.259613	 0.877431
O	 -0.695554	 -0.422406	 0.000602
C	 2.289092	 -1.184335	 2.033845
H	 1.785829	 -1.024859	 -0.065889
H	 0.904329	 -2.260853	 0.764545
H	 2.698849	 -0.188038	 2.132379
H	 3.106729	 -1.876174	 1.872056
H	 1.809344	 -1.435261	 2.970384
C	 -1.852370	 0.402254	 0.000718
C	 -3.063338	 -0.501097	 -0.000437
H	 -1.831732	 1.039442	 -0.872158
H	 -1.832493	 1.038301	 0.874430
H	 -3.071944	 -1.133732	 -0.879113
H	 -3.966302	 0.097976	 -0.000483
H	 -3.072764	 -1.134834	 0.877435

	symmetry c1
}
set optking {
	frozen_dihedral = ("
		2 4 11 13
	")
}

ee = optimize('scf')
oeprop('DIPOLE', 'QUADRUPOLE', 'MULLIKEN_CHARGES')
f=open( 'psi4out.xyz', 'w' )
f.write( "17  " )
f.write( str(ee) + "\n" )
f.write( MOL.save_string_xyz() )
f.close()
--------------------------------------------------------------------------

    Molecular point group: c1
  Charge       = 0
  Multiplicity = 1
  Basis Set: CC-PVTZ
  Basis Set:
  @DF-RHF Final Energy:  -345.03760670277217
    Total Energy =                       -345.0376067027722229
    Molecular point group: c1
  Basis Set: CC-PVTZ
  Basis Set:
  Basis Set: CC-PVTZ
  Basis Set:
  @DF-RHF Final Energy:  -345.03807553553821
    Total Energy =                       -345.0380755355382689
  Basis Set: CC-PVTZ
  Basis Set:
  Basis Set: CC-PVTZ
  Basis Set:
  @DF-RHF Final Energy:  -345.03832357406748
    Total Energy =                       -345.0383235740673626
  Basis Set: CC-PVTZ
  Basis Set:
  Basis Set: CC-PVTZ
  Basis Set:
  @DF-RHF Final Energy:  -345.03847966401253
    Total Energy =                       -345.0384796640123568
  Basis Set: CC-PVTZ
  Basis Set:
  Basis Set: CC-PVTZ
  Basis Set:
  @DF-RHF Final Energy:  -345.03857401032769
    Total Energy =                       -345.0385740103275793
  Basis Set: CC-PVTZ
  Basis Set:
  Charge       = 0
  Multiplicity = 1
  Basis Set: CC-PVTZ
  Basis Set:

    Orbital Energies (a.u.)
    -----------------------

    Doubly Occupied:

       1A    -20.592187     2A    -20.532303     3A    -11.365051
       4A    -11.281065     5A    -11.235356     6A    -11.219784
       7A    -11.213401     8A     -1.467765     9A     -1.365320
      10A     -1.070168    11A     -1.031139    12A     -0.914466
      13A     -0.850900    14A     -0.769085    15A     -0.703592
      16A     -0.684607    17A     -0.663353    18A     -0.627158
      19A     -0.599261    20A     -0.569897    21A     -0.555213
      22A     -0.532081    23A     -0.521133    24A     -0.515880
      25A     -0.496275    26A     -0.495463    27A     -0.450924
      28A     -0.439772

  @DF-RHF Final Energy:  -345.03858293900163

   => Energetics <=

    Nuclear Repulsion Energy =            316.0623932166668624
    One-Electron Energy =               -1096.6767604222766295
    Two-Electron Energy =                 435.5757842666080251
    DFT Exchange-Correlation Energy =       0.0000000000000000
    Empirical Dispersion Energy =           0.0000000000000000
    PCM Polarization Energy =               0.0000000000000000
    EFP Energy =                            0.0000000000000000
    Total Energy =                       -345.0385829390017989
    Molecular point group: c1
  Basis Set: CC-PVTZ
  Basis Set:

  -Total Gradient:
     Atom            X                  Y                   Z
    ------   -----------------  -----------------  -----------------
       1       -0.000055672982     0.000024093952    -0.000020356813
       2        0.000172130166     0.000086621860    -0.000157728566
       3        0.000037979406     0.000028994956     0.000011721302
       4        0.000027988910    -0.000227385311     0.000287485105
       5        0.000006041381    -0.000029473613     0.000003000239
       6       -0.000008661059    -0.000003772615     0.000009353845
       7       -0.000002223995    -0.000008681396     0.000009929909
       8       -0.000003519574     0.000001067315    -0.000005837009
       9        0.000010132259     0.000000466219     0.000006802735
      10        0.000003993197     0.000001867159     0.000001207695
      11       -0.000085554622    -0.000186512410    -0.000330346129
      12       -0.000080717302     0.000069866763     0.000016865256
      13        0.000028515350     0.000217645641     0.000165516974
      14       -0.000010904296    -0.000003267389     0.000002247921
      15        0.000030912297     0.000035454339     0.000017417516
      16       -0.000081248549    -0.000022606979    -0.000002507497
      17        0.000010809414     0.000015621512    -0.000014772482

  **** Optimization is complete! (in 6 steps) ****
    Final optimized geometry and variables:
    Molecular point group: c1

    Geometry (in Angstrom), charge = 0, multiplicity = 1:

    O            0.278407084616     0.813458259074     1.129820897349
    C            0.428832722064     0.089641910158     0.205416625193
    C            1.597866910000    -0.846385366579     0.024241831532
    O           -0.412891843890    -0.005983413469    -0.810765260636
    C            2.603612715449    -0.787268631266     1.162598115703
    H            2.060720595486    -0.600343245653    -0.924982044940
    H            1.193184687469    -1.845430452509    -0.093927189597
    H            3.016767074532     0.207095152189     1.266124605939
    H            3.416974944648    -1.478019445046     0.976213851205
    H            2.141633041516    -1.049733406963     2.104883814098
    C           -1.586282011981     0.797994372273    -0.846134432417
    C           -2.810237284978    -0.091344002607    -0.881241629980
    H           -1.519087640966     1.399132190183    -1.742571659498
    H           -1.598648325590     1.451873084805     0.009047367899
    H           -2.773129468005    -0.766214056730    -1.727148048128
    H           -3.703998864933     0.516298503606    -0.966332194428
    H           -2.883779121698    -0.679547570928     0.025257365476

  Mulliken Charges: (a.u.)
   Center  Symbol    Alpha    Beta     Spin     Total
       1     O     4.19831  4.19831  0.00000 -0.39662
       2     C     2.80049  2.80049  0.00000  0.39902
       3     C     3.09538  3.09538  0.00000 -0.19077
       4     O     4.15737  4.15737  0.00000 -0.31475
       5     C     3.14032  3.14032  0.00000 -0.28064
       6     H     0.44173  0.44173  0.00000  0.11655
       7     H     0.44205  0.44205  0.00000  0.11590
       8     H     0.44844  0.44844  0.00000  0.10313
       9     H     0.45065  0.45065  0.00000  0.09870
      10     H     0.44860  0.44860  0.00000  0.10280
      11     C     2.99134  2.99134  0.00000  0.01732
      12     C     3.13702  3.13702  0.00000 -0.27404
      13     H     0.45107  0.45107  0.00000  0.09786
      14     H     0.44140  0.44140  0.00000  0.11720
      15     H     0.45157  0.45157  0.00000  0.09686
      16     H     0.45343  0.45343  0.00000  0.09314
      17     H     0.45083  0.45083  0.00000  0.09834

   Total alpha = 28.00000, Total beta = 28.00000, Total charge =  0.00000
