  ==> Input File <==

--------------------------------------------------------------------------
set {
	reference rhf
	basis 6-31G*
}

set_num_threads( 1 )
memory 2 gb

molecule MOL {
0 1

H	 3.367425	 -0.369889	 -1.024208
N	 3.092854	 -0.246221	 -0.068770
C	 1.865559	 0.531981	 0.018834
H	 3.845394	 0.232304	 0.388971
C	 0.645745	 -0.382037	 -0.029944
H	 1.841966	 1.207024	 -0.831236
H	 1.815756	 1.155410	 0.915079
C	 -0.679275	 0.379305	 0.025956
H	 0.698998	 -0.976915	 -0.937203
H	 0.693479	 -1.083846	 0.802235
C	 -1.903357	 -0.536963	 -0.023547
H	 -0.726309	 1.082987	 -0.803784
H	 -0.717680	 0.977832	 0.934877
C	 -3.225172	 0.228290	 0.028445
H	 -1.867824	 -1.134999	 -0.931459
H	 -1.860449	 -1.239604	 0.805977
H	 -3.313397	 0.915643	 -0.808262
H	 -4.073500	 -0.448134	 -0.008893
H	 -3.306061	 0.809945	 0.942516

	symmetry c1
}
set optking {
	frozen_dihedral = ("
		6 3 5 9,
		12 8 5 9,
		12 8 11 15
	")
}

ee = energy('scf')
oeprop('DIPOLE', 'QUADRUPOLE', 'MULLIKEN_CHARGES')
f=open( 'psi4out.xyz', 'w' )
f.write( "19  " )
f.write( str(ee) + "\n" )
f.write( MOL.save_string_xyz() )
f.close()
--------------------------------------------------------------------------

    Molecular point group: c1

    Geometry (in Angstrom), charge = 0, multiplicity = 1:

       Center              X                  Y                   Z               Mass
    ------------   -----------------  -----------------  -----------------  -----------------
           H          3.366035018017    -0.373742333688    -1.009446478793     1.007825032070
           N          3.091464018017    -0.250074333688    -0.054008478793    14.003074004780
           C          1.864169018017     0.528127666312     0.033595521207    12.000000000000
           H          3.844004018017     0.228450666312     0.403732521207     1.007825032070
           C          0.644355018017    -0.385890333688    -0.015182478793    12.000000000000
           H          1.840576018017     1.203170666312    -0.816474478793     1.007825032070
           H          1.814366018017     1.151556666312     0.929840521207     1.007825032070
           C         -0.680664981983     0.375451666312     0.040717521207    12.000000000000
           H          0.697608018017    -0.980768333688    -0.922441478793     1.007825032070
           H          0.692089018017    -1.087699333688     0.816996521207     1.007825032070
           C         -1.904746981983    -0.540816333688    -0.008785478793    12.000000000000
           H         -0.727698981983     1.079133666312    -0.789022478793     1.007825032070
           H         -0.719069981983     0.973978666312     0.949638521207     1.007825032070
           C         -3.226561981983     0.224436666312     0.043206521207    12.000000000000
           H         -1.869213981983    -1.138852333688    -0.916697478793     1.007825032070
           H         -1.861838981983    -1.243457333688     0.820738521207     1.007825032070
           H         -3.314786981983     0.911789666312    -0.793500478793     1.007825032070
           H         -4.074889981983    -0.451987333688     0.005868521207     1.007825032070
           H         -3.307450981983     0.806091666312     0.957277521207     1.007825032070

  Charge       = 0
  Multiplicity = 1
  Basis Set: 6-31G*
  Basis Set:

    Orbital Energies (a.u.)
    -----------------------

    Doubly Occupied:

       1A    -15.531340     2A    -11.240221     3A    -11.212342
       4A    -11.210401     5A    -11.206344     6A    -11.204914
       7A     -1.176245     8A     -1.071159     9A     -0.996929
      10A     -0.899275    11A     -0.810391    12A     -0.786224
      13A     -0.672482    14A     -0.635901    15A     -0.613894
      16A     -0.583466    17A     -0.567109    18A     -0.552516
      19A     -0.523265    20A     -0.501807    21A     -0.476595
      22A     -0.463093    23A     -0.459358    24A     -0.450658
      25A     -0.376725

  @DF-RHF Final Energy:  -251.34844736494770

   => Energetics <=

    Nuclear Repulsion Energy =            245.5136691437205911
    One-Electron Energy =                -825.2790394126593583
    Two-Electron Energy =                 328.4169229039907805
    DFT Exchange-Correlation Energy =       0.0000000000000000
    Empirical Dispersion Energy =           0.0000000000000000
    PCM Polarization Energy =               0.0000000000000000
    EFP Energy =                            0.0000000000000000
    Total Energy =                       -251.3484473649480151

  Mulliken Charges: (a.u.)
   Center  Symbol    Alpha    Beta     Spin     Total
       1     H     0.33287  0.33287  0.00000  0.33426
       2     N     3.92277  3.92277  0.00000 -0.84555
       3     C     3.06790  3.06790  0.00000 -0.13581
       4     H     0.33230  0.33230  0.00000  0.33540
       5     C     3.14228  3.14228  0.00000 -0.28456
       6     H     0.43186  0.43186  0.00000  0.13627
       7     H     0.42149  0.42149  0.00000  0.15702
       8     C     3.15627  3.15627  0.00000 -0.31254
       9     H     0.42523  0.42523  0.00000  0.14954
      10     H     0.41690  0.41690  0.00000  0.16619
      11     C     3.15041  3.15041  0.00000 -0.30082
      12     H     0.42576  0.42576  0.00000  0.14849
      13     H     0.42519  0.42519  0.00000  0.14962
      14     C     3.23912  3.23912  0.00000 -0.47824
      15     H     0.42304  0.42304  0.00000  0.15393
      16     H     0.42229  0.42229  0.00000  0.15543
      17     H     0.42245  0.42245  0.00000  0.15510
      18     H     0.41964  0.41964  0.00000  0.16071
      19     H     0.42223  0.42223  0.00000  0.15554

   Total alpha = 25.00000, Total beta = 25.00000, Total charge = -0.00000
