  ==> Input File <==

--------------------------------------------------------------------------
set {
	reference rhf
	basis 6-31G*
}

set_num_threads( 4 )
memory 2 gb

molecule MOL {
0 1

H	 -3.420663	 1.227371	 -1.044276
O	 -3.452007	 0.283848	 -0.965577
C	 -3.181085	 -0.079926	 0.364119
C	 -1.765924	 0.277073	 0.805136
H	 -3.327791	 -1.152017	 0.410903
H	 -3.905698	 0.375695	 1.036898
C	 -0.677594	 -0.417312	 -0.014550
H	 -1.637766	 1.358238	 0.744969
H	 -1.659588	 0.017670	 1.857098
C	 0.738335	 -0.034840	 0.421385
H	 -0.814977	 -0.178223	 -1.064632
H	 -0.802730	 -1.495410	 0.071702
C	 1.822265	 -0.738362	 -0.399735
H	 0.853533	 1.043532	 0.342250
H	 0.871597	 -0.279636	 1.474438
C	 3.258060	 -0.455774	 0.057203
H	 1.718003	 -0.459167	 -1.447053
H	 1.651028	 -1.811884	 -0.354513
C	 3.390877	 0.685056	 1.067783
H	 3.857086	 -0.216716	 -0.818188
H	 3.686510	 -1.363059	 0.478470
H	 2.959123	 1.603242	 0.678344
H	 4.434809	 0.881409	 1.292481
H	 2.894329	 0.457574	 2.005256

	symmetry c1
}
set optking {
	frozen_dihedral = ("
		20 16 13 17
	")
}

ee = optimize('scf')
oeprop('DIPOLE', 'QUADRUPOLE', 'MULLIKEN_CHARGES')
f=open( 'psi4out.xyz', 'w' )
f.write( "24  " )
f.write( str(ee) + "\n" )
f.write( MOL.save_string_xyz() )
f.close()
--------------------------------------------------------------------------

    Molecular point group: c1
  Charge       = 0
  Multiplicity = 1
  Basis Set: 6-31G*
  Basis Set:
  @DF-RHF Final Energy:  -349.23808301639718
    Total Energy =                       -349.2380830163968426
    Molecular point group: c1
  Basis Set: 6-31G*
  Basis Set:
  Basis Set: 6-31G*
  Basis Set:
  @DF-RHF Final Energy:  -349.23838121678835
    Total Energy =                       -349.2383812167882979
  Basis Set: 6-31G*
  Basis Set:
  Basis Set: 6-31G*
  Basis Set:
  @DF-RHF Final Energy:  -349.23986639192094
    Total Energy =                       -349.2398663919204864
  Basis Set: 6-31G*
  Basis Set:
  Basis Set: 6-31G*
  Basis Set:
  @DF-RHF Final Energy:  -349.23995386497381
    Total Energy =                       -349.2399538649734723
  Basis Set: 6-31G*
  Basis Set:
  Basis Set: 6-31G*
  Basis Set:
  @DF-RHF Final Energy:  -349.23995137927011
    Total Energy =                       -349.2399513792699963
  Basis Set: 6-31G*
  Basis Set:
  Basis Set: 6-31G*
  Basis Set:
  @DF-RHF Final Energy:  -349.23995893614870
    Total Energy =                       -349.2399589361485823
  Basis Set: 6-31G*
  Basis Set:
  Basis Set: 6-31G*
  Basis Set:
  @DF-RHF Final Energy:  -349.23996198423254
    Total Energy =                       -349.2399619842322522
  Basis Set: 6-31G*
  Basis Set:
  Charge       = 0
  Multiplicity = 1
  Basis Set: 6-31G*
  Basis Set:

    Orbital Energies (a.u.)
    -----------------------

    Doubly Occupied:

       1A    -20.553553     2A    -11.267680     3A    -11.217413
       4A    -11.214410     5A    -11.212623     6A    -11.211665
       7A    -11.211012     8A    -11.207116     9A     -1.360152
      10A     -1.086763    11A     -1.045612    12A     -0.985205
      13A     -0.914955    14A     -0.854128    15A     -0.802102
      16A     -0.768834    17A     -0.679033    18A     -0.656193
      19A     -0.628582    20A     -0.617559    21A     -0.590725
      22A     -0.586623    23A     -0.553811    24A     -0.544072
      25A     -0.513016    26A     -0.510293    27A     -0.501759
      28A     -0.472739    29A     -0.468153    30A     -0.458079
      31A     -0.452441    32A     -0.444840    33A     -0.419293

  @DF-RHF Final Energy:  -349.23996212463965

   => Energetics <=

    Nuclear Repulsion Energy =            385.0878872588988315
    One-Electron Energy =               -1236.6348282065398507
    Two-Electron Energy =                 502.3069788230014865
    DFT Exchange-Correlation Energy =       0.0000000000000000
    Empirical Dispersion Energy =           0.0000000000000000
    PCM Polarization Energy =               0.0000000000000000
    EFP Energy =                            0.0000000000000000
    Total Energy =                       -349.2399621246395327
    Molecular point group: c1
  Basis Set: 6-31G*
  Basis Set:

  -Total Gradient:
     Atom            X                  Y                   Z
    ------   -----------------  -----------------  -----------------
       1        0.000000291702    -0.000001774183     0.000002413680
       2        0.000006544823    -0.000008401603     0.000002123142
       3       -0.000011815734     0.000009556174     0.000012938207
       4        0.000003167252    -0.000026900288     0.000013680579
       5       -0.000001212149     0.000003152749    -0.000003816873
       6       -0.000007079466    -0.000001528463    -0.000001844280
       7        0.000008099213     0.000021298603    -0.000030480309
       8       -0.000007654055    -0.000009620684    -0.000008598120
       9       -0.000000448996     0.000007845241     0.000009378196
      10       -0.000017333893    -0.000042964748     0.000003221893
      11       -0.000011555104     0.000013951540    -0.000005298834
      12        0.000004512688     0.000005261539    -0.000010636453
      13       -0.001414391597     0.005472297243     0.001348697441
      14        0.000029876573     0.000007688885    -0.000012973729
      15       -0.000022186468     0.000004251478    -0.000025310864
      16        0.001243273807    -0.005579501402    -0.000621747827
      17        0.000942181303    -0.003766162851    -0.000994489938
      18       -0.000019721869     0.000003055917    -0.000006015306
      19        0.000034182422    -0.000014297628    -0.000037699968
      20       -0.000800653799     0.003915449436     0.000360790160
      21        0.000023625930     0.000011224216     0.000010599226
      22        0.000010113537    -0.000012027424    -0.000000294535
      23        0.000007492150    -0.000003703843     0.000003251321
      24        0.000000691725    -0.000008149904    -0.000007886810

  **** Optimization is complete! (in 8 steps) ****
    Final optimized geometry and variables:
    Molecular point group: c1

    Geometry (in Angstrom), charge = 0, multiplicity = 1:

    H           -3.374658411717     1.304028735175    -1.193842529294
    O           -3.405987554710     0.358004558594    -1.156439778672
    C           -3.171154321970    -0.061892084597     0.163562334811
    C           -1.769496844767     0.277512090292     0.658437396406
    H           -3.316511930960    -1.135088943386     0.160314740835
    H           -3.915193537179     0.363591240880     0.834808587783
    C           -0.657422401520    -0.378696766529    -0.160969109351
    H           -1.642779433277     1.360446433932     0.649058596149
    H           -1.691345491729    -0.027478901684     1.700598459660
    C            0.744809978115    -0.010786366768     0.329072146921
    H           -0.767996645921    -0.095478584707    -1.203172850156
    H           -0.781272697702    -1.459752239472    -0.123961220880
    C            1.841435331931    -0.690646974663    -0.495084251168
    H            0.861387789673     1.069279174793     0.291041438505
    H            0.842690016850    -0.292544812673     1.375433888431
    C            3.314708523826    -0.418008044634    -0.086321692348
    H            1.709020928997    -0.441215617179    -1.544882742755
    H            1.671873091416    -1.764172636168    -0.449402985065
    C            3.555684094399     0.759867856833     0.864572842500
    H            3.889842998560    -0.216381888715    -0.985268745941
    H            3.738902001650    -1.311251535833     0.361600830787
    H            3.211781741428     1.697456718422     0.438857941640
    H            4.618359560115     0.863423068114     1.062609614994
    H            3.058129377615     0.626455111404     1.819141668203

  Mulliken Charges: (a.u.)
   Center  Symbol    Alpha    Beta     Spin     Total
       1     H     0.28339  0.28339  0.00000  0.43321
       2     O     4.36830  4.36830  0.00000 -0.73660
       3     C     2.99613  2.99613  0.00000  0.00775
       4     C     3.16895  3.16895  0.00000 -0.33789
       5     H     0.41633  0.41633  0.00000  0.16734
       6     H     0.42817  0.42817  0.00000  0.14367
       7     C     3.15217  3.15217  0.00000 -0.30434
       8     H     0.42828  0.42828  0.00000  0.14344
       9     H     0.42244  0.42244  0.00000  0.15512
      10     C     3.15381  3.15381  0.00000 -0.30762
      11     H     0.41203  0.41203  0.00000  0.17594
      12     H     0.42358  0.42358  0.00000  0.15284
      13     C     3.15684  3.15684  0.00000 -0.31367
      14     H     0.42287  0.42287  0.00000  0.15425
      15     H     0.42421  0.42421  0.00000  0.15158
      16     C     3.15422  3.15422  0.00000 -0.30843
      17     H     0.42093  0.42093  0.00000  0.15813
      18     H     0.42164  0.42164  0.00000  0.15673
      19     C     3.24200  3.24200  0.00000 -0.48399
      20     H     0.42051  0.42051  0.00000  0.15898
      21     H     0.42072  0.42072  0.00000  0.15857
      22     H     0.42192  0.42192  0.00000  0.15617
      23     H     0.41982  0.41982  0.00000  0.16036
      24     H     0.42076  0.42076  0.00000  0.15848

   Total alpha = 33.00000, Total beta = 33.00000, Total charge =  0.00000
