                              Psi4 1.0.54 Driver

  ==> Input File <==

--------------------------------------------------------------------------
set {
	reference rhf
	basis cc-pvtz
}

set_num_threads( 4 )
memory 2 gb

molecule MOL {
0 1

H	 -3.825598	 0.307373	 -0.369787
O	 -2.985893	 0.634769	 -0.633879
C	 -2.021813	 0.336996	 0.342658
C	 -0.669613	 0.837286	 -0.127252
H	 -2.279190	 0.815568	 1.284173
H	 -1.978964	 -0.736004	 0.519344
C	 0.490865	 -0.082543	 0.241244
H	 -0.708709	 0.967192	 -1.204587
H	 -0.507562	 1.822272	 0.303070
C	 1.839800	 0.429565	 -0.255472
H	 0.305636	 -1.070211	 -0.165276
H	 0.527397	 -0.195943	 1.322876
C	 3.001144	 -0.485193	 0.119072
H	 1.804373	 0.541073	 -1.335756
H	 2.020437	 1.423114	 0.146921
H	 2.866892	 -1.477297	 -0.298806
H	 3.943543	 -0.095749	 -0.249061
H	 3.085064	 -0.590459	 1.195790

	symmetry c1
}
set optking {
	frozen_dihedral = ("
		2 3 4 8
	")
}

ee,wfn = optimize('scf', return_wfn=True)
oeprop( wfn, 'DIPOLE', 'QUADRUPOLE', 'MULLIKEN_CHARGES')
f=open( 'psi4out.xyz', 'w' )
f.write( "18  " )
f.write( str(ee) + "\n" )
f.write( MOL.save_string_xyz() )
f.close()
--------------------------------------------------------------------------

    Molecular point group: c1
  Charge       = 0
  Multiplicity = 1
  Basis Set: CC-PVTZ
  Basis Set:
  @DF-RHF Final Energy:  -271.28263839558178
    Total Energy =                       -271.2826383955818415
    Molecular point group: c1
  Basis Set: CC-PVTZ
  Basis Set:
  Basis Set: CC-PVTZ
  Basis Set:
  @DF-RHF Final Energy:  -271.28302033977673
    Total Energy =                       -271.2830203397767264
  Basis Set: CC-PVTZ
  Basis Set:
  Basis Set: CC-PVTZ
  Basis Set:
  @DF-RHF Final Energy:  -271.28309047100993
    Total Energy =                       -271.2830904710098707
  Basis Set: CC-PVTZ
  Basis Set:
  Basis Set: CC-PVTZ
  Basis Set:
  @DF-RHF Final Energy:  -271.28309496053896
    Total Energy =                       -271.2830949605390742
  Basis Set: CC-PVTZ
  Basis Set:
  Charge       = 0
  Multiplicity = 1
  Basis Set: CC-PVTZ
  Basis Set:

    Orbital Energies (a.u.)
    -----------------------

    Doubly Occupied:

       1A    -20.545478     2A    -11.265404     3A    -11.213472
       4A    -11.212755     5A    -11.208928     6A    -11.206390
       7A     -1.362822     8A     -1.080558     9A     -1.010716
      10A     -0.914068    11A     -0.821199    12A     -0.792648
      13A     -0.701429    14A     -0.652407    15A     -0.625355
      16A     -0.585991    17A     -0.572970    18A     -0.559416
      19A     -0.530969    20A     -0.497436    21A     -0.490088
      22A     -0.470030    23A     -0.463624    24A     -0.452042
      25A     -0.432943

  @DF-RHF Final Energy:  -271.28309528530349

   => Energetics <=

    Nuclear Repulsion Energy =            245.6273956158565568
    One-Electron Energy =                -854.4827008453016788
    Two-Electron Energy =                 337.5722099441417186
    DFT Exchange-Correlation Energy =       0.0000000000000000
    Empirical Dispersion Energy =           0.0000000000000000
    PCM Polarization Energy =               0.0000000000000000
    EFP Energy =                            0.0000000000000000
    Total Energy =                       -271.2830952853033750
    Molecular point group: c1
  Basis Set: CC-PVTZ
  Basis Set:

  -Total Gradient:
     Atom            X                  Y                   Z
    ------   -----------------  -----------------  -----------------
       1        0.000038681072     0.000014486971    -0.000024997443
       2        0.000475077838    -0.002975071663    -0.001339407988
       3       -0.000911293452     0.004695441178     0.001922225933
       4        0.001726107982    -0.005804215241    -0.001000873175
       5       -0.000020502130     0.000002381606    -0.000012734603
       6       -0.000028497665     0.000004590640    -0.000016768362
       7       -0.000010062571     0.000023022332    -0.000018904091
       8       -0.001264043111     0.004030448035     0.000454124426
       9       -0.000001554734    -0.000009832636     0.000015850209
      10        0.000010645858     0.000006130806     0.000033174102
      11       -0.000004516414     0.000006842761     0.000009456144
      12       -0.000008824321     0.000014996835    -0.000004512750
      13       -0.000002344410    -0.000012313123    -0.000025980410
      14       -0.000000142505    -0.000000597268     0.000004029535
      15       -0.000001567936     0.000007838727     0.000007827916
      16        0.000002509685    -0.000011009886     0.000004651917
      17        0.000002020612    -0.000002698963    -0.000008171680
      18       -0.000001693798     0.000009558888     0.000001010324

  **** Optimization is complete! (in 5 steps) ****
    Final optimized geometry and variables:
    Molecular point group: c1

    Geometry (in Angstrom), charge = 0, multiplicity = 1:

    H           -3.730323591762     0.117289937158    -0.227425245456
    O           -2.880873838939     0.346241310022    -0.556722384972
    C           -1.898723582922     0.061105917486     0.406166663828
    C           -0.546238244209     0.546378530469    -0.108923740940
    H           -2.139578611089     0.536058068408     1.353236981134
    H           -1.861387564474    -1.011690354568     0.581671188829
    C            0.616216261304    -0.359982196685     0.278959300374
    H           -0.620802588938     0.650250101847    -1.185152367823
    H           -0.360891496224     1.549393075939     0.264707808967
    C            1.971525646180     0.167610953401    -0.181742969538
    H            0.454203496030    -1.349544070517    -0.141078901386
    H            0.632333552308    -0.487745474555     1.359641407391
    C            3.130428151622    -0.750584514132     0.191549642592
    H            1.953052711820     0.305466028802    -1.259232281536
    H            2.138533355175     1.151495302682     0.247765150317
    H            3.010020275845    -1.733268310709    -0.252258702942
    H            4.076714578779    -0.347573999992    -0.150567036523
    H            3.196154640930    -0.880831745637     1.266772716460

  Mulliken Charges: (a.u.)
   Center  Symbol    Alpha    Beta     Spin     Total
       1     H     0.39586  0.39586  0.00000  0.20829
       2     O     4.19646  4.19646  0.00000 -0.39293
       3     C     2.96361  2.96361  0.00000  0.07278
       4     C     3.08859  3.08859  0.00000 -0.17718
       5     H     0.47248  0.47248  0.00000  0.05505
       6     H     0.47670  0.47670  0.00000  0.04660
       7     C     3.09508  3.09508  0.00000 -0.19016
       8     H     0.44495  0.44495  0.00000  0.11011
       9     H     0.45578  0.45578  0.00000  0.08844
      10     C     3.08476  3.08476  0.00000 -0.16951
      11     H     0.45357  0.45357  0.00000  0.09285
      12     H     0.45606  0.45606  0.00000  0.08789
      13     C     3.14958  3.14958  0.00000 -0.29916
      14     H     0.45309  0.45309  0.00000  0.09383
      15     H     0.45432  0.45432  0.00000  0.09136
      16     H     0.45504  0.45504  0.00000  0.08992
      17     H     0.44833  0.44833  0.00000  0.10335
      18     H     0.45576  0.45576  0.00000  0.08849

   Total alpha = 25.00000, Total beta = 25.00000, Total charge =  0.00000

*** Psi4 exiting successfully. Buy a developer a beer!
