  ==> Input File <==

--------------------------------------------------------------------------
set {
	reference rhf
	basis 6-31G*
}

set_num_threads( 1 )
memory 2 gb

molecule MOL {
0 1

H	 -3.040650	 -0.314228	 0.862668
C	 -2.772347	 -0.266684	 -0.190847
O	 -1.392607	 -0.295399	 -0.366433
H	 -3.183401	 -1.129800	 -0.696027
H	 -3.212088	 0.633381	 -0.618559
C	 -0.719715	 0.768384	 0.229244
C	 0.719720	 0.768376	 -0.229267
H	 -1.185038	 1.714362	 -0.050570
H	 -0.750528	 0.687237	 1.313896
O	 1.392611	 -0.295398	 0.366430
H	 0.750534	 0.687200	 -1.313918
H	 1.185043	 1.714359	 0.050526
C	 2.706965	 -0.449871	 -0.062409
H	 2.756559	 -0.644779	 -1.131878
H	 3.305899	 0.433456	 0.155466
H	 3.125548	 -1.294566	 0.467107

	symmetry c1
}
set optking {
	frozen_dihedral = ("
		3 6 7 11,
		7 10 13 14
	")
}

ee = energy('scf')
oeprop('DIPOLE', 'QUADRUPOLE', 'MULLIKEN_CHARGES')
f=open( 'psi4out.xyz', 'w' )
f.write( "16  " )
f.write( str(ee) + "\n" )
f.write( MOL.save_string_xyz() )
f.close()
--------------------------------------------------------------------------

    Molecular point group: c1

    Geometry (in Angstrom), charge = 0, multiplicity = 1:

       Center              X                  Y                   Z               Mass
    ------------   -----------------  -----------------  -----------------  -----------------
           H         -3.029163982001    -0.346412458007     0.907169971415     1.007825032070
           C         -2.760860982001    -0.298868458007    -0.146345028585    12.000000000000
           O         -1.381120982001    -0.327583458007    -0.321931028585    15.994914619560
           H         -3.171914982001    -1.161984458007    -0.651525028585     1.007825032070
           H         -3.200601982001     0.601196541993    -0.574057028585     1.007825032070
           C         -0.708228982001     0.736199541993     0.273745971415    12.000000000000
           C          0.731206017999     0.736191541993    -0.184765028585    12.000000000000
           H         -1.173551982001     1.682177541993    -0.006068028585     1.007825032070
           H         -0.739041982001     0.655052541993     1.358397971415     1.007825032070
           O          1.404097017999    -0.327582458007     0.410931971415    15.994914619560
           H          0.762020017999     0.655015541993    -1.269416028585     1.007825032070
           H          1.196529017999     1.682174541993     0.095027971415     1.007825032070
           C          2.718451017999    -0.482055458007    -0.017907028585    12.000000000000
           H          2.768045017999    -0.676963458007    -1.087376028585     1.007825032070
           H          3.317385017999     0.401271541993     0.199967971415     1.007825032070
           H          3.137034017999    -1.326750458007     0.511608971415     1.007825032070

  Charge       = 0
  Multiplicity = 1
  Basis Set: 6-31G*
  Basis Set:

    Orbital Energies (a.u.)
    -----------------------

    Doubly Occupied:

       1A    -20.553613     2A    -20.553450     3A    -11.269030
       4A    -11.268363     5A    -11.264148     6A    -11.263349
       7A     -1.388306     8A     -1.370806     9A     -1.030821
      10A     -0.935974    11A     -0.892653    12A     -0.823811
      13A     -0.685107    14A     -0.679669    15A     -0.656985
      16A     -0.636865    17A     -0.628928    18A     -0.596938
      19A     -0.553346    20A     -0.533401    21A     -0.508248
      22A     -0.476873    23A     -0.464642    24A     -0.419933
      25A     -0.409767

  @DF-RHF Final Energy:  -306.97722674477870

   => Energetics <=

    Nuclear Repulsion Energy =            258.5867170031665410
    One-Electron Energy =                -931.3977553968788925
    Two-Electron Energy =                 365.8338116489336471
    DFT Exchange-Correlation Energy =       0.0000000000000000
    Empirical Dispersion Energy =           0.0000000000000000
    PCM Polarization Energy =               0.0000000000000000
    EFP Energy =                            0.0000000000000000
    Total Energy =                       -306.9772267447787044

  Mulliken Charges: (a.u.)
   Center  Symbol    Alpha    Beta     Spin     Total
       1     H     0.42903  0.42903  0.00000  0.14194
       2     C     3.07974  3.07974  0.00000 -0.15948
       3     O     4.30046  4.30046  0.00000 -0.60092
       4     H     0.41111  0.41111  0.00000  0.17778
       5     H     0.43149  0.43149  0.00000  0.13703
       6     C     2.99339  2.99339  0.00000  0.01322
       7     C     2.99276  2.99276  0.00000  0.01447
       8     H     0.43311  0.43311  0.00000  0.13378
       9     H     0.42147  0.42147  0.00000  0.15705
      10     O     4.30075  4.30075  0.00000 -0.60149
      11     H     0.42336  0.42336  0.00000  0.15328
      12     H     0.43256  0.43256  0.00000  0.13488
      13     C     3.07947  3.07947  0.00000 -0.15894
      14     H     0.42819  0.42819  0.00000  0.14362
      15     H     0.43196  0.43196  0.00000  0.13608
      16     H     0.41115  0.41115  0.00000  0.17770

   Total alpha = 25.00000, Total beta = 25.00000, Total charge = -0.00000
