  ==> Input File <==

--------------------------------------------------------------------------
set {
	reference rhf
	basis cc-pvtz
}

set_num_threads( 4 )
memory 2 gb

molecule MOL {
0 1

H	 1.499487	 -0.125495	 -2.620385
C	 0.769931	 -0.314477	 -1.843653
C	 1.322304	 0.099773	 -0.484271
H	 -0.128189	 0.240582	 -2.089942
H	 0.528136	 -1.371073	 -1.865573
C	 0.308557	 -0.162619	 0.622645
H	 1.572422	 1.153411	 -0.488704
H	 2.229497	 -0.450448	 -0.267023
N	 -1.069352	 -0.004081	 0.085342
H	 0.371632	 -1.172932	 0.991288
H	 0.400391	 0.548875	 1.426218
O	 -1.584901	 -0.965470	 -0.377818
O	 -1.548033	 1.079343	 0.130056

	symmetry c1
}
set optking {
	frozen_dihedral = ("
		7 3 6 9
	")
}

ee = optimize('scf')
oeprop('DIPOLE', 'QUADRUPOLE', 'MULLIKEN_CHARGES')
f=open( 'psi4out.xyz', 'w' )
f.write( "13  " )
f.write( str(ee) + "\n" )
f.write( MOL.save_string_xyz() )
f.close()
--------------------------------------------------------------------------

    Molecular point group: c1
  Charge       = 0
  Multiplicity = 1
  Basis Set: CC-PVTZ
  Basis Set:
  @DF-RHF Final Energy:  -321.85378032940281
    Total Energy =                       -321.8537803294026389
    Molecular point group: c1
  Basis Set: CC-PVTZ
  Basis Set:
  Basis Set: CC-PVTZ
  Basis Set:
  @DF-RHF Final Energy:  -321.85290393360202
    Total Energy =                       -321.8529039336017945
  Basis Set: CC-PVTZ
  Basis Set:
  Basis Set: CC-PVTZ
  Basis Set:
  @DF-RHF Final Energy:  -321.85611124730701
    Total Energy =                       -321.8561112473071262
  Basis Set: CC-PVTZ
  Basis Set:
  Basis Set: CC-PVTZ
  Basis Set:
  @DF-RHF Final Energy:  -321.85766010528835
    Total Energy =                       -321.8576601052883461
  Basis Set: CC-PVTZ
  Basis Set:
  @DF-RHF Final Energy:  -321.85783484550223
    Total Energy =                       -321.8578348455021683
  @DF-RHF Final Energy:  -321.85792897389956
    Total Energy =                       -321.8579289738994476
  @DF-RHF Final Energy:  -321.85800439298765
    Total Energy =                       -321.8580043929876524
  @DF-RHF Final Energy:  -321.85802010179140
    Total Energy =                       -321.8580201017914533
  @DF-RHF Final Energy:  -321.85803319665445
    Total Energy =                       -321.8580331966544463
  @DF-RHF Final Energy:  -321.85806332690197
    Total Energy =                       -321.8580633269023110
  @DF-RHF Final Energy:  -321.85806707532583
    Total Energy =                       -321.8580670753258346
  @DF-RHF Final Energy:  -321.85806587534978
    Total Energy =                       -321.8580658753497232
  @DF-RHF Final Energy:  -321.85806765849236
    Total Energy =                       -321.8580676584923594
  @DF-RHF Final Energy:  -321.85807248060428
    Total Energy =                       -321.8580724806046192
  @DF-RHF Final Energy:  -321.85807234031523
    Total Energy =                       -321.8580723403150614
  @DF-RHF Final Energy:  -321.85807255947213
    Total Energy =                       -321.8580725594718501
  @DF-RHF Final Energy:  -321.85807267450997
    Total Energy =                       -321.8580726745099128
  @DF-RHF Final Energy:  -321.85807252845905
    Total Energy =                       -321.8580725284592745
  @DF-RHF Final Energy:  -321.85807269181197
    Total Energy =                       -321.8580726918120263
  @DF-RHF Final Energy:  -321.85807243182967
    Total Energy =                       -321.8580724318296689
  @DF-RHF Final Energy:  -321.85807149169784
    Total Energy =                       -321.8580714916977286
  @DF-RHF Final Energy:  -321.85807190773880
    Total Energy =                       -321.8580719077388608
  @DF-RHF Final Energy:  -321.85807069791275
    Total Energy =                       -321.8580706979125807
  @DF-RHF Final Energy:  -321.85807097605812
    Total Energy =                       -321.8580709760581726
  @DF-RHF Final Energy:  -321.85807061353194
    Total Energy =                       -321.8580706135318223
  @DF-RHF Final Energy:  -321.85807079756358
    Total Energy =                       -321.8580707975636415
  @DF-RHF Final Energy:  -321.85807064133428
    Total Energy =                       -321.8580706413340522
  @DF-RHF Final Energy:  -321.85807152127188
    Total Energy =                       -321.8580715212720520
  @DF-RHF Final Energy:  -321.85807160670504
    Total Energy =                       -321.8580716067046978
  @DF-RHF Final Energy:  -321.85807184467063
    Total Energy =                       -321.8580718446706896
  @DF-RHF Final Energy:  -321.85807157695660
    Total Energy =                       -321.8580715769566041
  @DF-RHF Final Energy:  -321.85807187738055
    Total Energy =                       -321.8580718773807234
  @DF-RHF Final Energy:  -321.85807195130900
    Total Energy =                       -321.8580719513092276
  @DF-RHF Final Energy:  -321.85807190066612
    Total Energy =                       -321.8580719006660047
  @DF-RHF Final Energy:  -321.85807187914179
    Total Energy =                       -321.8580718791415052
  @DF-RHF Final Energy:  -321.85807190255508
    Total Energy =                       -321.8580719025551957
  Basis Set: CC-PVTZ
  Basis Set:
  @DF-RHF Final Energy:  -321.85807182723613
    Total Energy =                       -321.8580718272360173
  Basis Set: CC-PVTZ
  Basis Set:
  Basis Set: CC-PVTZ
  Basis Set:
  @DF-RHF Final Energy:  -321.85807191800234
    Total Energy =                       -321.8580719180019969
  Basis Set: CC-PVTZ
  Basis Set:
  Basis Set: CC-PVTZ
  Basis Set:
  @DF-RHF Final Energy:  -321.85807188520300
    Total Energy =                       -321.8580718852027758
  Basis Set: CC-PVTZ
  Basis Set:
  Charge       = 0
  Multiplicity = 1
  Basis Set: CC-PVTZ
  Basis Set:

    Orbital Energies (a.u.)
    -----------------------

    Doubly Occupied:

       1A    -20.592785     2A    -20.588891     3A    -15.836647
       4A    -11.297373     5A    -11.254209     6A    -11.228387
       7A     -1.636318     8A     -1.420551     9A     -1.131119
      10A     -1.021740    11A     -0.896762    12A     -0.822813
      13A     -0.756393    14A     -0.739706    15A     -0.729339
      16A     -0.662224    17A     -0.610487    18A     -0.591159
      19A     -0.537383    20A     -0.519299    21A     -0.510102
      22A     -0.483885    23A     -0.475273    24A     -0.454215

  @DF-RHF Final Energy:  -321.85807187486978

   => Energetics <=

    Nuclear Repulsion Energy =            254.7142087180334045
    One-Electron Energy =                -943.5504393443454774
    Two-Electron Energy =                 366.9781587514422654
    DFT Exchange-Correlation Energy =       0.0000000000000000
    Empirical Dispersion Energy =           0.0000000000000000
    PCM Polarization Energy =               0.0000000000000000
    EFP Energy =                            0.0000000000000000
    Total Energy =                       -321.8580718748697791
    Molecular point group: c1
  Basis Set: CC-PVTZ
  Basis Set:

  -Total Gradient:
     Atom            X                  Y                   Z
    ------   -----------------  -----------------  -----------------
       1       -0.000169057404     0.000009586588     0.000121496030
       2        0.000107946907    -0.000107712097    -0.000262958655
       3       -0.005740795648     0.000318196518    -0.005122004275
       4        0.000077335317    -0.000075108477     0.000015741343
       5       -0.000022103586     0.000078394539     0.000116316643
       6        0.000715351563     0.004210728906     0.001918929833
       7        0.004545070744    -0.001445230899     0.003905899599
       8        0.000098135020     0.000249182663    -0.000001041280
       9       -0.000033343860    -0.003381652583    -0.000984558053
      10        0.000119775258     0.000107240781     0.000424751532
      11        0.000009974837     0.000310455515    -0.000080856099
      12        0.000145971033    -0.000239510311    -0.000156691619
      13        0.000145739819    -0.000034571141     0.000104975001

    Molecular point group: c1

    Geometry (in Angstrom), charge = 0, multiplicity = 1:

    H            1.989702908135    -0.071510800595    -2.348440132081
    C            1.195251436181    -0.263684236265    -1.639660699112
    C            1.637291761630     0.163884921307    -0.245108228373
    H            0.320843943292     0.283010596065    -1.967699153161
    H            0.963283210105    -1.321271676561    -1.672065276538
    C            0.653502235973    -0.147385211628     0.888683434103
    H            1.899838475310     1.212500536272    -0.211520582777
    H            2.549458007816    -0.363033037049     0.014792096275
    N           -0.756353502644     0.035088651929     0.449472917086
    H            0.718927738357    -1.173600306692     1.206538549505
    H            0.792782525649     0.518141670809     1.724571632590
    O           -1.399048671063    -0.938314624509     0.245862581623
    O           -1.136030246294     1.150744281240     0.312959253101

  Mulliken Charges: (a.u.)
   Center  Symbol    Alpha    Beta     Spin     Total
       1     H     0.44542  0.44542  0.00000  0.10916
       2     C     3.14968  3.14968  0.00000 -0.29935
       3     C     3.09428  3.09428  0.00000 -0.18857
       4     H     0.44312  0.44312  0.00000  0.11375
       5     H     0.44648  0.44648  0.00000  0.10704
       6     C     3.04465  3.04465  0.00000 -0.08930
       7     H     0.44165  0.44165  0.00000  0.11670
       8     H     0.44777  0.44777  0.00000  0.10445
       9     N     3.27966  3.27966  0.00000  0.44068
      10     H     0.43285  0.43285  0.00000  0.13430
      11     H     0.42946  0.42946  0.00000  0.14109
      12     O     4.17082  4.17082  0.00000 -0.34165
      13     O     4.17415  4.17415  0.00000 -0.34831

   Total alpha = 24.00000, Total beta = 24.00000, Total charge = -0.00000
