  ==> Input File <==

--------------------------------------------------------------------------
set {
	reference rhf
	basis 6-31G*
}

set_num_threads( 1 )
memory 2 gb

molecule MOL {
0 1

O	 1.073434	 4.162437	 1.082808
C	 0.085481	 4.489398	 1.665736
C	 -1.180777	 3.652060	 1.645919
C	 0.031809	 5.772361	 2.469652
C	 -1.068086	 2.373823	 0.820300
H	 -1.444312	 3.422098	 2.677449
H	 -1.989759	 4.279975	 1.274875
C	 -2.361601	 1.557389	 0.824219
H	 -0.250709	 1.772448	 1.205491
H	 -0.797001	 2.631234	 -0.198720
C	 -2.259874	 0.272531	 0.000494
H	 -2.629466	 1.305644	 1.849363
H	 -3.177427	 2.166942	 0.438291
C	 -3.549786	 -0.549746	 -0.000374
H	 -1.445093	 -0.337919	 0.385854
H	 -1.992995	 0.523034	 -1.024699
C	 -4.809590	 0.315458	 -0.000369
H	 -3.560515	 -1.202009	 -0.871156
H	 -3.561123	 -1.202955	 0.869711
H	 -4.844746	 0.956611	 -0.876632
H	 -5.706986	 -0.295590	 -0.001609
H	 -4.845960	 0.954827	 0.877144
H	 -0.202819	 5.559164	 3.508457
H	 0.984893	 6.279406	 2.411585
H	 -0.749418	 6.424560	 2.090238

	symmetry c1
}
set optking {
	frozen_dihedral = ("
		9 5 8 12,
		15 11 8 12,
		1 2 3 6,
		9 5 3 6
	")
}

ee = energy('scf')
oeprop('DIPOLE', 'QUADRUPOLE', 'MULLIKEN_CHARGES')
f=open( 'psi4out.xyz', 'w' )
f.write( "25  " )
f.write( str(ee) + "\n" )
f.write( MOL.save_string_xyz() )
f.close()
--------------------------------------------------------------------------

    Molecular point group: c1

    Geometry (in Angstrom), charge = 0, multiplicity = 1:

       Center              X                  Y                   Z               Mass
    ------------   -----------------  -----------------  -----------------  -----------------
           O          2.639748625229     1.706345961000     0.137161367921    15.994914619560
           C          1.651795625229     2.033306961000     0.720089367921    12.000000000000
           C          0.385537625229     1.195968961000     0.700272367921    12.000000000000
           C          1.598123625229     3.316269961000     1.524005367921    12.000000000000
           C          0.498228625229    -0.082268039000    -0.125346632079    12.000000000000
           H          0.122002625229     0.966006961000     1.731802367921     1.007825032070
           H         -0.423444374771     1.823883961000     0.329228367921     1.007825032070
           C         -0.795286374771    -0.898702039000    -0.121427632079    12.000000000000
           H          1.315605625229    -0.683643039000     0.259844367921     1.007825032070
           H          0.769313625229     0.175142961000    -1.144366632079     1.007825032070
           C         -0.693559374771    -2.183560039000    -0.945152632079    12.000000000000
           H         -1.063151374771    -1.150447039000     0.903716367921     1.007825032070
           H         -1.611112374771    -0.289149039000    -0.507355632079     1.007825032070
           C         -1.983471374771    -3.005837039000    -0.946020632079    12.000000000000
           H          0.121221625229    -2.794010039000    -0.559792632079     1.007825032070
           H         -0.426680374771    -1.933057039000    -1.970345632079     1.007825032070
           C         -3.243275374771    -2.140633039000    -0.946015632079    12.000000000000
           H         -1.994200374771    -3.658100039000    -1.816802632079     1.007825032070
           H         -1.994808374771    -3.659046039000    -0.075935632079     1.007825032070
           H         -3.278431374771    -1.499480039000    -1.822278632079     1.007825032070
           H         -4.140671374771    -2.751681039000    -0.947255632079     1.007825032070
           H         -3.279645374771    -1.501264039000    -0.068502632079     1.007825032070
           H          1.363495625229     3.103072961000     2.562810367921     1.007825032070
           H          2.551207625229     3.823314961000     1.465938367921     1.007825032070
           H          0.816896625229     3.968468961000     1.144591367921     1.007825032070

  Charge       = 0
  Multiplicity = 1
  Basis Set: 6-31G*
  Basis Set:

    Orbital Energies (a.u.)
    -----------------------

    Doubly Occupied:

       1A    -20.550294     2A    -11.326142     3A    -11.231640
       4A    -11.228242     5A    -11.216284     6A    -11.215508
       7A    -11.215035     8A    -11.213043     9A    -11.208421
      10A     -1.395596    11A     -1.095347    12A     -1.056882
      13A     -1.012533    14A     -0.964499    15A     -0.898132
      16A     -0.827854    17A     -0.772345    18A     -0.729183
      19A     -0.659799    20A     -0.652671    21A     -0.628412
      22A     -0.623992    23A     -0.606061    24A     -0.591905
      25A     -0.562586    26A     -0.555704    27A     -0.548477
      28A     -0.521914    29A     -0.510245    30A     -0.493560
      31A     -0.489517    32A     -0.476623    33A     -0.458845
      34A     -0.453004    35A     -0.451880    36A     -0.399372

  @DF-RHF Final Energy:  -387.12972636648982

   => Energetics <=

    Nuclear Repulsion Energy =            445.6496951435645428
    One-Electron Energy =               -1407.8756885837592563
    Two-Electron Energy =                 575.0962670737060307
    DFT Exchange-Correlation Energy =       0.0000000000000000
    Empirical Dispersion Energy =           0.0000000000000000
    PCM Polarization Energy =               0.0000000000000000
    EFP Energy =                            0.0000000000000000
    Total Energy =                       -387.1297263664887396

  Mulliken Charges: (a.u.)
   Center  Symbol    Alpha    Beta     Spin     Total
       1     O     4.26118  4.26118  0.00000 -0.52237
       2     C     2.73570  2.73570  0.00000  0.52860
       3     C     3.21080  3.21080  0.00000 -0.42160
       4     C     3.28661  3.28661  0.00000 -0.57323
       5     C     3.14642  3.14642  0.00000 -0.29283
       6     H     0.41019  0.41019  0.00000  0.17963
       7     H     0.41019  0.41019  0.00000  0.17962
       8     C     3.16084  3.16084  0.00000 -0.32168
       9     H     0.41254  0.41254  0.00000  0.17493
      10     H     0.41238  0.41238  0.00000  0.17523
      11     C     3.15251  3.15251  0.00000 -0.30503
      12     H     0.42511  0.42511  0.00000  0.14977
      13     H     0.42001  0.42001  0.00000  0.15998
      14     C     3.15181  3.15181  0.00000 -0.30363
      15     H     0.41997  0.41997  0.00000  0.16006
      16     H     0.42195  0.42195  0.00000  0.15609
      17     C     3.24608  3.24608  0.00000 -0.49217
      18     H     0.41986  0.41986  0.00000  0.16028
      19     H     0.42250  0.42250  0.00000  0.15499
      20     H     0.42203  0.42203  0.00000  0.15595
      21     H     0.41861  0.41861  0.00000  0.16279
      22     H     0.41870  0.41870  0.00000  0.16260
      23     H     0.40877  0.40877  0.00000  0.18245
      24     H     0.39648  0.39648  0.00000  0.20703
      25     H     0.40873  0.40873  0.00000  0.18255

   Total alpha = 36.00000, Total beta = 36.00000, Total charge =  0.00000
