  ==> Input File <==

--------------------------------------------------------------------------
set {
	reference rhf
	basis 6-31G*
}

set_num_threads( 1 )
memory 2 gb

molecule MOL {
0 1

O	 -1.556552	 -0.597882	 -0.694905
C	 -1.083277	 0.139568	 0.115197
C	 0.323299	 -0.082943	 0.642902
C	 -1.860983	 1.310371	 0.673964
C	 1.355627	 -0.005344	 -0.493127
H	 0.396251	 -1.044647	 1.143147
H	 0.528637	 0.693580	 1.371677
C	 2.786168	 -0.195604	 0.007473
H	 1.132807	 -0.760304	 -1.243899
H	 1.259610	 0.958506	 -0.981915
H	 3.495561	 -0.130713	 -0.811210
H	 2.912696	 -1.165395	 0.480041
H	 3.049284	 0.565503	 0.735850
H	 -1.844148	 1.300975	 1.759918
H	 -2.882648	 1.277543	 0.322026
H	 -1.399239	 2.240922	 0.354477

	symmetry c1
}
set optking {
	frozen_dihedral = ("
		9 5 3 2
	")
}

ee = energy('scf')
oeprop('DIPOLE', 'QUADRUPOLE', 'MULLIKEN_CHARGES')
f=open( 'psi4out.xyz', 'w' )
f.write( "16  " )
f.write( str(ee) + "\n" )
f.write( MOL.save_string_xyz() )
f.close()
--------------------------------------------------------------------------

    Molecular point group: c1

    Geometry (in Angstrom), charge = 0, multiplicity = 1:

       Center              X                  Y                   Z               Mass
    ------------   -----------------  -----------------  -----------------  -----------------
           O         -1.557178557864    -0.695430098234    -0.734366394099    15.994914619560
           C         -1.083903557864     0.042019901766     0.075735605901    12.000000000000
           C          0.322672442136    -0.180491098234     0.603440605901    12.000000000000
           C         -1.861609557864     1.212822901766     0.634502605901    12.000000000000
           C          1.355000442136    -0.102892098234    -0.532588394099    12.000000000000
           H          0.395624442136    -1.142195098234     1.103685605901     1.007825032070
           H          0.528010442136     0.596031901766     1.332215605901     1.007825032070
           C          2.785541442136    -0.293152098234    -0.031988394099    12.000000000000
           H          1.132180442136    -0.857852098234    -1.283360394099     1.007825032070
           H          1.258983442136     0.860957901766    -1.021376394099     1.007825032070
           H          3.494934442136    -0.228261098234    -0.850671394099     1.007825032070
           H          2.912069442136    -1.262943098234     0.440579605901     1.007825032070
           H          3.048657442136     0.467954901766     0.696388605901     1.007825032070
           H         -1.844774557864     1.203426901766     1.720456605901     1.007825032070
           H         -2.883274557864     1.179994901766     0.282564605901     1.007825032070
           H         -1.399865557864     2.143373901766     0.315015605901     1.007825032070

  Charge       = 0
  Multiplicity = 1
  Basis Set: 6-31G*
  Basis Set:

    Orbital Energies (a.u.)
    -----------------------

    Doubly Occupied:

       1A    -20.547909     2A    -11.325209     3A    -11.230429
       4A    -11.229295     5A    -11.228503     6A    -11.216845
       7A     -1.393849     8A     -1.079781     9A     -1.014681
      10A     -0.948373    11A     -0.826024    12A     -0.734489
      13A     -0.656861    14A     -0.649946    15A     -0.615371
      16A     -0.603182    17A     -0.572917    18A     -0.560034
      19A     -0.543451    20A     -0.512184    21A     -0.498464
      22A     -0.481889    23A     -0.470888    24A     -0.398449

  @DF-RHF Final Energy:  -270.02946215643425

   => Energetics <=

    Nuclear Repulsion Energy =            236.9500438655862240
    One-Electron Energy =                -835.2809200058427450
    Two-Electron Energy =                 328.3014139838222718
    DFT Exchange-Correlation Energy =       0.0000000000000000
    Empirical Dispersion Energy =           0.0000000000000000
    PCM Polarization Energy =               0.0000000000000000
    EFP Energy =                            0.0000000000000000
    Total Energy =                       -270.0294621564343061

  Mulliken Charges: (a.u.)
   Center  Symbol    Alpha    Beta     Spin     Total
       1     O     4.26261  4.26261  0.00000 -0.52523
       2     C     2.73636  2.73636  0.00000  0.52728
       3     C     3.20051  3.20051  0.00000 -0.40102
       4     C     3.29029  3.29029  0.00000 -0.58058
       5     C     3.15771  3.15771  0.00000 -0.31543
       6     H     0.40083  0.40083  0.00000  0.19833
       7     H     0.41814  0.41814  0.00000  0.16373
       8     C     3.24029  3.24029  0.00000 -0.48058
       9     H     0.40368  0.40368  0.00000  0.19264
      10     H     0.42011  0.42011  0.00000  0.15979
      11     H     0.41565  0.41565  0.00000  0.16869
      12     H     0.41918  0.41918  0.00000  0.16164
      13     H     0.42183  0.42183  0.00000  0.15634
      14     H     0.40881  0.40881  0.00000  0.18239
      15     H     0.39670  0.39670  0.00000  0.20659
      16     H     0.40730  0.40730  0.00000  0.18541

   Total alpha = 24.00000, Total beta = 24.00000, Total charge =  0.00000
