  ==> Input File <==

--------------------------------------------------------------------------
set {
	reference rhf
	basis cc-pvtz
}

set_num_threads( 4 )
memory 2 gb

molecule MOL {
0 1

H	 -3.569000	 -0.146000	 -0.000000
O	 -2.784000	 -0.686000	 -0.000000
C	 -1.726000	 0.124000	 0.000000
C	 -0.432000	 -0.649000	 0.000000
O	 -1.835000	 1.307000	 0.000000
C	 0.806000	 0.242000	 0.000000
H	 -0.448000	 -1.304000	 -0.867000
H	 -0.448000	 -1.304000	 0.867000
C	 2.103000	 -0.568000	 0.000000
H	 0.778000	 0.894000	 -0.867000
H	 0.778000	 0.894000	 0.868000
C	 3.350000	 0.317000	 -0.000000
H	 2.124000	 -1.220000	 -0.870000
H	 2.125000	 -1.220000	 0.871000
H	 3.375000	 0.957000	 -0.878000
H	 4.255000	 -0.282000	 0.000000
H	 3.375000	 0.958000	 0.876000

	symmetry c1
}
ee = optimize('scf')
oeprop('DIPOLE', 'QUADRUPOLE', 'MULLIKEN_CHARGES')
f=open( 'psi4out.xyz', 'w' )
f.write( "17  " )
f.write( str(ee) + "\n" )
f.write( MOL.save_string_xyz() )
f.close()
--------------------------------------------------------------------------

    Molecular point group: c1
  Charge       = 0
  Multiplicity = 1
  Basis Set: CC-PVTZ
  Basis Set:
  @DF-RHF Final Energy:  -345.04875341650876
    Total Energy =                       -345.0487534165091574
    Molecular point group: c1
  Basis Set: CC-PVTZ
  Basis Set:
  Basis Set: CC-PVTZ
  Basis Set:
  @DF-RHF Final Energy:  -345.04892780430191
    Total Energy =                       -345.0489278043014565
  Basis Set: CC-PVTZ
  Basis Set:
  Basis Set: CC-PVTZ
  Basis Set:
  @DF-RHF Final Energy:  -345.04893109055763
    Total Energy =                       -345.0489310905578009
  Basis Set: CC-PVTZ
  Basis Set:
  Charge       = 0
  Multiplicity = 1
  Basis Set: CC-PVTZ
  Basis Set:

    Orbital Energies (a.u.)
    -----------------------

    Doubly Occupied:

       1A    -20.604152     2A    -20.540726     3A    -11.373717
       4A    -11.239408     5A    -11.221333     6A    -11.220697
       7A    -11.210709     8A     -1.477731     9A     -1.369250
      10A     -1.092920    11A     -1.019864    12A     -0.914946
      13A     -0.825016    14A     -0.791082    15A     -0.703951
      16A     -0.688134    17A     -0.672250    18A     -0.631399
      19A     -0.593370    20A     -0.585361    21A     -0.574709
      22A     -0.538679    23A     -0.509235    24A     -0.484762
      25A     -0.483028    26A     -0.478482    27A     -0.472641
      28A     -0.446342

  @DF-RHF Final Energy:  -345.04893058500647

   => Energetics <=

    Nuclear Repulsion Energy =            304.7923162136670499
    One-Electron Energy =               -1074.1547085430461266
    Two-Electron Energy =                 424.3134617443724323
    DFT Exchange-Correlation Energy =       0.0000000000000000
    Empirical Dispersion Energy =           0.0000000000000000
    PCM Polarization Energy =               0.0000000000000000
    EFP Energy =                            0.0000000000000000
    Total Energy =                       -345.0489305850066444
    Molecular point group: c1
  Basis Set: CC-PVTZ
  Basis Set:

  -Total Gradient:
     Atom            X                  Y                   Z
    ------   -----------------  -----------------  -----------------
       1       -0.000018488164    -0.000037080145    -0.000003729912
       2        0.000007609615     0.000078245675    -0.000177068057
       3       -0.000014588101    -0.000031462841     0.000606416027
       4       -0.000010914819     0.000034707440    -0.000186817981
       5       -0.000007512378     0.000002215684    -0.000219615494
       6        0.000002445473    -0.000015778867    -0.000007982213
       7        0.000045898229    -0.000043239232    -0.000004451543
       8       -0.000021023386     0.000003613258    -0.000002254223
       9        0.000000290716     0.000006935493     0.000004342301
      10        0.000001338439     0.000010603907    -0.000002714562
      11       -0.000002225557     0.000003073536    -0.000004614092
      12        0.000006450678     0.000000535042    -0.000006213140
      13        0.000001993845    -0.000012236754     0.000000019221
      14       -0.000001391176    -0.000008632207    -0.000001770063
      15        0.000002557607     0.000002307937     0.000003610088
      16        0.000000916144     0.000004390499    -0.000000652313
      17        0.000006642834     0.000001801579     0.000003495955

  **** Optimization is complete! (in 4 steps) ****
    Final optimized geometry and variables:
    Molecular point group: c1

    Geometry (in Angstrom), charge = 0, multiplicity = 1:

    H           -3.443306621538    -0.176634767727    -0.001655640268
    O           -2.658847962400    -0.704215101306    -0.000459813412
    C           -1.605396676967     0.107679904517     0.001145574850
    C           -0.310616009854    -0.658853026235     0.000791311618
    O           -1.718350324829     1.284629118931    -0.000627067903
    C            0.926580686711     0.227233007203     0.000178183387
    H           -0.327627350196    -1.313681158200    -0.864447432550
    H           -0.327041148755    -1.313334088237     0.866297614629
    C            2.220155796678    -0.582071660327    -0.000087886215
    H            0.899945412600     0.878220631946    -0.866389783120
    H            0.900542243494     0.878580581711     0.866486360132
    C            3.466689326402     0.296012328792    -0.000456751558
    H            2.239072834875    -1.234094987639    -0.869382373641
    H            2.239504931138    -1.233985452467     0.869270221943
    H            3.493549109566     0.935857248807    -0.875887141462
    H            4.368821537716    -0.304526599091    -0.001198921572
    H            3.494559012201     0.935165836386     0.875457825347

  Mulliken Charges: (a.u.)
   Center  Symbol    Alpha    Beta     Spin     Total
       1     H     0.38244  0.38244  0.00000  0.23512
       2     O     4.15973  4.15973  0.00000 -0.31945
       3     C     2.80469  2.80469  0.00000  0.39061
       4     C     3.11092  3.11092  0.00000 -0.22183
       5     O     4.19113  4.19113  0.00000 -0.38227
       6     C     3.08199  3.08199  0.00000 -0.16399
       7     H     0.43813  0.43813  0.00000  0.12374
       8     H     0.43820  0.43820  0.00000  0.12359
       9     C     3.08605  3.08605  0.00000 -0.17209
      10     H     0.44622  0.44622  0.00000  0.10755
      11     H     0.44626  0.44626  0.00000  0.10749
      12     C     3.14924  3.14924  0.00000 -0.29849
      13     H     0.45484  0.45484  0.00000  0.09032
      14     H     0.45484  0.45484  0.00000  0.09032
      15     H     0.45366  0.45366  0.00000  0.09269
      16     H     0.44801  0.44801  0.00000  0.10399
      17     H     0.45366  0.45366  0.00000  0.09269

   Total alpha = 28.00000, Total beta = 28.00000, Total charge = -0.00000
