  ==> Input File <==

--------------------------------------------------------------------------
set {
	reference rhf
	basis 6-31G*
}

set_num_threads( 1 )
memory 2 gb

molecule MOL {
0 1

H	 3.893188	 0.355400	 -0.101367
N	 3.092854	 -0.246221	 -0.068770
C	 1.865559	 0.531981	 0.018834
H	 3.199514	 -0.826043	 0.741946
C	 0.645745	 -0.382037	 -0.029944
H	 1.841966	 1.207024	 -0.831236
H	 1.815756	 1.155410	 0.915079
C	 -0.679275	 0.379305	 0.025956
H	 0.698998	 -0.976915	 -0.937203
H	 0.693479	 -1.083846	 0.802235
C	 -0.501421	 1.898741	 0.033508
H	 -1.230082	 0.079935	 0.916371
H	 -1.298353	 0.096391	 -0.824073
C	 -1.827828	 2.655412	 0.093542
H	 0.115698	 2.183874	 0.882670
H	 0.046439	 2.201157	 -0.856463
H	 -2.384623	 2.399966	 0.990784
H	 -1.668674	 3.729308	 0.098090
H	 -2.454213	 2.417611	 -0.761727

	symmetry c1
}
set optking {
	frozen_dihedral = ("
		6 3 5 9,
		12 8 11 15,
		1 2 3 6
	")
}

ee = energy('scf')
oeprop('DIPOLE', 'QUADRUPOLE', 'MULLIKEN_CHARGES')
f=open( 'psi4out.xyz', 'w' )
f.write( "19  " )
f.write( str(ee) + "\n" )
f.write( MOL.save_string_xyz() )
f.close()
--------------------------------------------------------------------------

    Molecular point group: c1

    Geometry (in Angstrom), charge = 0, multiplicity = 1:

       Center              X                  Y                   Z               Mass
    ------------   -----------------  -----------------  -----------------  -----------------
           H          3.426652315682    -0.455043233926    -0.121836208932     1.007825032070
           N          2.626318315682    -1.056664233926    -0.089239208932    14.003074004780
           C          1.399023315682    -0.278462233926    -0.001635208932    12.000000000000
           H          2.732978315682    -1.636486233926     0.721476791068     1.007825032070
           C          0.179209315682    -1.192480233926    -0.050413208932    12.000000000000
           H          1.375430315682     0.396580766074    -0.851705208932     1.007825032070
           H          1.349220315682     0.344966766074     0.894609791068     1.007825032070
           C         -1.145810684318    -0.431138233926     0.005486791068    12.000000000000
           H          0.232462315682    -1.787358233926    -0.957672208932     1.007825032070
           H          0.226943315682    -1.894289233926     0.781765791068     1.007825032070
           C         -0.967956684318     1.088297766074     0.013038791068    12.000000000000
           H         -1.696617684318    -0.730508233926     0.895901791068     1.007825032070
           H         -1.764888684318    -0.714052233926    -0.844542208932     1.007825032070
           C         -2.294363684318     1.844968766074     0.073072791068    12.000000000000
           H         -0.350837684318     1.373430766074     0.862200791068     1.007825032070
           H         -0.420096684318     1.390713766074    -0.876932208932     1.007825032070
           H         -2.851158684318     1.589522766074     0.970314791068     1.007825032070
           H         -2.135209684318     2.918864766074     0.077620791068     1.007825032070
           H         -2.920748684318     1.607167766074    -0.782196208932     1.007825032070

  Charge       = 0
  Multiplicity = 1
  Basis Set: 6-31G*
  Basis Set:

    Orbital Energies (a.u.)
    -----------------------

    Doubly Occupied:

       1A    -15.530944     2A    -11.237718     3A    -11.213365
       4A    -11.211310     5A    -11.207912     6A    -11.207196
       7A     -1.175735     8A     -1.075598     9A     -0.994411
      10A     -0.896853    11A     -0.842426    12A     -0.761725
      13A     -0.665908    14A     -0.643157    15A     -0.617275
      16A     -0.586513    17A     -0.573233    18A     -0.550593
      19A     -0.522447    20A     -0.503317    21A     -0.495289
      22A     -0.462039    23A     -0.450656    24A     -0.442249
      25A     -0.377713

  @DF-RHF Final Energy:  -251.33689446310734

   => Energetics <=

    Nuclear Repulsion Energy =            252.5984915674467857
    One-Electron Energy =                -839.3796276502009732
    Two-Electron Energy =                 335.4442416196463910
    DFT Exchange-Correlation Energy =       0.0000000000000000
    Empirical Dispersion Energy =           0.0000000000000000
    PCM Polarization Energy =               0.0000000000000000
    EFP Energy =                            0.0000000000000000
    Total Energy =                       -251.3368944631077966

  Mulliken Charges: (a.u.)
   Center  Symbol    Alpha    Beta     Spin     Total
       1     H     0.33299  0.33299  0.00000  0.33403
       2     N     3.92271  3.92271  0.00000 -0.84541
       3     C     3.06448  3.06448  0.00000 -0.12896
       4     H     0.33595  0.33595  0.00000  0.32809
       5     C     3.15534  3.15534  0.00000 -0.31069
       6     H     0.41887  0.41887  0.00000  0.16225
       7     H     0.43236  0.43236  0.00000  0.13528
       8     C     3.15601  3.15601  0.00000 -0.31202
       9     H     0.41066  0.41066  0.00000  0.17868
      10     H     0.42503  0.42503  0.00000  0.14995
      11     C     3.16120  3.16120  0.00000 -0.32241
      12     H     0.42178  0.42178  0.00000  0.15645
      13     H     0.41973  0.41973  0.00000  0.16053
      14     C     3.23606  3.23606  0.00000 -0.47212
      15     H     0.42123  0.42123  0.00000  0.15754
      16     H     0.42091  0.42091  0.00000  0.15817
      17     H     0.42245  0.42245  0.00000  0.15510
      18     H     0.42022  0.42022  0.00000  0.15955
      19     H     0.42200  0.42200  0.00000  0.15599

   Total alpha = 25.00000, Total beta = 25.00000, Total charge =  0.00000
