  ==> Input File <==

--------------------------------------------------------------------------
set {
	reference rhf
	basis 6-31G*
}

set_num_threads( 4 )
memory 2 gb

molecule MOL {
0 1

H	 3.276176	 0.174363	 -0.109463
N	 2.434251	 -0.367735	 -0.081097
C	 1.267428	 0.496480	 0.024474
H	 2.501951	 -0.965776	 0.720575
C	 -0.016086	 -0.325158	 -0.029487
H	 1.288818	 1.183521	 -0.816092
H	 1.267576	 1.109062	 0.929528
C	 -1.282277	 0.529072	 0.046735
H	 -0.012495	 -0.908639	 -0.945788
H	 -0.015903	 -1.041248	 0.791956
C	 -1.009236	 2.017217	 -0.169084
H	 -1.754572	 0.387540	 1.016731
H	 -1.999653	 0.183879	 -0.694999
H	 -0.321763	 2.401363	 0.578936
H	 -1.924151	 2.598316	 -0.107643
H	 -0.567990	 2.196998	 -1.145404

	symmetry c1
}
set optking {
	frozen_dihedral = ("
		12 8 5 9
	")
}

ee = optimize('scf')
oeprop('DIPOLE', 'QUADRUPOLE', 'MULLIKEN_CHARGES')
f=open( 'psi4out.xyz', 'w' )
f.write( "16  " )
f.write( str(ee) + "\n" )
f.write( MOL.save_string_xyz() )
f.close()
--------------------------------------------------------------------------

    Molecular point group: c1
  Charge       = 0
  Multiplicity = 1
  Basis Set: 6-31G*
  Basis Set:
  @DF-RHF Final Energy:  -212.30438915884002
    Total Energy =                       -212.3043891588399674
    Molecular point group: c1
  Basis Set: 6-31G*
  Basis Set:
  Basis Set: 6-31G*
  Basis Set:
  @DF-RHF Final Energy:  -212.30519176587941
    Total Energy =                       -212.3051917658792718
  Basis Set: 6-31G*
  Basis Set:
  Basis Set: 6-31G*
  Basis Set:
  @DF-RHF Final Energy:  -212.30822945733334
    Total Energy =                       -212.3082294573334821
  Basis Set: 6-31G*
  Basis Set:
  Basis Set: 6-31G*
  Basis Set:
  @DF-RHF Final Energy:  -212.30864179818872
    Total Energy =                       -212.3086417981887166
  Basis Set: 6-31G*
  Basis Set:
  Basis Set: 6-31G*
  Basis Set:
  @DF-RHF Final Energy:  -212.30869349341739
    Total Energy =                       -212.3086934934171950
  Basis Set: 6-31G*
  Basis Set:
  Basis Set: 6-31G*
  Basis Set:
  @DF-RHF Final Energy:  -212.30870147583707
    Total Energy =                       -212.3087014758369264
  Basis Set: 6-31G*
  Basis Set:
  Basis Set: 6-31G*
  Basis Set:
  @DF-RHF Final Energy:  -212.30870622874866
    Total Energy =                       -212.3087062287484628
  Basis Set: 6-31G*
  Basis Set:
  Charge       = 0
  Multiplicity = 1
  Basis Set: 6-31G*
  Basis Set:

    Orbital Energies (a.u.)
    -----------------------

    Doubly Occupied:

       1A    -15.532442     2A    -11.239693     3A    -11.215435
       4A    -11.209896     5A    -11.209013     6A     -1.176677
       7A     -1.054446     8A     -0.954424     9A     -0.864329
      10A     -0.773956    11A     -0.662124    12A     -0.634922
      13A     -0.610169    14A     -0.583647    15A     -0.545737
      16A     -0.530949    17A     -0.516189    18A     -0.467409
      19A     -0.460986    20A     -0.450625    21A     -0.380700

  @DF-RHF Final Energy:  -212.30870634841150

   => Energetics <=

    Nuclear Repulsion Energy =            188.8763366502056726
    One-Electron Energy =                -660.2225508720912330
    Two-Electron Energy =                 259.0375078734739418
    DFT Exchange-Correlation Energy =       0.0000000000000000
    Empirical Dispersion Energy =           0.0000000000000000
    PCM Polarization Energy =               0.0000000000000000
    EFP Energy =                            0.0000000000000000
    Total Energy =                       -212.3087063484116470
    Molecular point group: c1
  Basis Set: 6-31G*
  Basis Set:

  -Total Gradient:
     Atom            X                  Y                   Z
    ------   -----------------  -----------------  -----------------
       1       -0.000005317746     0.000003701247     0.000000817483
       2       -0.000016267501     0.000002536318     0.000011156494
       3        0.000005194684     0.000005707310    -0.000027381218
       4       -0.000000603858    -0.000000041415    -0.000000138749
       5        0.002300883581     0.004029217856    -0.003568101961
       6        0.000004526872     0.000005309386    -0.000001067052
       7        0.000000612437    -0.000011439220     0.000000677610
       8        0.002883347666     0.003985585735     0.002991516213
       9       -0.002364126853    -0.004007854468     0.002517969964
      10       -0.000001363801    -0.000006880624    -0.000001699237
      11       -0.000004480386     0.000004456174     0.000005394688
      12       -0.002801747639    -0.004009912589    -0.001933578225
      13        0.000001489984    -0.000001330032     0.000003563819
      14       -0.000000261794     0.000001592664    -0.000000496411
      15       -0.000002659596     0.000004803522    -0.000001624767
      16        0.000000773949    -0.000005451865     0.000002991350

  **** Optimization is complete! (in 8 steps) ****
    Final optimized geometry and variables:
    Molecular point group: c1

    Geometry (in Angstrom), charge = 0, multiplicity = 1:

    H            3.012486313352    -0.454832236794    -0.035505512269
    N            2.135296104341    -0.938485382757    -0.048199107497
    C            1.028704225161    -0.001666681856     0.087160171545
    H            2.147911291214    -1.582066649498     0.720236973252
    C           -0.295948907886    -0.751576032038    -0.017594637687
    H            1.114640303144     0.721592887517    -0.715904283729
    H            1.059788399273     0.561067702326     1.022748045901
    C           -1.589449087873     0.091799093578     0.108424717652
    H           -0.306430880050    -1.323008179351    -0.939776263451
    H           -0.309228137423    -1.505856061928     0.767972630172
    C           -1.468887187975     1.591363656934    -0.171006018176
    H           -2.033905680137    -0.067522202322     1.086916079164
    H           -2.319028756318    -0.316638774668    -0.586182681677
    H           -0.805762133625     2.088186599679     0.529339941535
    H           -2.442143006872     2.065412107397    -0.090055392438
    H           -1.096585649097     1.780910871835    -1.173254324075

  Mulliken Charges: (a.u.)
   Center  Symbol    Alpha    Beta     Spin     Total
       1     H     0.33237  0.33237  0.00000  0.33526
       2     N     3.92208  3.92208  0.00000 -0.84417
       3     C     3.06309  3.06309  0.00000 -0.12618
       4     H     0.33540  0.33540  0.00000  0.32919
       5     C     3.15547  3.15547  0.00000 -0.31093
       6     H     0.41879  0.41879  0.00000  0.16241
       7     H     0.43400  0.43400  0.00000  0.13200
       8     C     3.15759  3.15759  0.00000 -0.31517
       9     H     0.41094  0.41094  0.00000  0.17812
      10     H     0.42639  0.42639  0.00000  0.14721
      11     C     3.24376  3.24376  0.00000 -0.48752
      12     H     0.42122  0.42122  0.00000  0.15756
      13     H     0.41944  0.41944  0.00000  0.16111
      14     H     0.42082  0.42082  0.00000  0.15836
      15     H     0.41859  0.41859  0.00000  0.16282
      16     H     0.42004  0.42004  0.00000  0.15991

   Total alpha = 21.00000, Total beta = 21.00000, Total charge = -0.00000
