                              Psi4 1.0.54 Driver

  ==> Input File <==

--------------------------------------------------------------------------
set {
	reference rhf
	basis cc-pvtz
}

set_num_threads( 4 )
memory 2 gb

molecule MOL {
0 1

H	 -3.258660	 -0.290394	 1.471450
C	 -3.307964	 -0.275695	 0.374072
C	 -2.653809	 0.914422	 -0.273689
O	 -3.855140	 -1.148880	 -0.205112
C	 -1.216901	 1.136108	 0.207794
H	 -2.700131	 0.790676	 -1.347875
H	 -3.256452	 1.781007	 -0.010713
C	 -0.247837	 0.040196	 -0.230469
H	 -0.872882	 2.093195	 -0.169002
H	 -1.209325	 1.218376	 1.291938
C	 1.181757	 0.280428	 0.247371
H	 -0.259600	 -0.030819	 -1.314870
H	 -0.591284	 -0.923375	 0.136958
C	 2.151032	 -0.811012	 -0.202643
H	 1.515939	 1.247397	 -0.115449
H	 1.191514	 0.341223	 1.333422
C	 3.580021	 -0.656538	 0.320835
H	 2.170545	 -0.847575	 -1.289412
H	 1.766632	 -1.772905	 0.124928
C	 4.307927	 -1.971745	 0.588172
H	 3.546347	 -0.084680	 1.242918
H	 4.157040	 -0.061683	 -0.382373
H	 3.750339	 -2.590885	 1.283698
H	 4.457108	 -2.545284	 -0.318736
H	 5.284849	 -1.788855	 1.020769

	symmetry c1
}
set optking {
	frozen_dihedral = ("
		20 17 14 18
	")
}

ee,wfn = optimize('scf', return_wfn=True)
oeprop( wfn, 'DIPOLE', 'QUADRUPOLE', 'MULLIKEN_CHARGES')
f=open( 'psi4out.xyz', 'w' )
f.write( "25  " )
f.write( str(ee) + "\n" )
f.write( MOL.save_string_xyz() )
f.close()
--------------------------------------------------------------------------

    Molecular point group: c1
  Charge       = 0
  Multiplicity = 1
  Basis Set: CC-PVTZ
  Basis Set:
  @DF-RHF Final Energy:  -387.25850650477724
    Total Energy =                       -387.2585065047778698
    Molecular point group: c1
  Basis Set: CC-PVTZ
  Basis Set:
  Basis Set: CC-PVTZ
  Basis Set:
  @DF-RHF Final Energy:  -387.00447696745397
    Total Energy =                       -387.0044769674540248
  Basis Set: CC-PVTZ
  Basis Set:
  Basis Set: CC-PVTZ
  Basis Set:
  @DF-RHF Final Energy:  -387.15862388299468
    Total Energy =                       -387.1586238829945614
  Basis Set: CC-PVTZ
  Basis Set:
  Basis Set: CC-PVTZ
  Basis Set:
  @DF-RHF Final Energy:  -387.24872784195429
    Total Energy =                       -387.2487278419540644
  Basis Set: CC-PVTZ
  Basis Set:
  @DF-RHF Final Energy:  -387.25800549854006
    Total Energy =                       -387.2580054985402285
  @DF-RHF Final Energy:  -387.25910813649034
    Total Energy =                       -387.2591081364898855
  @DF-RHF Final Energy:  -387.25793412474383
    Total Energy =                       -387.2579341247442244
  Basis Set: CC-PVTZ
  Basis Set:
  @DF-RHF Final Energy:  -387.25912719670902
    Total Energy =                       -387.2591271967094144
  Basis Set: CC-PVTZ
  Basis Set:
  Basis Set: CC-PVTZ
  Basis Set:
  @DF-RHF Final Energy:  -387.25919898585801
    Total Energy =                       -387.2591989858584611
  Basis Set: CC-PVTZ
  Basis Set:
  Basis Set: CC-PVTZ
  Basis Set:
  @DF-RHF Final Energy:  -387.25921437018485
    Total Energy =                       -387.2592143701845089
  Basis Set: CC-PVTZ
  Basis Set:
  Charge       = 0
  Multiplicity = 1
  Basis Set: CC-PVTZ
  Basis Set:

    Orbital Energies (a.u.)
    -----------------------

    Doubly Occupied:

       1A    -20.551400     2A    -11.320952     3A    -11.233803
       4A    -11.232898     5A    -11.221535     6A    -11.218190
       7A    -11.215723     8A    -11.214643     9A    -11.208576
      10A     -1.406451    11A     -1.105063    12A     -1.070475
      13A     -1.016090    14A     -0.944575    15A     -0.868517
      16A     -0.814961    17A     -0.794564    18A     -0.787733
      19A     -0.667870    20A     -0.665955    21A     -0.639597
      22A     -0.619362    23A     -0.604124    24A     -0.596655
      25A     -0.570033    26A     -0.549968    27A     -0.543077
      28A     -0.523250    29A     -0.506832    30A     -0.501164
      31A     -0.488976    32A     -0.478170    33A     -0.466713
      34A     -0.462800    35A     -0.441035    36A     -0.411903

  @DF-RHF Final Energy:  -387.25921458262195

   => Energetics <=

    Nuclear Repulsion Energy =            436.2593246979024002
    One-Electron Energy =               -1389.1098131317269235
    Two-Electron Energy =                 565.5912738512025726
    DFT Exchange-Correlation Energy =       0.0000000000000000
    Empirical Dispersion Energy =           0.0000000000000000
    PCM Polarization Energy =               0.0000000000000000
    EFP Energy =                            0.0000000000000000
    Total Energy =                       -387.2592145826218939
    Molecular point group: c1
  Basis Set: CC-PVTZ
  Basis Set:

  -Total Gradient:
     Atom            X                  Y                   Z
    ------   -----------------  -----------------  -----------------
       1       -0.000017210322    -0.000039176886    -0.000102136132
       2       -0.000051715314    -0.000013146986     0.000066574403
       3       -0.000094642358    -0.000020388496    -0.000002996933
       4        0.000089065604     0.000089593255     0.000022467025
       5        0.000014501640    -0.000031475640     0.000070221415
       6        0.000010918155    -0.000013523554    -0.000002436361
       7        0.000031211837     0.000014696960    -0.000009623946
       8        0.000009755671     0.000027462008     0.000001418976
       9       -0.000003901333     0.000010889270    -0.000007283166
      10       -0.000004209907     0.000000164828     0.000014644691
      11       -0.000003792502    -0.000010128423    -0.000035682728
      12        0.000006635034    -0.000009118192    -0.000007441117
      13        0.000002785004    -0.000010416889    -0.000001944492
      14        0.000101038739    -0.004101064941     0.003572629721
      15        0.000003833696     0.000000623981    -0.000020632093
      16        0.000011204978     0.000018871099     0.000005144486
      17        0.000887834695    -0.001106890680    -0.004233592761
      18       -0.000282587578     0.003768776212    -0.002049281609
      19       -0.000002315227    -0.000012704113    -0.000000977996
      20       -0.000692386219     0.001435417749     0.002724150015
      21       -0.000000233002     0.000020509675     0.000011232875
      22       -0.000009001514     0.000001757569    -0.000012427430
      23       -0.000004134650    -0.000001554490     0.000006487727
      24       -0.000003448672    -0.000016355498    -0.000009184441
      25        0.000000793535    -0.000002817816     0.000000669874

  **** Optimization is complete! (in 11 steps) ****
    Final optimized geometry and variables:
    Molecular point group: c1

    Geometry (in Angstrom), charge = 0, multiplicity = 1:

    H           -3.179489413741     0.968403695942     1.291364133286
    C           -3.282946601023     0.526828239493     0.290939790883
    C           -2.535889350895     1.245940869347    -0.799228653734
    O           -3.951219105576    -0.435676625602     0.135494202299
    C           -1.058861754103     1.466183788733    -0.458895105447
    H           -2.654443627373     0.692157593907    -1.721521810781
    H           -3.021387015986     2.211346331986    -0.923850514397
    C           -0.243695083120     0.175960127722    -0.402715661464
    H           -0.631083799471     2.130253894029    -1.202154170795
    H           -0.982626456548     1.988428457427     0.491688088996
    C            1.228643860981     0.413135445439    -0.080906314218
    H           -0.327952932027    -0.338677996069    -1.356154234765
    H           -0.668268343390    -0.495849646047     0.339089214576
    C            2.049872732114    -0.873757310960    -0.014635183606
    H            1.658035215622     1.073945865014    -0.830719017127
    H            1.309572373202     0.938181673056     0.867833220986
    C            3.541590654650    -0.621399559904     0.240486194234
    H            1.928886448355    -1.393725507849    -0.960826069213
    H            1.643271467483    -1.517462715440     0.759383441794
    C            4.225957253969    -1.750540094282     1.004642407922
    H            3.655026044275     0.294301162445     0.814215765992
    H            4.049972337702    -0.449197838625    -0.702653513316
    H            3.779121257654    -1.877737255175     1.984681043103
    H            4.137908244287    -2.695652885658     0.478193367770
    H            5.281779013141    -1.548170228613     1.144263234850

  Mulliken Charges: (a.u.)
   Center  Symbol    Alpha    Beta     Spin     Total
       1     H     0.46424  0.46424  0.00000  0.07151
       2     C     2.90466  2.90466  0.00000  0.19068
       3     C     3.08908  3.08908  0.00000 -0.17817
       4     O     4.16624  4.16624  0.00000 -0.33249
       5     C     3.11636  3.11636  0.00000 -0.23273
       6     H     0.44297  0.44297  0.00000  0.11407
       7     H     0.44051  0.44051  0.00000  0.11898
       8     C     3.09119  3.09119  0.00000 -0.18239
       9     H     0.44310  0.44310  0.00000  0.11379
      10     H     0.44985  0.44985  0.00000  0.10030
      11     C     3.09036  3.09036  0.00000 -0.18071
      12     H     0.44989  0.44989  0.00000  0.10022
      13     H     0.44817  0.44817  0.00000  0.10366
      14     C     3.08932  3.08932  0.00000 -0.17865
      15     H     0.45274  0.45274  0.00000  0.09453
      16     H     0.45434  0.45434  0.00000  0.09132
      17     C     3.08607  3.08607  0.00000 -0.17214
      18     H     0.45280  0.45280  0.00000  0.09440
      19     H     0.45277  0.45277  0.00000  0.09446
      20     C     3.14856  3.14856  0.00000 -0.29711
      21     H     0.45643  0.45643  0.00000  0.08713
      22     H     0.45178  0.45178  0.00000  0.09643
      23     H     0.45534  0.45534  0.00000  0.08933
      24     H     0.45414  0.45414  0.00000  0.09172
      25     H     0.44907  0.44907  0.00000  0.10186

   Total alpha = 36.00000, Total beta = 36.00000, Total charge =  0.00000

*** Psi4 exiting successfully. Buy a developer a beer!
