  ==> Input File <==

--------------------------------------------------------------------------
set {
	reference rhf
	basis 6-31G*
}

set_num_threads( 4 )
memory 2 gb

molecule MOL {
0 1

H	 1.136379	 0.211822	 1.465562
C	 1.135357	 0.094285	 0.374742
C	 0.065331	 0.871482	 -0.349150
O	 1.941633	 -0.601957	 -0.151457
C	 -1.259870	 0.101066	 -0.437378
H	 0.438470	 1.132387	 -1.332821
H	 -0.092907	 1.795277	 0.205579
C	 -1.176001	 -1.147144	 -1.316786
H	 -2.020849	 0.768873	 -0.828471
H	 -1.584504	 -0.175390	 0.563535
H	 -0.886840	 -0.889046	 -2.330836
H	 -2.134953	 -1.652819	 -1.361751
H	 -0.446316	 -1.857441	 -0.939390

	symmetry c1
}
set optking {
	frozen_dihedral = ("
		6 3 2 4
	")
}

ee = optimize('scf')
oeprop('DIPOLE', 'QUADRUPOLE', 'MULLIKEN_CHARGES')
f=open( 'psi4out.xyz', 'w' )
f.write( "13  " )
f.write( str(ee) + "\n" )
f.write( MOL.save_string_xyz() )
f.close()
--------------------------------------------------------------------------

    Molecular point group: c1
  Charge       = 0
  Multiplicity = 1
  Basis Set: 6-31G*
  Basis Set:
  @DF-RHF Final Energy:  -230.98348306040495
    Total Energy =                       -230.9834830604049785
    Molecular point group: c1
  Basis Set: 6-31G*
  Basis Set:
  Basis Set: 6-31G*
  Basis Set:
  @DF-RHF Final Energy:  -230.98150905577558
    Total Energy =                       -230.9815090557755752
  Basis Set: 6-31G*
  Basis Set:
  Basis Set: 6-31G*
  Basis Set:
  @DF-RHF Final Energy:  -230.98365988519009
    Total Energy =                       -230.9836598851899794
  Basis Set: 6-31G*
  Basis Set:
  Basis Set: 6-31G*
  Basis Set:
  @DF-RHF Final Energy:  -230.98369443985240
    Total Energy =                       -230.9836944398523428
  Basis Set: 6-31G*
  Basis Set:
  Basis Set: 6-31G*
  Basis Set:
  @DF-RHF Final Energy:  -230.98369808882831
    Total Energy =                       -230.9836980888282483
  Basis Set: 6-31G*
  Basis Set:
  Basis Set: 6-31G*
  Basis Set:
  @DF-RHF Final Energy:  -230.98370304918836
    Total Energy =                       -230.9837030491883638
  Basis Set: 6-31G*
  Basis Set:
  Charge       = 0
  Multiplicity = 1
  Basis Set: 6-31G*
  Basis Set:

    Orbital Energies (a.u.)
    -----------------------

    Doubly Occupied:

       1A    -20.563705     2A    -11.327393     3A    -11.238445
       4A    -11.235580     5A    -11.214897     6A     -1.403412
       7A     -1.082859     8A     -0.971502     9A     -0.845362
      10A     -0.784907    11A     -0.673935    12A     -0.649928
      13A     -0.612730    14A     -0.593123    15A     -0.561195
      16A     -0.527946    17A     -0.503750    18A     -0.491693
      19A     -0.479596    20A     -0.409671

  @DF-RHF Final Energy:  -230.98370313123417

   => Energetics <=

    Nuclear Repulsion Energy =            175.2062798786766962
    One-Electron Energy =                -660.0367082857649166
    Two-Electron Energy =                 253.8467252758539985
    DFT Exchange-Correlation Energy =       0.0000000000000000
    Empirical Dispersion Energy =           0.0000000000000000
    PCM Polarization Energy =               0.0000000000000000
    EFP Energy =                            0.0000000000000000
    Total Energy =                       -230.9837031312342219
    Molecular point group: c1
  Basis Set: 6-31G*
  Basis Set:

  -Total Gradient:
     Atom            X                  Y                   Z
    ------   -----------------  -----------------  -----------------
       1       -0.000000773925     0.000008219657     0.000000786171
       2        0.001771925803     0.002291419107    -0.000139215668
       3       -0.001307470132    -0.002409752999    -0.000624986839
       4       -0.001114303777    -0.001352022823     0.000189917155
       5        0.000010559422     0.000011089275    -0.000014756379
       6        0.000648608897     0.001448917571     0.000585101634
       7        0.000000672438     0.000006814088     0.000005770867
       8       -0.000021076279    -0.000003638917    -0.000004126728
       9       -0.000001295711     0.000004528259    -0.000000089164
      10        0.000008713185    -0.000002410298    -0.000003752576
      11        0.000000408000     0.000001127370     0.000003995645
      12        0.000000449173    -0.000001785965     0.000001569509
      13        0.000003582908    -0.000002504325    -0.000000213627

  **** Optimization is complete! (in 7 steps) ****
    Final optimized geometry and variables:
    Molecular point group: c1

    Geometry (in Angstrom), charge = 0, multiplicity = 1:

    H            0.970453386661     0.366054593432     1.860884215590
    C            0.988042415085     0.263471782367     0.769541412146
    C           -0.073611607367     1.034854463018     0.025560771424
    O            1.781480731247    -0.455489962044     0.252548980685
    C           -1.396258351137     0.249142444613    -0.053525817423
    H            0.298007881570     1.266447007508    -0.966572709783
    H           -0.247126738866     1.972787151726     0.546887666297
    C           -1.323742444158    -0.989168866294    -0.946432904400
    H           -2.162945598875     0.920735135257    -0.427117642411
    H           -1.706589046707    -0.036171627939     0.949553092308
    H           -1.065637576332    -0.716624217615    -1.965068511418
    H           -2.282431178868    -1.497375289620    -0.970065556217
    H           -0.578510603680    -1.694476869181    -0.597444442416

  Mulliken Charges: (a.u.)
   Center  Symbol    Alpha    Beta     Spin     Total
       1     H     0.42969  0.42969  0.00000  0.14062
       2     C     2.83914  2.83914  0.00000  0.32173
       3     C     3.20208  3.20208  0.00000 -0.40416
       4     O     4.23560  4.23560  0.00000 -0.47120
       5     C     3.16407  3.16407  0.00000 -0.32814
       6     H     0.40050  0.40050  0.00000  0.19900
       7     H     0.41346  0.41346  0.00000  0.17307
       8     C     3.24159  3.24159  0.00000 -0.48318
       9     H     0.41216  0.41216  0.00000  0.17568
      10     H     0.41821  0.41821  0.00000  0.16358
      11     H     0.41751  0.41751  0.00000  0.16499
      12     H     0.41802  0.41802  0.00000  0.16396
      13     H     0.40798  0.40798  0.00000  0.18405

   Total alpha = 20.00000, Total beta = 20.00000, Total charge = -0.00000
