  ==> Input File <==

--------------------------------------------------------------------------
set {
	reference rhf
	basis cc-pvtz
}

set_num_threads( 4 )
memory 2 gb

molecule MOL {
0 1

H	 -0.874258	 1.929290	 -1.471886
C	 -1.468169	 1.187496	 -0.947812
O	 -0.775228	 0.000056	 -0.739966
H	 -2.323157	 0.945585	 -1.563138
H	 -1.830713	 1.624608	 -0.023081
C	 0.406133	 -0.000384	 0.036994
C	 1.526415	 -0.003194	 -0.997339
C	 0.498772	 1.259027	 0.900673
C	 0.495883	 -1.257378	 0.904465
H	 1.452279	 0.872071	 -1.630204
H	 1.451276	 -0.881020	 -1.626529
H	 2.497919	 -0.002741	 -0.517601
H	 0.368981	 2.144239	 0.289753
H	 1.470064	 1.313479	 1.377660
H	 -0.248448	 1.271586	 1.684297
H	 0.363971	 -2.144195	 0.296316
H	 1.467114	 -1.312636	 1.381470
H	 -0.251246	 -1.265768	 1.688235

	symmetry c1
}
set optking {
	frozen_dihedral = ("
		2 3 6 7
	")
}

ee = optimize('scf')
oeprop('DIPOLE', 'QUADRUPOLE', 'MULLIKEN_CHARGES')
f=open( 'psi4out.xyz', 'w' )
f.write( "18  " )
f.write( str(ee) + "\n" )
f.write( MOL.save_string_xyz() )
f.close()
--------------------------------------------------------------------------

    Molecular point group: c1
  Charge       = 0
  Multiplicity = 1
  Basis Set: CC-PVTZ
  Basis Set:
  @DF-RHF Final Energy:  -271.26926496668574
    Total Energy =                       -271.2692649666857392
    Molecular point group: c1
  Basis Set: CC-PVTZ
  Basis Set:
  Basis Set: CC-PVTZ
  Basis Set:
  @DF-RHF Final Energy:  -271.27170702779426
    Total Energy =                       -271.2717070277944913
  Basis Set: CC-PVTZ
  Basis Set:
  Basis Set: CC-PVTZ
  Basis Set:
  @DF-RHF Final Energy:  -271.27375568076360
    Total Energy =                       -271.2737556807637702
  Basis Set: CC-PVTZ
  Basis Set:
  Basis Set: CC-PVTZ
  Basis Set:
  @DF-RHF Final Energy:  -271.27383945152019
    Total Energy =                       -271.2738394515201321
  Basis Set: CC-PVTZ
  Basis Set:
  Basis Set: CC-PVTZ
  Basis Set:
  @DF-RHF Final Energy:  -271.27394730648950
    Total Energy =                       -271.2739473064895606
  Basis Set: CC-PVTZ
  Basis Set:
  Basis Set: CC-PVTZ
  Basis Set:
  @DF-RHF Final Energy:  -271.27396038609891
    Total Energy =                       -271.2739603860986790
  Basis Set: CC-PVTZ
  Basis Set:
  Charge       = 0
  Multiplicity = 1
  Basis Set: CC-PVTZ
  Basis Set:

    Orbital Energies (a.u.)
    -----------------------

    Doubly Occupied:

       1A    -20.538416     2A    -11.280428     3A    -11.259292
       4A    -11.211408     5A    -11.203278     6A    -11.201548
       7A     -1.370973     8A     -1.075294     9A     -0.951275
      10A     -0.936007    11A     -0.912441    12A     -0.752638
      13A     -0.657581    14A     -0.647888    15A     -0.639146
      16A     -0.586121    17A     -0.576194    18A     -0.551020
      19A     -0.539365    20A     -0.526793    21A     -0.515296
      22A     -0.491008    23A     -0.485140    24A     -0.443562
      25A     -0.400857

  @DF-RHF Final Energy:  -271.27396018674784

   => Energetics <=

    Nuclear Repulsion Energy =            272.2824382897856026
    One-Electron Energy =                -907.6068465268049295
    Two-Electron Energy =                 364.0504480502714841
    DFT Exchange-Correlation Energy =       0.0000000000000000
    Empirical Dispersion Energy =           0.0000000000000000
    PCM Polarization Energy =               0.0000000000000000
    EFP Energy =                            0.0000000000000000
    Total Energy =                       -271.2739601867477859
    Molecular point group: c1
  Basis Set: CC-PVTZ
  Basis Set:

  -Total Gradient:
     Atom            X                  Y                   Z
    ------   -----------------  -----------------  -----------------
       1       -0.000009773024    -0.000023747691    -0.000000491715
       2       -0.001653341920    -0.000440204091     0.002851297893
       3        0.002474783868    -0.000160651269    -0.004253563273
       4        0.000000488657    -0.000015370371    -0.000007419035
       5        0.000001575418    -0.000008545778     0.000018665236
       6       -0.000866113486     0.003400582205     0.001218387777
       7        0.000082294096    -0.002746853300     0.000168028064
       8        0.000016881177     0.000015570858     0.000005758662
       9       -0.000046800446     0.000008647205    -0.000022794827
      10       -0.000012477048    -0.000011125667    -0.000010843708
      11        0.000000423741    -0.000019420673     0.000012378853
      12        0.000003164519     0.000016682673    -0.000004684210
      13       -0.000002414065     0.000004853308     0.000009847274
      14        0.000007653640    -0.000010774425    -0.000010819835
      15        0.000019017129    -0.000017479766     0.000019230164
      16        0.000030161255     0.000010329643    -0.000019521002
      17       -0.000028667642     0.000039818349     0.000014363595
      18       -0.000016855871    -0.000042311209     0.000012180089

  **** Optimization is complete! (in 7 steps) ****
    Final optimized geometry and variables:
    Molecular point group: c1

    Geometry (in Angstrom), charge = 0, multiplicity = 1:

    H           -1.082835805881     1.659965879815    -1.355303455382
    C           -1.637904294011     0.913216555533    -0.793201354126
    O           -0.891192737984    -0.231939678142    -0.544186549490
    H           -2.484822218519     0.606488943409    -1.390710351748
    H           -2.011832338869     1.372483851104     0.115334676582
    C            0.336311219070    -0.168672680479     0.164519324307
    C            1.468735956210    -0.208254049294    -0.861464990614
    C            0.463391873500     1.057517678462     1.067441620397
    C            0.364672285171    -1.436128529454     1.014963438918
    H            1.434796878249     0.661703152641    -1.508180266225
    H            1.373406861417    -1.090752803686    -1.480684248298
    H            2.438247249158    -0.228240926391    -0.376526866272
    H            0.468544769124     1.983127993074     0.506231011974
    H            1.397609867159     0.999993689159     1.611845363065
    H           -0.339954781910     1.098657458662     1.792623035409
    H            0.230624707864    -2.306738995253     0.385896043805
    H            1.307535889263    -1.532374831458     1.541202924934
    H           -0.437205331985    -1.420718944071     1.742992573507

  Mulliken Charges: (a.u.)
   Center  Symbol    Alpha    Beta     Spin     Total
       1     H     0.47023  0.47023  0.00000  0.05955
       2     C     3.04231  3.04231  0.00000 -0.08461
       3     O     4.19690  4.19690  0.00000 -0.39381
       4     H     0.44270  0.44270  0.00000  0.11459
       5     H     0.46755  0.46755  0.00000  0.06490
       6     C     2.87198  2.87198  0.00000  0.25604
       7     C     3.14625  3.14625  0.00000 -0.29251
       8     C     3.17547  3.17547  0.00000 -0.35094
       9     C     3.14062  3.14062  0.00000 -0.28124
      10     H     0.45109  0.45109  0.00000  0.09782
      11     H     0.44810  0.44810  0.00000  0.10381
      12     H     0.45525  0.45525  0.00000  0.08950
      13     H     0.44434  0.44434  0.00000  0.11131
      14     H     0.44318  0.44318  0.00000  0.11365
      15     H     0.44508  0.44508  0.00000  0.10983
      16     H     0.44768  0.44768  0.00000  0.10465
      17     H     0.45930  0.45930  0.00000  0.08140
      18     H     0.45197  0.45197  0.00000  0.09605

   Total alpha = 25.00000, Total beta = 25.00000, Total charge = -0.00000
