  ==> Input File <==

--------------------------------------------------------------------------
set {
	reference rhf
	basis 6-31G*
}

set_num_threads( 1 )
memory 2 gb

molecule MOL {
0 1

O	 0.074228	 1.262779	 -0.000085
C	 0.028650	 0.075053	 -0.000277
C	 -1.233602	 -0.752807	 0.000328
O	 1.109162	 -0.694619	 -0.000298
C	 -2.501530	 0.091881	 0.000126
H	 -1.193807	 -1.406641	 -0.865785
H	 -1.193516	 -1.405779	 0.867015
H	 -2.545121	 0.729328	 -0.874513
H	 -3.377167	 -0.548497	 0.000561
H	 -2.544818	 0.730135	 0.874258
C	 2.102947	 -0.407057	 -0.967401
H	 1.700670	 -0.503575	 -1.965535
H	 2.887236	 -1.130616	 -0.808606
H	 2.484763	 0.594818	 -0.833482

	symmetry c1
}
set optking {
	frozen_dihedral = ("
		4 2 3 6
	")
}

ee = energy('scf')
oeprop('DIPOLE', 'QUADRUPOLE', 'MULLIKEN_CHARGES')
f=open( 'psi4out.xyz', 'w' )
f.write( "14  " )
f.write( str(ee) + "\n" )
f.write( MOL.save_string_xyz() )
f.close()
--------------------------------------------------------------------------

    Molecular point group: c1

    Geometry (in Angstrom), charge = 0, multiplicity = 1:

       Center              X                  Y                   Z               Mass
    ------------   -----------------  -----------------  -----------------  -----------------
           O          0.121081339599     1.328550363817     0.173074546943    15.994914619560
           C          0.075503339599     0.140824363817     0.172882546943    12.000000000000
           C         -1.186748660401    -0.687035636183     0.173487546943    12.000000000000
           O          1.156015339599    -0.628847636183     0.172861546943    15.994914619560
           C         -2.454676660401     0.157652363817     0.173285546943    12.000000000000
           H         -1.146953660401    -1.340869636183    -0.692625453057     1.007825032070
           H         -1.146662660401    -1.340007636183     1.040174546943     1.007825032070
           H         -2.498267660401     0.795099363817    -0.701353453057     1.007825032070
           H         -3.330313660401    -0.482725636183     0.173720546943     1.007825032070
           H         -2.497964660401     0.795906363817     1.047417546943     1.007825032070
           C          2.149800339599    -0.341285636183    -0.794241453057    12.000000000000
           H          1.747523339599    -0.437803636183    -1.792375453057     1.007825032070
           H          2.934089339599    -1.064844636183    -0.635446453057     1.007825032070
           H          2.531616339599     0.660589363817    -0.660322453057     1.007825032070

  Charge       = 0
  Multiplicity = 1
  Basis Set: 6-31G*
  Basis Set:

    Orbital Energies (a.u.)
    -----------------------

    Doubly Occupied:

       1A    -20.593936     2A    -20.551065     3A    -11.373749
       4A    -11.287918     5A    -11.239142     6A    -11.216569
       7A     -1.467049     8A     -1.365162     9A     -1.063141
      10A     -0.981242    11A     -0.883067    12A     -0.769232
      13A     -0.700164    14A     -0.680572    15A     -0.672403
      16A     -0.620226    17A     -0.610075    18A     -0.552775
      19A     -0.540316    20A     -0.522020    21A     -0.509582
      22A     -0.494558    23A     -0.455420    24A     -0.436728

  @DF-RHF Final Energy:  -305.86026754637095

   => Energetics <=

    Nuclear Repulsion Energy =            247.1105434847702895
    One-Electron Energy =                -906.7694531201202608
    Two-Electron Energy =                 353.7986420889793635
    DFT Exchange-Correlation Energy =       0.0000000000000000
    Empirical Dispersion Energy =           0.0000000000000000
    PCM Polarization Energy =               0.0000000000000000
    EFP Energy =                            0.0000000000000000
    Total Energy =                       -305.8602675463706646

  Mulliken Charges: (a.u.)
   Center  Symbol    Alpha    Beta     Spin     Total
       1     O     4.27233  4.27233  0.00000 -0.54467
       2     C     2.60991  2.60991  0.00000  0.78019
       3     C     3.20674  3.20674  0.00000 -0.41348
       4     O     4.30902  4.30902  0.00000 -0.61805
       5     C     3.23984  3.23984  0.00000 -0.47968
       6     H     0.40438  0.40438  0.00000  0.19124
       7     H     0.39876  0.39876  0.00000  0.20247
       8     H     0.41093  0.41093  0.00000  0.17814
       9     H     0.41823  0.41823  0.00000  0.16353
      10     H     0.40902  0.40902  0.00000  0.18196
      11     C     3.09494  3.09494  0.00000 -0.18989
      12     H     0.41816  0.41816  0.00000  0.16368
      13     H     0.40531  0.40531  0.00000  0.18938
      14     H     0.40241  0.40241  0.00000  0.19518

   Total alpha = 24.00000, Total beta = 24.00000, Total charge =  0.00000
