  ==> Input File <==

--------------------------------------------------------------------------
set {
	reference rhf
	basis 6-31G*
}

set_num_threads( 1 )
memory 2 gb

molecule MOL {
0 1

O	 3.594395	 0.154676	 -0.926915
C	 2.843464	 0.164689	 -0.000222
C	 1.546494	 -0.624492	 -0.000609
C	 3.139491	 0.972896	 1.246504
C	 0.291004	 0.242674	 0.000989
H	 1.557904	 -1.283758	 -0.867573
H	 1.558622	 -1.285963	 0.864672
C	 -0.994322	 -0.586602	 0.000262
H	 0.309117	 0.896430	 -0.865270
H	 0.309661	 0.894078	 0.869017
C	 -2.259874	 0.272531	 0.000494
H	 -1.004862	 -1.240012	 -0.870939
H	 -1.005220	 -1.241071	 0.870675
C	 -3.549786	 -0.549746	 -0.000374
H	 -2.250389	 0.926680	 -0.869574
H	 -2.250838	 0.925513	 0.871430
C	 -4.809590	 0.315458	 -0.000369
H	 -3.560515	 -1.202009	 -0.871156
H	 -3.561123	 -1.202955	 0.869711
H	 -4.844746	 0.956611	 -0.876632
H	 -5.706986	 -0.295590	 -0.001609
H	 -4.845960	 0.954827	 0.877144
H	 3.182768	 0.324759	 2.116943
H	 4.083507	 1.487292	 1.132199
H	 2.350680	 1.698143	 1.423784

	symmetry c1
}
set optking {
	frozen_dihedral = ("
		9 5 8 12,
		15 11 8 12,
		15 11 14 18,
		9 5 3 6
	")
}

ee = energy('scf')
oeprop('DIPOLE', 'QUADRUPOLE', 'MULLIKEN_CHARGES')
f=open( 'psi4out.xyz', 'w' )
f.write( "25  " )
f.write( str(ee) + "\n" )
f.write( MOL.save_string_xyz() )
f.close()
--------------------------------------------------------------------------

    Molecular point group: c1

    Geometry (in Angstrom), charge = 0, multiplicity = 1:

       Center              X                  Y                   Z               Mass
    ------------   -----------------  -----------------  -----------------  -----------------
           O          3.624261119683     0.105611304119    -0.964719841905    15.994914619560
           C          2.873330119683     0.115624304119    -0.038026841905    12.000000000000
           C          1.576360119683    -0.673556695881    -0.038413841905    12.000000000000
           C          3.169357119683     0.923831304119     1.208699158095    12.000000000000
           C          0.320870119683     0.193609304119    -0.036815841905    12.000000000000
           H          1.587770119683    -1.332822695881    -0.905377841905     1.007825032070
           H          1.588488119683    -1.335027695881     0.826867158095     1.007825032070
           C         -0.964455880317    -0.635666695881    -0.037542841905    12.000000000000
           H          0.338983119683     0.847365304119    -0.903074841905     1.007825032070
           H          0.339527119683     0.845013304119     0.831212158095     1.007825032070
           C         -2.230007880317     0.223466304119    -0.037310841905    12.000000000000
           H         -0.974995880317    -1.289076695881    -0.908743841905     1.007825032070
           H         -0.975353880317    -1.290135695881     0.832870158095     1.007825032070
           C         -3.519919880317    -0.598810695881    -0.038178841905    12.000000000000
           H         -2.220522880317     0.877615304119    -0.907378841905     1.007825032070
           H         -2.220971880317     0.876448304119     0.833625158095     1.007825032070
           C         -4.779723880317     0.266393304119    -0.038173841905    12.000000000000
           H         -3.530648880317    -1.251073695881    -0.908960841905     1.007825032070
           H         -3.531256880317    -1.252019695881     0.831906158095     1.007825032070
           H         -4.814879880317     0.907546304119    -0.914436841905     1.007825032070
           H         -5.677119880317    -0.344654695881    -0.039413841905     1.007825032070
           H         -4.816093880317     0.905762304119     0.839339158095     1.007825032070
           H          3.212634119683     0.275694304119     2.079138158095     1.007825032070
           H          4.113373119683     1.438227304119     1.094394158095     1.007825032070
           H          2.380546119683     1.649078304119     1.385979158095     1.007825032070

  Charge       = 0
  Multiplicity = 1
  Basis Set: 6-31G*
  Basis Set:

    Orbital Energies (a.u.)
    -----------------------

    Doubly Occupied:

       1A    -20.548806     2A    -11.324397     3A    -11.232329
       4A    -11.229270     5A    -11.226742     6A    -11.224706
       7A    -11.220377     8A    -11.219777     9A    -11.212340
      10A     -1.393492    11A     -1.102310    12A     -1.062095
      13A     -1.011938    14A     -0.970633    15A     -0.896632
      16A     -0.822202    17A     -0.797608    18A     -0.732621
      19A     -0.667895    20A     -0.648064    21A     -0.638097
      22A     -0.613716    23A     -0.606032    24A     -0.588579
      25A     -0.565956    26A     -0.558547    27A     -0.545288
      28A     -0.537758    29A     -0.508744    30A     -0.502822
      31A     -0.487822    32A     -0.479521    33A     -0.469974
      34A     -0.468535    35A     -0.457314    36A     -0.395871

  @DF-RHF Final Energy:  -387.13338733996108

   => Energetics <=

    Nuclear Repulsion Energy =            439.1075766662189039
    One-Electron Energy =               -1394.5444404219738317
    Two-Electron Energy =                 568.3034764157952168
    DFT Exchange-Correlation Energy =       0.0000000000000000
    Empirical Dispersion Energy =           0.0000000000000000
    PCM Polarization Energy =               0.0000000000000000
    EFP Energy =                            0.0000000000000000
    Total Energy =                       -387.1333873399597678

  Mulliken Charges: (a.u.)
   Center  Symbol    Alpha    Beta     Spin     Total
       1     O     4.25970  4.25970  0.00000 -0.51940
       2     C     2.73399  2.73399  0.00000  0.53202
       3     C     3.20443  3.20443  0.00000 -0.40887
       4     C     3.29086  3.29086  0.00000 -0.58171
       5     C     3.16356  3.16356  0.00000 -0.32712
       6     H     0.40057  0.40057  0.00000  0.19887
       7     H     0.41465  0.41465  0.00000  0.17070
       8     C     3.15222  3.15222  0.00000 -0.30444
       9     H     0.41165  0.41165  0.00000  0.17670
      10     H     0.41953  0.41953  0.00000  0.16095
      11     C     3.15159  3.15159  0.00000 -0.30318
      12     H     0.41905  0.41905  0.00000  0.16190
      13     H     0.42206  0.42206  0.00000  0.15589
      14     C     3.15206  3.15206  0.00000 -0.30412
      15     H     0.42203  0.42203  0.00000  0.15595
      16     H     0.42375  0.42375  0.00000  0.15251
      17     C     3.23958  3.23958  0.00000 -0.47916
      18     H     0.42191  0.42191  0.00000  0.15618
      19     H     0.42280  0.42280  0.00000  0.15439
      20     H     0.42102  0.42102  0.00000  0.15796
      21     H     0.41841  0.41841  0.00000  0.16318
      22     H     0.42165  0.42165  0.00000  0.15671
      23     H     0.40911  0.40911  0.00000  0.18178
      24     H     0.39655  0.39655  0.00000  0.20689
      25     H     0.40729  0.40729  0.00000  0.18542

   Total alpha = 36.00000, Total beta = 36.00000, Total charge =  0.00000
