  ==> Input File <==

--------------------------------------------------------------------------
set {
	reference rhf
	basis 6-31G*
}

set_num_threads( 1 )
memory 2 gb

molecule MOL {
0 1

H	 1.052357	 -1.098691	 -0.793056
O	 1.247181	 -0.198320	 -1.014931
C	 0.709265	 0.639550	 -0.033818
C	 -0.793441	 0.596080	 0.058728
H	 1.029690	 1.644191	 -0.285268
H	 1.133950	 0.413246	 0.943655
C	 -1.530462	 -0.493172	 -0.025500
H	 -1.268471	 1.554324	 0.202247
H	 -1.092586	 -1.461565	 -0.186463
H	 -2.602122	 -0.450675	 0.050101

	symmetry c1
}
set optking {
	frozen_dihedral = ("
		5 3 2 1,
		3 4 7 9
	")
}

ee = energy('scf')
oeprop('DIPOLE', 'QUADRUPOLE', 'MULLIKEN_CHARGES')
f=open( 'psi4out.xyz', 'w' )
f.write( "10  " )
f.write( str(ee) + "\n" )
f.write( MOL.save_string_xyz() )
f.close()
--------------------------------------------------------------------------

    Molecular point group: c1

    Geometry (in Angstrom), charge = 0, multiplicity = 1:

       Center              X                  Y                   Z               Mass
    ------------   -----------------  -----------------  -----------------  -----------------
           H          1.072824229109    -1.207972741157    -0.512049575076     1.007825032070
           O          1.267648229109    -0.307601741157    -0.733924575076    15.994914619560
           C          0.729732229109     0.530268258843     0.247188424924    12.000000000000
           C         -0.772973770891     0.486798258843     0.339734424924    12.000000000000
           H          1.050157229109     1.534909258843    -0.004261575076     1.007825032070
           H          1.154417229109     0.303964258843     1.224661424924     1.007825032070
           C         -1.509994770891    -0.602453741157     0.255506424924    12.000000000000
           H         -1.248003770891     1.445042258843     0.483253424924     1.007825032070
           H         -1.072118770891    -1.570846741157     0.094543424924     1.007825032070
           H         -2.581654770891    -0.559956741157     0.331107424924     1.007825032070

  Charge       = 0
  Multiplicity = 1
  Basis Set: 6-31G*
  Basis Set:

    Orbital Energies (a.u.)
    -----------------------

    Doubly Occupied:

       1A    -20.558591     2A    -11.277042     3A    -11.232634
       4A    -11.225028     5A     -1.367572     6A     -1.061091
       7A     -0.929200     8A     -0.768497     9A     -0.698153
      10A     -0.654546    11A     -0.622295    12A     -0.571573
      13A     -0.531154    14A     -0.503427    15A     -0.440327
      16A     -0.368395

  @DF-RHF Final Energy:  -191.91135312911354

   => Energetics <=

    Nuclear Repulsion Energy =            119.0293695039831476
    One-Electron Energy =                -496.2624129380990325
    Two-Electron Energy =                 185.3216903050026474
    DFT Exchange-Correlation Energy =       0.0000000000000000
    Empirical Dispersion Energy =           0.0000000000000000
    PCM Polarization Energy =               0.0000000000000000
    EFP Energy =                            0.0000000000000000
    Total Energy =                       -191.9113531291132233

  Mulliken Charges: (a.u.)
   Center  Symbol    Alpha    Beta     Spin     Total
       1     H     0.27988  0.27988  0.00000  0.44024
       2     O     4.36325  4.36325  0.00000 -0.72649
       3     C     3.00874  3.00874  0.00000 -0.01748
       4     C     3.08194  3.08194  0.00000 -0.16387
       5     H     0.41159  0.41159  0.00000  0.17683
       6     H     0.42249  0.42249  0.00000  0.15503
       7     C     3.19623  3.19623  0.00000 -0.39247
       8     H     0.40706  0.40706  0.00000  0.18588
       9     H     0.42156  0.42156  0.00000  0.15688
      10     H     0.40727  0.40727  0.00000  0.18545

   Total alpha = 16.00000, Total beta = 16.00000, Total charge = -0.00000
