  ==> Input File <==

--------------------------------------------------------------------------
set {
	reference rhf
	basis 6-31G*
}

set_num_threads( 4 )
memory 2 gb

molecule MOL {
0 1

H	 -2.798360	 -0.862255	 -0.071053
N	 -1.863561	 -0.715187	 0.256814
C	 -1.344686	 0.554728	 -0.219830
H	 -1.300452	 -1.461917	 -0.101532
C	 0.081427	 0.741154	 0.254071
H	 -1.362155	 0.656231	 -1.305829
H	 -1.952773	 1.354456	 0.191809
O	 0.507110	 2.017892	 -0.127795
H	 0.134854	 0.637231	 1.337576
H	 0.717989	 -0.018549	 -0.194119
C	 1.838306	 2.292930	 0.171943
H	 2.049586	 3.298474	 -0.165607
H	 2.025265	 2.235301	 1.242787
H	 2.510450	 1.602490	 -0.333353

	symmetry c1
}
set optking {
	frozen_dihedral = ("
		8 5 3 6
	")
}

ee = optimize('scf')
oeprop('DIPOLE', 'QUADRUPOLE', 'MULLIKEN_CHARGES')
f=open( 'psi4out.xyz', 'w' )
f.write( "14  " )
f.write( str(ee) + "\n" )
f.write( MOL.save_string_xyz() )
f.close()
--------------------------------------------------------------------------

    Molecular point group: c1
  Charge       = 0
  Multiplicity = 1
  Basis Set: 6-31G*
  Basis Set:
  @DF-RHF Final Energy:  -248.12276467319489
    Total Energy =                       -248.1227646731946948
    Molecular point group: c1
  Basis Set: 6-31G*
  Basis Set:
  Basis Set: 6-31G*
  Basis Set:
  @DF-RHF Final Energy:  -248.12326294757631
    Total Energy =                       -248.1232629475761655
  Basis Set: 6-31G*
  Basis Set:
  Basis Set: 6-31G*
  Basis Set:
  @DF-RHF Final Energy:  -248.12337357929530
    Total Energy =                       -248.1233735792953325
  Basis Set: 6-31G*
  Basis Set:
  Basis Set: 6-31G*
  Basis Set:
  @DF-RHF Final Energy:  -248.12338507048366
    Total Energy =                       -248.1233850704836641
  Basis Set: 6-31G*
  Basis Set:
  Charge       = 0
  Multiplicity = 1
  Basis Set: 6-31G*
  Basis Set:

    Orbital Energies (a.u.)
    -----------------------

    Doubly Occupied:

       1A    -20.554214     2A    -15.538574     3A    -11.264211
       4A    -11.263103     5A    -11.240967     6A     -1.379088
       7A     -1.180825     8A     -0.998662     9A     -0.899468
      10A     -0.822329    11A     -0.684204    12A     -0.666924
      13A     -0.648599    14A     -0.621968    15A     -0.594700
      16A     -0.559749    17A     -0.515409    18A     -0.497857
      19A     -0.468892    20A     -0.414118    21A     -0.387886

  @DF-RHF Final Energy:  -248.12338574526430

   => Energetics <=

    Nuclear Repulsion Energy =            190.8427550311692755
    One-Electron Energy =                -715.5287838897136226
    Two-Electron Energy =                 276.5626431132799325
    DFT Exchange-Correlation Energy =       0.0000000000000000
    Empirical Dispersion Energy =           0.0000000000000000
    PCM Polarization Energy =               0.0000000000000000
    EFP Energy =                            0.0000000000000000
    Total Energy =                       -248.1233857452643861
    Molecular point group: c1
  Basis Set: 6-31G*
  Basis Set:

  -Total Gradient:
     Atom            X                  Y                   Z
    ------   -----------------  -----------------  -----------------
       1       -0.000003916214     0.000002178643    -0.000002990985
       2       -0.000006907574    -0.000046632078     0.000047136809
       3       -0.000440199759     0.002182904434     0.000423377136
       4        0.000003299765     0.000006009217    -0.000004041889
       5        0.000653743245    -0.000943970436    -0.001501963019
       6        0.000253890562    -0.001619666311    -0.000139727863
       7       -0.000007201191     0.000007303201    -0.000001075091
       8       -0.000449846053     0.000413755596     0.001135932627
       9        0.000012297373    -0.000006924336     0.000034083935
      10       -0.000009534114     0.000009588905     0.000003148367
      11        0.000012065891     0.000001928633     0.000018123802
      12       -0.000008954176    -0.000005223299    -0.000006238290
      13        0.000000666751    -0.000001522184    -0.000003057567
      14       -0.000009404510     0.000000270015    -0.000002707974

  **** Optimization is complete! (in 5 steps) ****
    Final optimized geometry and variables:
    Molecular point group: c1

    Geometry (in Angstrom), charge = 0, multiplicity = 1:

    H           -2.690686875608    -1.757409589434     0.085132179106
    N           -1.699482899426    -1.696962483089     0.211096958104
    C           -1.193873279317    -0.425288330024    -0.286522536936
    H           -1.297369123304    -2.462677929015    -0.295267177857
    C            0.239031511752    -0.230481332381     0.173862656046
    H           -1.232419733051    -0.338344165489    -1.372083684970
    H           -1.797301493651     0.373411115011     0.127293522250
    O            0.660248407315     1.038806443722    -0.224245070953
    H            0.286331514870    -0.332185645687     1.255761643024
    H            0.884588951047    -0.997986501662    -0.256292650746
    C            1.965450563703     1.350318803770     0.143691524068
    H            2.176064251923     2.350198794589    -0.210563914028
    H            2.091483355167     1.325460858061     1.224464550796
    H            2.680752675881     0.661234452115    -0.302055996473

  Mulliken Charges: (a.u.)
   Center  Symbol    Alpha    Beta     Spin     Total
       1     H     0.32890  0.32890  0.00000  0.34220
       2     N     3.92745  3.92745  0.00000 -0.85490
       3     C     3.07445  3.07445  0.00000 -0.14890
       4     H     0.33374  0.33374  0.00000  0.33252
       5     C     2.98106  2.98106  0.00000  0.03788
       6     H     0.42509  0.42509  0.00000  0.14983
       7     H     0.41176  0.41176  0.00000  0.17647
       8     O     4.30830  4.30830  0.00000 -0.61660
       9     H     0.42208  0.42208  0.00000  0.15584
      10     H     0.43633  0.43633  0.00000  0.12734
      11     C     3.07907  3.07907  0.00000 -0.15815
      12     H     0.41239  0.41239  0.00000  0.17521
      13     H     0.42899  0.42899  0.00000  0.14201
      14     H     0.43038  0.43038  0.00000  0.13924

   Total alpha = 21.00000, Total beta = 21.00000, Total charge =  0.00000
