                              Psi4 1.0.54 Driver

  ==> Input File <==

--------------------------------------------------------------------------
set {
	reference rhf
	basis cc-pvtz
}

set_num_threads( 4 )
memory 2 gb

molecule MOL {
0 1

H	 -1.088256	 -1.364742	 0.152233
O	 -1.432053	 -0.565244	 -0.200812
C	 -0.727158	 0.534527	 0.310686
C	 0.680222	 0.664433	 -0.252229
H	 -1.306802	 1.408001	 0.044211
H	 -0.690821	 0.490158	 1.397609
C	 1.435357	 1.892419	 0.247638
H	 1.236396	 -0.233742	 -0.004874
H	 0.605483	 0.702645	 -1.335559
H	 1.582435	 1.859664	 1.321612
H	 2.416501	 1.956447	 -0.207126
H	 0.901347	 2.807080	 0.008505

	symmetry c1
}
set optking {
	frozen_dihedral = ("
		8 4 3 2
	")
}

ee,wfn = optimize('scf', return_wfn=True)
oeprop( wfn, 'DIPOLE', 'QUADRUPOLE', 'MULLIKEN_CHARGES')
f=open( 'psi4out.xyz', 'w' )
f.write( "12  " )
f.write( str(ee) + "\n" )
f.write( MOL.save_string_xyz() )
f.close()
--------------------------------------------------------------------------

    Molecular point group: c1
  Charge       = 0
  Multiplicity = 1
  Basis Set: CC-PVTZ
  Basis Set:
  @DF-RHF Final Energy:  -193.19092128527913
    Total Energy =                       -193.1909212852789892
    Molecular point group: c1
  Basis Set: CC-PVTZ
  Basis Set:
  Basis Set: CC-PVTZ
  Basis Set:
  @DF-RHF Final Energy:  -193.19113175977012
    Total Energy =                       -193.1911317597701441
  Basis Set: CC-PVTZ
  Basis Set:
  Basis Set: CC-PVTZ
  Basis Set:
  @DF-RHF Final Energy:  -193.19118296462969
    Total Energy =                       -193.1911829646298315
  Basis Set: CC-PVTZ
  Basis Set:
  Basis Set: CC-PVTZ
  Basis Set:
  @DF-RHF Final Energy:  -193.19118876802142
    Total Energy =                       -193.1911887680215045
  Basis Set: CC-PVTZ
  Basis Set:
  Charge       = 0
  Multiplicity = 1
  Basis Set: CC-PVTZ
  Basis Set:

    Orbital Energies (a.u.)
    -----------------------

    Doubly Occupied:

       1A    -20.546103     2A    -11.265651     3A    -11.217793
       4A    -11.214266     5A     -1.364349     6A     -1.054621
       7A     -0.919407     8A     -0.819933     9A     -0.696058
      10A     -0.636805    11A     -0.599930    12A     -0.587792
      13A     -0.546677    14A     -0.501710    15A     -0.499824
      16A     -0.469755    17A     -0.432878

  @DF-RHF Final Energy:  -193.19118904682111

   => Energetics <=

    Nuclear Repulsion Energy =            131.1871758666149219
    One-Electron Energy =                -522.0096242977153906
    Two-Electron Energy =                 197.6312593842793603
    DFT Exchange-Correlation Energy =       0.0000000000000000
    Empirical Dispersion Energy =           0.0000000000000000
    PCM Polarization Energy =               0.0000000000000000
    EFP Energy =                            0.0000000000000000
    Total Energy =                       -193.1911890468211368
    Molecular point group: c1
  Basis Set: CC-PVTZ
  Basis Set:

  -Total Gradient:
     Atom            X                  Y                   Z
    ------   -----------------  -----------------  -----------------
       1       -0.000016163285     0.000018308556    -0.000008186306
       2        0.000004697539    -0.000071272253     0.000014512862
       3        0.000018205394     0.000039494087    -0.000001003617
       4        0.000018172966     0.000056372771     0.000046703982
       5        0.000012213957    -0.000017292064    -0.000017686314
       6       -0.000003485948     0.000018305598     0.000015657415
       7        0.000010187450    -0.000022116423     0.000014809069
       8       -0.000027295355    -0.000023069441    -0.000052086167
       9       -0.000001379790    -0.000005802379    -0.000014616775
      10       -0.000000848912    -0.000000107079     0.000004881055
      11       -0.000009884051     0.000001307271     0.000010029977
      12       -0.000004419965     0.000005871354    -0.000013015181

  **** Optimization is complete! (in 5 steps) ****
    Final optimized geometry and variables:
    Molecular point group: c1

    Geometry (in Angstrom), charge = 0, multiplicity = 1:

    H           -0.964032784960    -1.947915690645     0.042088789128
    O           -1.392922858968    -1.149491594598    -0.206932080886
    C           -0.678400196900    -0.049188254619     0.285590727722
    C            0.719602998438     0.059284742789    -0.301014820251
    H           -1.259277912245     0.825338142301     0.021689280563
    H           -0.624694448866    -0.083302693458     1.372057359756
    C            1.473422173573     1.283639070467     0.206646844071
    H            1.278925162973    -0.840785765845    -0.055244225802
    H            0.639776029548     0.089640903569    -1.382362972444
    H            1.583152327279     1.260471597144     1.285764688996
    H            2.465810489805     1.336262323656    -0.224081253981
    H            0.952657628806     2.199269296340    -0.052605918685

  Mulliken Charges: (a.u.)
   Center  Symbol    Alpha    Beta     Spin     Total
       1     H     0.39489  0.39489  0.00000  0.21021
       2     O     4.20121  4.20121  0.00000 -0.40243
       3     C     2.96635  2.96635  0.00000  0.06730
       4     C     3.08754  3.08754  0.00000 -0.17508
       5     H     0.45560  0.45560  0.00000  0.08879
       6     H     0.47272  0.47272  0.00000  0.05456
       7     C     3.15310  3.15310  0.00000 -0.30620
       8     H     0.46292  0.46292  0.00000  0.07416
       9     H     0.44941  0.44941  0.00000  0.10118
      10     H     0.45582  0.45582  0.00000  0.08835
      11     H     0.44689  0.44689  0.00000  0.10621
      12     H     0.45353  0.45353  0.00000  0.09294

   Total alpha = 17.00000, Total beta = 17.00000, Total charge = -0.00000

*** Psi4 exiting successfully. Buy a developer a beer!
