  ==> Input File <==

--------------------------------------------------------------------------
set {
	reference rhf
	basis cc-pvtz
}

set_num_threads( 4 )
memory 2 gb

molecule MOL {
0 1

H	 -2.090593	 0.067670	 -0.368260
C	 -1.189514	 -0.484952	 -0.209524
C	 -1.182031	 -1.865052	 -0.208236
C	 0.000000	 0.179985	 0.000046
H	 -2.096652	 -2.400793	 -0.369374
C	 0.000001	 -2.552036	 -0.000013
N	 0.000000	 1.644631	 0.000076
C	 1.189514	 -0.484961	 0.209590
H	 0.000000	 -3.625035	 -0.000032
C	 1.182032	 -1.865061	 0.208242
O	 1.050559	 2.194174	 -0.000073
O	 -1.050559	 2.194174	 -0.000074
H	 2.090595	 0.067655	 0.368340
H	 2.096652	 -2.400808	 0.369362

	symmetry c1
}
set optking {
	frozen_dihedral = ("
		2 4 7 11
	")
}

ee = optimize('scf')
oeprop('DIPOLE', 'QUADRUPOLE', 'MULLIKEN_CHARGES')
f=open( 'psi4out.xyz', 'w' )
f.write( "14  " )
f.write( str(ee) + "\n" )
f.write( MOL.save_string_xyz() )
f.close()
--------------------------------------------------------------------------

    Molecular point group: c1
  Charge       = 0
  Multiplicity = 1
  Basis Set: CC-PVTZ
  Basis Set:
  @DF-RHF Final Energy:  -434.32992158261999
    Total Energy =                       -434.3299215826202726
    Molecular point group: c1
  Basis Set: CC-PVTZ
  Basis Set:
  Basis Set: CC-PVTZ
  Basis Set:
  @DF-RHF Final Energy:  -434.32847685311674
    Total Energy =                       -434.3284768531161717
  Basis Set: CC-PVTZ
  Basis Set:
  Basis Set: CC-PVTZ
  Basis Set:
  @DF-RHF Final Energy:  -434.32992501797872
    Total Energy =                       -434.3299250179786668
  Basis Set: CC-PVTZ
  Basis Set:
  Charge       = 0
  Multiplicity = 1
  Basis Set: CC-PVTZ
  Basis Set:

    Orbital Energies (a.u.)
    -----------------------

    Doubly Occupied:

       1A    -20.591840     2A    -20.591777     3A    -15.847736
       4A    -11.302503     5A    -11.267250     6A    -11.267209
       7A    -11.264739     8A    -11.258270     9A    -11.258132
      10A     -1.641233    11A     -1.423594    12A     -1.204607
      13A     -1.095751    14A     -1.055096    15A     -0.959473
      16A     -0.867261    17A     -0.829007    18A     -0.789380
      19A     -0.740755    20A     -0.735314    21A     -0.711716
      22A     -0.659649    23A     -0.651971    24A     -0.626431
      25A     -0.555417    26A     -0.541045    27A     -0.531380
      28A     -0.492377    29A     -0.491620    30A     -0.457586
      31A     -0.377590    32A     -0.369337

  @DF-RHF Final Energy:  -434.32993644943281

   => Energetics <=

    Nuclear Repulsion Energy =            418.2258558037930243
    One-Electron Energy =               -1420.1974935524513057
    Two-Electron Energy =                 567.6417012992253603
    DFT Exchange-Correlation Energy =       0.0000000000000000
    Empirical Dispersion Energy =           0.0000000000000000
    PCM Polarization Energy =               0.0000000000000000
    EFP Energy =                            0.0000000000000000
    Total Energy =                       -434.3299364494329211
    Molecular point group: c1
  Basis Set: CC-PVTZ
  Basis Set:

  -Total Gradient:
     Atom            X                  Y                   Z
    ------   -----------------  -----------------  -----------------
       1       -0.000009233203     0.000003558109     0.000006791884
       2        0.000160144039    -0.000007029730    -0.000792319300
       3       -0.000006994182     0.000010614814     0.000042757973
       4       -0.000200822941    -0.000011793122     0.000772626851
       5        0.000000722651     0.000001648478    -0.000006367804
       6        0.000017924757    -0.000002747878    -0.000050425906
       7        0.000057616279    -0.000032976769     0.000932894835
       8       -0.000007705750    -0.000001135906     0.000001209690
       9       -0.000002371577     0.000001808547     0.000006666199
      10       -0.000014612341    -0.000008418131     0.000024823060
      11       -0.000026723418     0.000039923057    -0.000917428097
      12        0.000031567041     0.000010561077    -0.000016624658
      13        0.000000456926    -0.000005382710    -0.000007902283
      14        0.000000031719     0.000001370164     0.000003297556

  **** Optimization is complete! (in 4 steps) ****
    Final optimized geometry and variables:
    Molecular point group: c1

    Geometry (in Angstrom), charge = 0, multiplicity = 1:

    H           -2.091856495372     0.068774212138    -0.359031158861
    C           -1.190232418607    -0.484245247337    -0.204163747949
    C           -1.181700064220    -1.864319938375    -0.209236400705
    C           -0.000923699093     0.179944441628     0.006947377354
    H           -2.095405562192    -2.400065499498    -0.375375562112
    C            0.000232365947    -2.551286857233    -0.000793629020
    N            0.000001733713     1.644057385765     0.000718918468
    C            1.189744105890    -0.484431247996     0.209836068201
    H            0.000557793288    -3.624246763208    -0.003148182166
    C            1.181885393306    -1.864499640431     0.209980882381
    O            1.051210976201     2.192525981450     0.002070815165
    O           -1.050543862715     2.193653031660    -0.011985461820
    H            2.091655481536     0.068446403672     0.363487633571
    H            2.096276278332    -2.400412551813     0.371755613408

  Mulliken Charges: (a.u.)
   Center  Symbol    Alpha    Beta     Spin     Total
       1     H     0.39943  0.39943  0.00000  0.20115
       2     C     3.07749  3.07749  0.00000 -0.15498
       3     C     3.07217  3.07217  0.00000 -0.14434
       4     C     2.97886  2.97886  0.00000  0.04229
       5     H     0.41694  0.41694  0.00000  0.16612
       6     C     3.06468  3.06468  0.00000 -0.12936
       7     N     3.25407  3.25407  0.00000  0.49187
       8     C     3.07729  3.07729  0.00000 -0.15457
       9     H     0.41709  0.41709  0.00000  0.16582
      10     C     3.07215  3.07215  0.00000 -0.14429
      11     O     4.17663  4.17663  0.00000 -0.35326
      12     O     4.17674  4.17674  0.00000 -0.35348
      13     H     0.39953  0.39953  0.00000  0.20095
      14     H     0.41695  0.41695  0.00000  0.16611

   Total alpha = 32.00000, Total beta = 32.00000, Total charge =  0.00000
