  ==> Input File <==

--------------------------------------------------------------------------
set {
	reference rhf
	basis cc-pvtz
}

set_num_threads( 4 )
memory 2 gb

molecule MOL {
0 1

H	 0.044439	 -5.891626	 1.638033
C	 0.366469	 -4.928564	 1.259988
C	 -0.809072	 -3.964892	 1.141276
H	 1.121044	 -4.544022	 1.938060
H	 0.840719	 -5.093638	 0.298294
C	 -0.401240	 -2.597826	 0.612342
H	 -1.284249	 -3.835560	 2.107322
H	 -1.560413	 -4.393347	 0.482118
N	 -1.533402	 -1.700194	 0.533595
H	 0.330825	 -2.157959	 1.282989
H	 0.098572	 -2.717436	 -0.353559
C	 -1.215959	 -0.382435	 0.027143
H	 -2.251651	 -2.111868	 -0.024940
C	 -2.451944	 0.502410	 -0.038737
H	 -0.487863	 0.068226	 0.694944
H	 -0.745621	 -0.421884	 -0.959925
C	 -3.752217	 -0.292550	 0.005776
H	 -2.407325	 1.093801	 -0.946480
H	 -2.431979	 1.206234	 0.790023
H	 -3.817783	 -0.982946	 -0.828547
H	 -4.612613	 0.364348	 -0.042306
H	 -3.830160	 -0.871666	 0.919868

	symmetry c1
}
set optking {
	frozen_dihedral = ("
		15 12 14 18
	")
}

ee = optimize('scf')
oeprop('DIPOLE', 'QUADRUPOLE', 'MULLIKEN_CHARGES')
f=open( 'psi4out.xyz', 'w' )
f.write( "22  " )
f.write( str(ee) + "\n" )
f.write( MOL.save_string_xyz() )
f.close()
--------------------------------------------------------------------------

    Molecular point group: c1
  Charge       = 0
  Multiplicity = 1
  Basis Set: CC-PVTZ
  Basis Set:
  @DF-RHF Final Energy:  -290.47923228417710
    Total Energy =                       -290.4792322841775558
    Molecular point group: c1
  Basis Set: CC-PVTZ
  Basis Set:
  Basis Set: CC-PVTZ
  Basis Set:
  @DF-RHF Final Energy:  -290.47964969156203
    Total Energy =                       -290.4796496915620878
  Basis Set: CC-PVTZ
  Basis Set:
  Basis Set: CC-PVTZ
  Basis Set:
  @DF-RHF Final Energy:  -290.48192695795410
    Total Energy =                       -290.4819269579543288
  Basis Set: CC-PVTZ
  Basis Set:
  Basis Set: CC-PVTZ
  Basis Set:
  @DF-RHF Final Energy:  -290.48212517216706
    Total Energy =                       -290.4821251721671160
  Basis Set: CC-PVTZ
  Basis Set:
  Basis Set: CC-PVTZ
  Basis Set:
  @DF-RHF Final Energy:  -290.48214157736925
    Total Energy =                       -290.4821415773697026
  Basis Set: CC-PVTZ
  Basis Set:
  Basis Set: CC-PVTZ
  Basis Set:
  @DF-RHF Final Energy:  -290.48214305970600
    Total Energy =                       -290.4821430597060044
  Basis Set: CC-PVTZ
  Basis Set:
  Charge       = 0
  Multiplicity = 1
  Basis Set: CC-PVTZ
  Basis Set:

    Orbital Energies (a.u.)
    -----------------------

    Doubly Occupied:

       1A    -15.527437     2A    -11.237058     3A    -11.236030
       4A    -11.212461     5A    -11.211915     6A    -11.207623
       7A    -11.204312     8A     -1.206665     9A     -1.057354
      10A     -1.022090    11A     -0.927859    12A     -0.881681
      13A     -0.805103    14A     -0.785832    15A     -0.670158
      16A     -0.629832    17A     -0.625906    18A     -0.594449
      19A     -0.575669    20A     -0.568615    21A     -0.537067
      22A     -0.529114    23A     -0.504052    24A     -0.486856
      25A     -0.482065    26A     -0.472353    27A     -0.464180
      28A     -0.451242    29A     -0.359414

  @DF-RHF Final Energy:  -290.48214409012070

   => Energetics <=

    Nuclear Repulsion Energy =            318.6768124113356748
    One-Electron Energy =               -1023.3691408323418273
    Two-Electron Energy =                 414.2101843308852267
    DFT Exchange-Correlation Energy =       0.0000000000000000
    Empirical Dispersion Energy =           0.0000000000000000
    PCM Polarization Energy =               0.0000000000000000
    EFP Energy =                            0.0000000000000000
    Total Energy =                       -290.4821440901208689
    Molecular point group: c1
  Basis Set: CC-PVTZ
  Basis Set:

  -Total Gradient:
     Atom            X                  Y                   Z
    ------   -----------------  -----------------  -----------------
       1        0.000002183102    -0.000002228140     0.000000431247
       2        0.000000179062    -0.000003669337     0.000000729932
       3       -0.000001284979     0.000007076453     0.000000469575
       4       -0.000001136749    -0.000000033921    -0.000001044423
       5       -0.000000426135     0.000000265588     0.000000847627
       6       -0.000001872103     0.000015477574    -0.000001228586
       7       -0.000000196202    -0.000001070709    -0.000000366600
       8        0.000000333412     0.000000200817     0.000000330146
       9       -0.000002621870     0.000005219279    -0.000017334078
      10        0.000006792603    -0.000002631708     0.000000312514
      11        0.000001482474    -0.000001035251     0.000001737778
      12        0.002087310279     0.002629142811    -0.005956158913
      13       -0.000005811002     0.000000914374     0.000000405226
      14        0.003219610963     0.004073198223     0.004402674197
      15       -0.002250377428    -0.002846782785     0.004371766165
      16       -0.000001170033    -0.000004670341    -0.000001135728
      17        0.000001002171     0.000000775799     0.000008237120
      18       -0.003048499884    -0.003866611711    -0.002807085691
      19       -0.000001996668    -0.000003520726     0.000002308755
      20        0.000003614931    -0.000001889249    -0.000005564416
      21       -0.000002308846    -0.000002034398    -0.000002627233
      22       -0.000004807099     0.000003907356     0.000002295386

  **** Optimization is complete! (in 7 steps) ****
    Final optimized geometry and variables:
    Molecular point group: c1

    Geometry (in Angstrom), charge = 0, multiplicity = 1:

    H            1.544299325506    -3.973097423316     1.164862429432
    C            1.842669912411    -3.000572624510     0.791602093777
    C            0.638633504936    -2.077115736618     0.642621486662
    H            2.567855220531    -2.589415347077     1.485919141336
    H            2.344448332166    -3.151648824142    -0.158339927978
    C            1.013473351264    -0.697815212309     0.120798145652
    H            0.136686156161    -1.962730647183     1.596991728712
    H           -0.081712935867    -2.531783829668    -0.033347227167
    N           -0.145592875148     0.162045353819     0.014874957093
    H            1.716695056069    -0.234643370742     0.806418160590
    H            1.538279680777    -0.802601672704    -0.833763453947
    C            0.154915155316     1.481280934200    -0.510248070143
    H           -0.837327183195    -0.285093484193    -0.547545229366
    C           -1.055291710219     2.439104513913    -0.507950159574
    H            0.915569188084     1.887062498053     0.146355578190
    H            0.582906618149     1.427041576731    -1.512801301736
    C           -2.430549168344     1.770043459687    -0.512349562793
    H           -1.002959151336     3.050168742125    -1.402809209459
    H           -0.995058954632     3.101783081465     0.346671149743
    H           -2.564892766774     1.135401118759    -1.383449370265
    H           -3.207805819805     2.524811868005    -0.544380894498
    H           -2.585010688766     1.166200277642     0.371133627960

  Mulliken Charges: (a.u.)
   Center  Symbol    Alpha    Beta     Spin     Total
       1     H     0.44768  0.44768  0.00000  0.10464
       2     C     3.15356  3.15356  0.00000 -0.30711
       3     C     3.08153  3.08153  0.00000 -0.16305
       4     H     0.45467  0.45467  0.00000  0.09066
       5     H     0.45608  0.45608  0.00000  0.08785
       6     C     3.02106  3.02106  0.00000 -0.04212
       7     H     0.44894  0.44894  0.00000  0.10213
       8     H     0.45993  0.45993  0.00000  0.08014
       9     N     3.64332  3.64332  0.00000 -0.28665
      10     H     0.45904  0.45904  0.00000  0.08193
      11     H     0.47504  0.47504  0.00000  0.04993
      12     C     3.03423  3.03423  0.00000 -0.06846
      13     H     0.43984  0.43984  0.00000  0.12032
      14     C     3.08105  3.08105  0.00000 -0.16210
      15     H     0.45776  0.45776  0.00000  0.08448
      16     H     0.46843  0.46843  0.00000  0.06315
      17     C     3.15934  3.15934  0.00000 -0.31869
      18     H     0.45447  0.45447  0.00000  0.09107
      19     H     0.45221  0.45221  0.00000  0.09558
      20     H     0.45918  0.45918  0.00000  0.08165
      21     H     0.44733  0.44733  0.00000  0.10534
      22     H     0.44533  0.44533  0.00000  0.10934

   Total alpha = 29.00000, Total beta = 29.00000, Total charge = -0.00000
