  ==> Input File <==

--------------------------------------------------------------------------
set {
	reference rhf
	basis 6-31G*
}

set_num_threads( 4 )
memory 2 gb

molecule MOL {
0 1

H	 2.444376	 1.371960	 1.440488
N	 1.569337	 0.886491	 1.394230
C	 1.267428	 0.496480	 0.024474
H	 0.870654	 1.515434	 1.742350
C	 -0.016086	 -0.325158	 -0.029487
H	 2.094785	 -0.107009	 -0.336519
H	 1.181230	 1.348018	 -0.655109
C	 -1.282277	 0.529072	 0.046735
H	 -0.012495	 -0.908639	 -0.945788
H	 -0.015903	 -1.041248	 0.791956
C	 -2.563920	 -0.301775	 -0.006060
H	 -1.284084	 1.244622	 -0.773004
H	 -1.271387	 1.115393	 0.963286
H	 -2.621848	 -0.873522	 -0.927727
H	 -3.445135	 0.329952	 0.047812
H	 -2.609542	 -1.004582	 0.821105

	symmetry c1
}
set optking {
	frozen_dihedral = ("
		6 3 5 9
	")
}

ee = optimize('scf')
oeprop('DIPOLE', 'QUADRUPOLE', 'MULLIKEN_CHARGES')
f=open( 'psi4out.xyz', 'w' )
f.write( "16  " )
f.write( str(ee) + "\n" )
f.write( MOL.save_string_xyz() )
f.close()
--------------------------------------------------------------------------

    Molecular point group: c1
  Charge       = 0
  Multiplicity = 1
  Basis Set: 6-31G*
  Basis Set:
  @DF-RHF Final Energy:  -212.31502661246731
    Total Energy =                       -212.3150266124672498
    Molecular point group: c1
  Basis Set: 6-31G*
  Basis Set:
  Basis Set: 6-31G*
  Basis Set:
  @DF-RHF Final Energy:  -212.31525715788180
    Total Energy =                       -212.3152571578817742
  Basis Set: 6-31G*
  Basis Set:
  Basis Set: 6-31G*
  Basis Set:
  @DF-RHF Final Energy:  -212.31530913406942
    Total Energy =                       -212.3153091340695937
  Basis Set: 6-31G*
  Basis Set:
  Charge       = 0
  Multiplicity = 1
  Basis Set: 6-31G*
  Basis Set:

    Orbital Energies (a.u.)
    -----------------------

    Doubly Occupied:

       1A    -15.532721     2A    -11.240013     3A    -11.215970
       4A    -11.209036     5A    -11.208183     6A     -1.176763
       7A     -1.057709     8A     -0.960155     9A     -0.850198
      10A     -0.783747    11A     -0.665131    12A     -0.642524
      13A     -0.597648    14A     -0.585099    15A     -0.551577
      16A     -0.523724    17A     -0.514684    18A     -0.472103
      19A     -0.465713    20A     -0.453361    21A     -0.380816

  @DF-RHF Final Energy:  -212.31530936146734

   => Energetics <=

    Nuclear Repulsion Energy =            188.3578085488707359
    One-Electron Energy =                -659.1724845223966440
    Two-Electron Energy =                 258.4993666120587363
    DFT Exchange-Correlation Energy =       0.0000000000000000
    Empirical Dispersion Energy =           0.0000000000000000
    PCM Polarization Energy =               0.0000000000000000
    EFP Energy =                            0.0000000000000000
    Total Energy =                       -212.3153093614672002
    Molecular point group: c1
  Basis Set: 6-31G*
  Basis Set:

  -Total Gradient:
     Atom            X                  Y                   Z
    ------   -----------------  -----------------  -----------------
       1        0.000035792109     0.000029747781    -0.000012708515
       2       -0.000016880908    -0.000013051586     0.000004410837
       3        0.000921346450    -0.001805571957     0.003800426098
       4       -0.000047184119     0.000014859921     0.000006147319
       5       -0.001730544253     0.003024992751    -0.002340364883
       6       -0.000494486374     0.000960258440    -0.002750191802
       7        0.000004938812     0.000001682975    -0.000007572044
       8       -0.000027890334     0.000030919287    -0.000050758216
       9        0.001310525454    -0.002197135063     0.001355371057
      10        0.000016880223     0.000003937371    -0.000047386316
      11        0.000029768086    -0.000031158199     0.000074260831
      12        0.000005080669    -0.000034487113    -0.000045068107
      13        0.000004629400     0.000021527855     0.000003279070
      14       -0.000008241277     0.000012333880    -0.000004085345
      15        0.000004674115     0.000005389499     0.000027391203
      16       -0.000008408051    -0.000024245844    -0.000013151188

  **** Optimization is complete! (in 4 steps) ****
    Final optimized geometry and variables:
    Molecular point group: c1

    Geometry (in Angstrom), charge = 0, multiplicity = 1:

    H            2.667605102205     1.067662111019     1.136376951312
    N            1.770868443327     0.622632626871     1.097097600639
    C            1.465089434755     0.212419327027    -0.266583443658
    H            1.104462137540     1.295257111878     1.424309230766
    C            0.167205438562    -0.592058495915    -0.337469849967
    H            2.283075110232    -0.403398496685    -0.625154602379
    H            1.400268936135     1.055332435213    -0.960476290504
    C           -1.106248541625     0.252284875163    -0.256438434694
    H            0.162709225157    -1.173376519481    -1.257407152229
    H            0.178632388028    -1.313377142194     0.475350879310
    C           -2.379221253919    -0.591226885272    -0.317951686877
    H           -1.112120061289     0.975379926212    -1.069656875988
    H           -1.109714053649     0.827866778389     0.666792276514
    H           -2.430921168935    -1.153767123979    -1.245932951209
    H           -3.267334385844     0.030296427042    -0.257753824617
    H           -2.416293340429    -1.302928319996     0.501617875366

  Mulliken Charges: (a.u.)
   Center  Symbol    Alpha    Beta     Spin     Total
       1     H     0.33235  0.33235  0.00000  0.33530
       2     N     3.92154  3.92154  0.00000 -0.84308
       3     C     3.06526  3.06526  0.00000 -0.13052
       4     H     0.33324  0.33324  0.00000  0.33351
       5     C     3.15285  3.15285  0.00000 -0.30570
       6     H     0.41868  0.41868  0.00000  0.16265
       7     H     0.43528  0.43528  0.00000  0.12944
       8     C     3.15511  3.15511  0.00000 -0.31022
       9     H     0.42375  0.42375  0.00000  0.15249
      10     H     0.41280  0.41280  0.00000  0.17440
      11     C     3.23889  3.23889  0.00000 -0.47778
      12     H     0.42374  0.42374  0.00000  0.15252
      13     H     0.42524  0.42524  0.00000  0.14951
      14     H     0.42170  0.42170  0.00000  0.15661
      15     H     0.41978  0.41978  0.00000  0.16045
      16     H     0.41980  0.41980  0.00000  0.16041

   Total alpha = 21.00000, Total beta = 21.00000, Total charge = -0.00000
