  ==> Input File <==

--------------------------------------------------------------------------
set {
	reference rhf
	basis cc-pvtz
}

set_num_threads( 4 )
memory 2 gb

molecule MOL {
0 1

H	 -3.090000	 -0.668000	 0.005000
O	 -2.292000	 -1.178000	 0.001000
C	 -1.209000	 -0.368000	 0.001000
C	 -1.314000	 1.012000	 0.005000
C	 0.039000	 -0.977000	 -0.007000
H	 -2.282000	 1.485000	 0.008000
C	 -0.155000	 1.775000	 0.002000
H	 0.083000	 -2.051000	 -0.013000
C	 1.194000	 -0.215000	 -0.009000
H	 -0.233000	 2.848000	 0.003000
C	 1.088000	 1.176000	 -0.006000
C	 2.552000	 -0.876000	 0.007000
H	 1.977000	 1.782000	 -0.011000
H	 3.234000	 -0.387000	 -0.681000
H	 2.487000	 -1.922000	 -0.271000
H	 2.995000	 -0.823000	 0.998000

	symmetry c1
}
ee = optimize('scf')
oeprop('DIPOLE', 'QUADRUPOLE', 'MULLIKEN_CHARGES')
f=open( 'psi4out.xyz', 'w' )
f.write( "16  " )
f.write( str(ee) + "\n" )
f.write( MOL.save_string_xyz() )
f.close()
--------------------------------------------------------------------------

    Molecular point group: c1
  Charge       = 0
  Multiplicity = 1
  Basis Set: CC-PVTZ
  Basis Set:
  @DF-RHF Final Energy:  -344.72065784445124
    Total Energy =                       -344.7206578444512388
    Molecular point group: c1
  Basis Set: CC-PVTZ
  Basis Set:
  Basis Set: CC-PVTZ
  Basis Set:
  @DF-RHF Final Energy:  -344.72082382079748
    Total Energy =                       -344.7208238207972499
  Basis Set: CC-PVTZ
  Basis Set:
  Basis Set: CC-PVTZ
  Basis Set:
  @DF-RHF Final Energy:  -344.72082848428221
    Total Energy =                       -344.7208284842820376
  Basis Set: CC-PVTZ
  Basis Set:
  Charge       = 0
  Multiplicity = 1
  Basis Set: CC-PVTZ
  Basis Set:

    Orbital Energies (a.u.)
    -----------------------

    Doubly Occupied:

       1A    -20.583129     2A    -11.295279     3A    -11.240594
       4A    -11.232820     5A    -11.219742     6A    -11.218865
       7A    -11.213819     8A    -11.212702     9A     -1.413886
      10A     -1.154061    11A     -1.046232    12A     -1.008630
      13A     -0.938669    14A     -0.828818    15A     -0.826405
      16A     -0.717495    17A     -0.684663    18A     -0.657483
      19A     -0.610115    20A     -0.596109    21A     -0.573265
      22A     -0.572134    23A     -0.570744    24A     -0.534529
      25A     -0.507175    26A     -0.484465    27A     -0.472828
      28A     -0.333483    29A     -0.310162

  @DF-RHF Final Energy:  -344.72082866677727

   => Energetics <=

    Nuclear Repulsion Energy =            346.4213862084181983
    One-Electron Energy =               -1154.1678292635619982
    Two-Electron Energy =                 463.0256143883659661
    DFT Exchange-Correlation Energy =       0.0000000000000000
    Empirical Dispersion Energy =           0.0000000000000000
    PCM Polarization Energy =               0.0000000000000000
    EFP Energy =                            0.0000000000000000
    Total Energy =                       -344.7208286667778339
    Molecular point group: c1
  Basis Set: CC-PVTZ
  Basis Set:

  -Total Gradient:
     Atom            X                  Y                   Z
    ------   -----------------  -----------------  -----------------
       1        0.000043441001    -0.000021553502     0.000006261572
       2       -0.000057950157     0.000000513167     0.000032970679
       3        0.000045890530     0.000007127836    -0.000113980258
       4       -0.000016424707     0.000011889523     0.000038669743
       5       -0.000049082391    -0.000027687393     0.000022160012
       6        0.000006456567    -0.000001569921     0.000001918480
       7       -0.000020978882     0.000023000857    -0.000005432797
       8        0.000001882940    -0.000000208650    -0.000003599715
       9        0.000028282806     0.000020003666     0.000069818345
      10        0.000005189506     0.000000933049     0.000002192150
      11        0.000013713253    -0.000008119514    -0.000027984815
      12        0.000004665718    -0.000005205201    -0.000026750655
      13       -0.000001517449     0.000002323763    -0.000001096236
      14        0.000001853250    -0.000002628955     0.000008168130
      15        0.000004378806     0.000004607369    -0.000000819490
      16       -0.000009800794    -0.000003426094    -0.000002495144

  **** Optimization is complete! (in 4 steps) ****
    Final optimized geometry and variables:
    Molecular point group: c1

    Geometry (in Angstrom), charge = 0, multiplicity = 1:

    H           -3.034039284956    -0.667848681781     0.004703124568
    O           -2.240597276220    -1.171748164344     0.000933597968
    C           -1.159675491823    -0.364500397694     0.000369751677
    C           -1.263522277287     1.011580231474     0.006021186969
    C            0.086396611330    -0.972201037613    -0.007304873040
    H           -2.228476770340     1.484766808671     0.009968133690
    C           -0.107169446215     1.772542214713     0.002553983683
    H            0.132327370074    -2.044014261596    -0.013840205693
    C            1.238460395837    -0.211855104549    -0.008358768047
    H           -0.183927031486     2.843466280078     0.003895792210
    C            1.133128817408     1.175546170276    -0.005395537985
    C            2.593686287637    -0.872734690361     0.007307947480
    H            2.019973912779     1.780476009080    -0.010675373386
    H            3.272118412036    -0.384754092167    -0.681478859616
    H            2.526279745564    -1.916800741916    -0.266788320851
    H            3.034902914720    -0.815993624443     0.996626732828

  Mulliken Charges: (a.u.)
   Center  Symbol    Alpha    Beta     Spin     Total
       1     H     0.38745  0.38745  0.00000  0.22509
       2     O     4.17507  4.17507  0.00000 -0.35015
       3     C     2.83534  2.83534  0.00000  0.32931
       4     C     3.14937  3.14937  0.00000 -0.29874
       5     C     3.14133  3.14133  0.00000 -0.28265
       6     H     0.43550  0.43550  0.00000  0.12899
       7     C     3.05686  3.05686  0.00000 -0.11371
       8     H     0.42226  0.42226  0.00000  0.15547
       9     C     2.93484  2.93484  0.00000  0.13032
      10     H     0.42293  0.42293  0.00000  0.15414
      11     C     3.11916  3.11916  0.00000 -0.23832
      12     C     3.14654  3.14654  0.00000 -0.29307
      13     H     0.42793  0.42793  0.00000  0.14415
      14     H     0.44834  0.44834  0.00000  0.10332
      15     H     0.45018  0.45018  0.00000  0.09964
      16     H     0.44690  0.44690  0.00000  0.10619

   Total alpha = 29.00000, Total beta = 29.00000, Total charge =  0.00000
