  ==> Input File <==

--------------------------------------------------------------------------
set {
	reference rhf
	basis 6-31G*
}

set_num_threads( 4 )
memory 2 gb

molecule MOL {
0 1

O	 1.133434	 1.201333	 -0.497712
C	 1.122059	 0.121804	 -0.000188
C	 -0.055131	 -0.508603	 0.703164
O	 2.172624	 -0.688929	 0.000216
C	 -1.292567	 0.383162	 0.732316
H	 -0.262046	 -1.452959	 0.207047
H	 0.267493	 -0.767311	 1.708021
C	 -2.469542	 -0.278923	 1.450466
H	 -1.576629	 0.635327	 -0.284653
H	 -1.046176	 1.322219	 1.218080
C	 -3.713215	 0.608241	 1.485414
H	 -2.711756	 -1.219712	 0.960237
H	 -2.178682	 -0.531836	 2.468064
H	 -4.049501	 0.850624	 0.481514
H	 -4.532512	 0.115542	 1.999493
H	 -3.512792	 1.543127	 2.000643
C	 3.452279	 -0.082609	 0.000533
H	 3.583069	 0.529321	 -0.880332
H	 4.163299	 -0.894027	 0.001117
H	 3.582335	 0.529955	 0.881077

	symmetry c1
}
set optking {
	frozen_dihedral = ("
		1 2 4 17
	")
}

ee = optimize('scf')
oeprop('DIPOLE', 'QUADRUPOLE', 'MULLIKEN_CHARGES')
f=open( 'psi4out.xyz', 'w' )
f.write( "20  " )
f.write( str(ee) + "\n" )
f.write( MOL.save_string_xyz() )
f.close()
--------------------------------------------------------------------------

    Molecular point group: c1
  Charge       = 0
  Multiplicity = 1
  Basis Set: 6-31G*
  Basis Set:
  @DF-RHF Final Energy:  -383.93633046973531
    Total Energy =                       -383.9363304697355943
    Molecular point group: c1
  Basis Set: 6-31G*
  Basis Set:
  Basis Set: 6-31G*
  Basis Set:
  @DF-RHF Final Energy:  -383.93299166296828
    Total Energy =                       -383.9329916629682202
  Basis Set: 6-31G*
  Basis Set:
  Basis Set: 6-31G*
  Basis Set:
  @DF-RHF Final Energy:  -383.93676065395988
    Total Energy =                       -383.9367606539597091
  Basis Set: 6-31G*
  Basis Set:
  Basis Set: 6-31G*
  Basis Set:
  @DF-RHF Final Energy:  -383.93682884392501
    Total Energy =                       -383.9368288439250136
  Basis Set: 6-31G*
  Basis Set:
  @DF-RHF Final Energy:  -383.93683984017281
    Total Energy =                       -383.9368398401729792
  @DF-RHF Final Energy:  -383.93684285656542
    Total Energy =                       -383.9368428565653630
  @DF-RHF Final Energy:  -383.93684269422050
    Total Energy =                       -383.9368426942204451
  Basis Set: 6-31G*
  Basis Set:
  @DF-RHF Final Energy:  -383.93683611495771
    Total Energy =                       -383.9368361149577140
  Basis Set: 6-31G*
  Basis Set:
  Basis Set: 6-31G*
  Basis Set:
  @DF-RHF Final Energy:  -383.93684150216234
    Total Energy =                       -383.9368415021622241
  Basis Set: 6-31G*
  Basis Set:
  Basis Set: 6-31G*
  Basis Set:
  @DF-RHF Final Energy:  -383.93684358751790
    Total Energy =                       -383.9368435875175010
  Basis Set: 6-31G*
  Basis Set:
  Charge       = 0
  Multiplicity = 1
  Basis Set: 6-31G*
  Basis Set:

    Orbital Energies (a.u.)
    -----------------------

    Doubly Occupied:

       1A    -20.599331     2A    -20.547904     3A    -11.373110
       4A    -11.283123     5A    -11.236010     6A    -11.220531
       7A    -11.219507     8A    -11.210807     9A     -1.466385
      10A     -1.363687    11A     -1.088742    12A     -1.023456
      13A     -0.969198    14A     -0.887405    15A     -0.804449
      16A     -0.766999    17A     -0.696258    18A     -0.681541
      19A     -0.672133    20A     -0.645488    21A     -0.600606
      22A     -0.592487    23A     -0.580186    24A     -0.543178
      25A     -0.535526    26A     -0.520739    27A     -0.501562
      28A     -0.478866    29A     -0.474557    30A     -0.470336
      31A     -0.454364    32A     -0.435580

  @DF-RHF Final Energy:  -383.93684341320824

   => Energetics <=

    Nuclear Repulsion Energy =            380.7769494155742791
    One-Electron Energy =               -1277.5394813336324660
    Two-Electron Energy =                 512.8256885048500635
    DFT Exchange-Correlation Energy =       0.0000000000000000
    Empirical Dispersion Energy =           0.0000000000000000
    PCM Polarization Energy =               0.0000000000000000
    EFP Energy =                            0.0000000000000000
    Total Energy =                       -383.9368434132080665
    Molecular point group: c1
  Basis Set: 6-31G*
  Basis Set:

  -Total Gradient:
     Atom            X                  Y                   Z
    ------   -----------------  -----------------  -----------------
       1       -0.003340592250    -0.002930291037    -0.007706243052
       2        0.005237718679     0.004169505035     0.014799610653
       3        0.000008539149    -0.000008660922     0.000040862309
       4       -0.002343044596    -0.000805578926    -0.013935558311
       5       -0.000003766082    -0.000002824745    -0.000032587944
       6       -0.000025783643     0.000009917956    -0.000039255142
       7       -0.000001620640    -0.000029506869    -0.000017709658
       8        0.000000070595    -0.000007642493    -0.000008175520
       9        0.000005191549    -0.000008426675     0.000008978042
      10       -0.000002284357     0.000009344042     0.000000004934
      11        0.000003605760     0.000006157914     0.000012847001
      12       -0.000005915275     0.000001280422    -0.000005913058
      13        0.000001546102    -0.000006355995    -0.000005030814
      14        0.000001380811    -0.000005342954     0.000001486752
      15        0.000001202488     0.000002722380     0.000005463166
      16       -0.000001714077     0.000004864270    -0.000002380490
      17        0.000476850439    -0.000386619662     0.006849160471
      18       -0.000005576316    -0.000011792396     0.000008526761
      19       -0.000003701460     0.000004561749     0.000005159185
      20       -0.000002106882    -0.000005311091     0.000020754715

  **** Optimization is complete! (in 11 steps) ****
    Final optimized geometry and variables:
    Molecular point group: c1

    Geometry (in Angstrom), charge = 0, multiplicity = 1:

    O            1.087958656466     1.164074445421    -0.841636909465
    C            1.062450703562     0.060835868727    -0.403467249763
    C           -0.125568963215    -0.589245902099     0.261270976418
    O            2.080191108862    -0.791904449793    -0.519301359305
    C           -1.378516859070     0.280688043357     0.257156585823
    H           -0.299130040004    -1.537360292627    -0.239779963964
    H            0.172894075352    -0.843212105421     1.275684217337
    C           -2.562402134105    -0.400526744530     0.945430253544
    H           -1.640440059720     0.525841162673    -0.767679704245
    H           -1.161081163021     1.224722597422     0.746777650679
    C           -3.821287450992     0.465610115007     0.947277047813
    H           -2.776012256498    -1.345724382520     0.450506477399
    H           -2.293609588552    -0.647466396298     1.970588246072
    H           -4.136418162971     0.700229775236    -0.065283502851
    H           -4.644781972365    -0.039823281211     1.441928267629
    H           -3.649510772524     1.404795640356     1.465059014241
    C            3.382496117233    -0.237916240826    -0.573917796504
    H            3.516760364809     0.346867481556    -1.471884727527
    H            4.062746653308    -1.075265236098    -0.569276077417
    H            3.560917244611     0.387261803666     0.291024586368

  Mulliken Charges: (a.u.)
   Center  Symbol    Alpha    Beta     Spin     Total
       1     O     4.27951  4.27951  0.00000 -0.55902
       2     C     2.60499  2.60499  0.00000  0.79002
       3     C     3.20992  3.20992  0.00000 -0.41984
       4     O     4.30968  4.30968  0.00000 -0.61936
       5     C     3.15136  3.15136  0.00000 -0.30273
       6     H     0.39902  0.39902  0.00000  0.20196
       7     H     0.40299  0.40299  0.00000  0.19402
       8     C     3.15418  3.15418  0.00000 -0.30837
       9     H     0.41231  0.41231  0.00000  0.17538
      10     H     0.41151  0.41151  0.00000  0.17698
      11     C     3.23931  3.23931  0.00000 -0.47862
      12     H     0.42267  0.42267  0.00000  0.15465
      13     H     0.42325  0.42325  0.00000  0.15350
      14     H     0.41985  0.41985  0.00000  0.16030
      15     H     0.41872  0.41872  0.00000  0.16255
      16     H     0.42002  0.42002  0.00000  0.15996
      17     C     3.09329  3.09329  0.00000 -0.18657
      18     H     0.40484  0.40484  0.00000  0.19032
      19     H     0.40738  0.40738  0.00000  0.18524
      20     H     0.41518  0.41518  0.00000  0.16964

   Total alpha = 32.00000, Total beta = 32.00000, Total charge =  0.00000
