  ==> Input File <==

--------------------------------------------------------------------------
set {
	reference rhf
	basis 6-31G*
}

set_num_threads( 4 )
memory 2 gb

molecule MOL {
0 1

O	 1.261389	 -2.518626	 -1.086561
C	 0.379380	 -1.904822	 -0.579925
C	 -1.055466	 -2.350091	 -0.505625
O	 0.550821	 -0.724572	 0.000672
H	 -1.365907	 -2.413327	 0.530865
H	 -1.160889	 -3.312677	 -0.983335
H	 -1.690560	 -1.620734	 -0.994781
C	 1.863949	 -0.193559	 -0.000319
H	 2.028859	 0.409284	 -0.881648
H	 2.526261	 -1.045082	 -0.000003
H	 2.029520	 0.410555	 0.880008

	symmetry c1
}
set optking {
	frozen_dihedral = ("
		2 4 8 9
	")
}

ee = optimize('scf')
oeprop('DIPOLE', 'QUADRUPOLE', 'MULLIKEN_CHARGES')
f=open( 'psi4out.xyz', 'w' )
f.write( "11  " )
f.write( str(ee) + "\n" )
f.write( MOL.save_string_xyz() )
f.close()
--------------------------------------------------------------------------

    Molecular point group: c1
  Charge       = 0
  Multiplicity = 1
  Basis Set: 6-31G*
  Basis Set:
  @DF-RHF Final Energy:  -266.83341847681959
    Total Energy =                       -266.8334184768192472
    Molecular point group: c1
  Basis Set: 6-31G*
  Basis Set:
  Basis Set: 6-31G*
  Basis Set:
  @DF-RHF Final Energy:  -266.83469169667023
    Total Energy =                       -266.8346916966699496
  Basis Set: 6-31G*
  Basis Set:
  Basis Set: 6-31G*
  Basis Set:
  @DF-RHF Final Energy:  -266.83503901598544
    Total Energy =                       -266.8350390159856147
  Basis Set: 6-31G*
  Basis Set:
  Basis Set: 6-31G*
  Basis Set:
  @DF-RHF Final Energy:  -266.83504021661952
    Total Energy =                       -266.8350402166195749
  Basis Set: 6-31G*
  Basis Set:
  Basis Set: 6-31G*
  Basis Set:
  @DF-RHF Final Energy:  -266.83533660094440
    Total Energy =                       -266.8353366009446859
  Basis Set: 6-31G*
  Basis Set:
  Charge       = 0
  Multiplicity = 1
  Basis Set: 6-31G*
  Basis Set:

    Orbital Energies (a.u.)
    -----------------------

    Doubly Occupied:

       1A    -20.605435     2A    -20.546088     3A    -11.377118
       4A    -11.281474     5A    -11.234350     6A     -1.469817
       7A     -1.364807     8A     -1.035988     9A     -0.953326
      10A     -0.777665    11A     -0.696362    12A     -0.679940
      13A     -0.677110    14A     -0.596454    15A     -0.591443
      16A     -0.560607    17A     -0.526979    18A     -0.521247
      19A     -0.456313    20A     -0.442133

  @DF-RHF Final Energy:  -266.83534311375536

   => Energetics <=

    Nuclear Repulsion Energy =            183.0695160571223425
    One-Electron Energy =                -727.0204081592495413
    Two-Electron Energy =                 277.1155489883716996
    DFT Exchange-Correlation Energy =       0.0000000000000000
    Empirical Dispersion Energy =           0.0000000000000000
    PCM Polarization Energy =               0.0000000000000000
    EFP Energy =                            0.0000000000000000
    Total Energy =                       -266.8353431137555276
    Molecular point group: c1
  Basis Set: 6-31G*
  Basis Set:

  -Total Gradient:
     Atom            X                  Y                   Z
    ------   -----------------  -----------------  -----------------
       1        0.000013927869     0.000001618061    -0.000006314994
       2        0.000329237808    -0.000668778676     0.001272042163
       3       -0.000020598704     0.000027045898     0.000008670140
       4       -0.000449588281     0.001455060199    -0.001570559820
       5        0.000005915613     0.000001063477    -0.000003113903
       6        0.000012362244     0.000002656683    -0.000003532280
       7        0.000000318083    -0.000001421496    -0.000001712835
       8        0.000747990583    -0.002076693228    -0.000501514200
       9       -0.000616626005     0.001324969905     0.000816023860
      10        0.000043813278    -0.000043746206    -0.000002006643
      11       -0.000066752488    -0.000021774617    -0.000007981485

  **** Optimization is complete! (in 6 steps) ****
    Final optimized geometry and variables:
    Molecular point group: c1

    Geometry (in Angstrom), charge = 0, multiplicity = 1:

    O            0.621768156933    -1.005583157838    -0.685582671562
    C           -0.239104243777    -0.381921878806    -0.155494591923
    C           -1.677934063093    -0.809496388816    -0.054449756692
    O           -0.048241537099     0.795351948393     0.426578285154
    H           -1.968798401802    -0.872991866333     0.987641903722
    H           -1.805054408028    -1.768326541230    -0.534253632045
    H           -2.312875645980    -0.069787650340    -0.528187705326
    C            1.264978175311     1.327482977460     0.445675036104
    H            1.425590543253     1.931682680756    -0.437225092623
    H            2.000405605742     0.541102846873     0.493362937482
    H            1.322416929974     1.954743195262     1.322444244526

  Mulliken Charges: (a.u.)
   Center  Symbol    Alpha    Beta     Spin     Total
       1     O     4.28189  4.28189  0.00000 -0.56378
       2     C     2.62229  2.62229  0.00000  0.75541
       3     C     3.28189  3.28189  0.00000 -0.56377
       4     O     4.30040  4.30040  0.00000 -0.60081
       5     H     0.40015  0.40015  0.00000  0.19971
       6     H     0.39670  0.39670  0.00000  0.20660
       7     H     0.39987  0.39987  0.00000  0.20026
       8     C     3.09507  3.09507  0.00000 -0.19014
       9     H     0.41264  0.41264  0.00000  0.17471
      10     H     0.39946  0.39946  0.00000  0.20108
      11     H     0.40964  0.40964  0.00000  0.18073

   Total alpha = 20.00000, Total beta = 20.00000, Total charge = -0.00000
