  ==> Input File <==

--------------------------------------------------------------------------
set {
	reference rhf
	basis 6-31G*
}

set_num_threads( 1 )
memory 2 gb

molecule MOL {
0 1

H	 -2.499100	 -0.730091	 -0.745082
O	 -2.347518	 -0.290803	 0.079804
C	 -1.184022	 0.487508	 -0.006784
C	 0.062599	 -0.378592	 0.031606
H	 -1.176523	 1.099369	 -0.904519
H	 -1.187323	 1.153111	 0.844927
O	 1.171513	 0.459272	 -0.058250
H	 0.050699	 -1.089204	 -0.797170
H	 0.078739	 -0.954914	 0.954740
C	 1.267408	 1.401515	 0.962595
H	 1.348869	 0.924829	 1.937666
H	 2.158156	 1.987563	 0.783657
H	 0.404750	 2.064459	 0.973485

	symmetry c1
}
set optking {
	frozen_dihedral = ("
		8 4 3 5,
		1 2 3 5,
		4 7 10 13
	")
}

ee = energy('scf')
oeprop('DIPOLE', 'QUADRUPOLE', 'MULLIKEN_CHARGES')
f=open( 'psi4out.xyz', 'w' )
f.write( "13  " )
f.write( str(ee) + "\n" )
f.write( MOL.save_string_xyz() )
f.close()
--------------------------------------------------------------------------

    Molecular point group: c1

    Geometry (in Angstrom), charge = 0, multiplicity = 1:

       Center              X                  Y                   Z               Mass
    ------------   -----------------  -----------------  -----------------  -----------------
           H         -2.263914315955    -1.062885138352    -0.945802882587     1.007825032070
           O         -2.112332315955    -0.623597138352    -0.120916882587    15.994914619560
           C         -0.948836315955     0.154713861648    -0.207504882587    12.000000000000
           C          0.297784684045    -0.711386138352    -0.169114882587    12.000000000000
           H         -0.941337315955     0.766574861648    -1.105239882587     1.007825032070
           H         -0.952137315955     0.820316861648     0.644206117413     1.007825032070
           O          1.406698684045     0.126477861648    -0.258970882587    15.994914619560
           H          0.285884684045    -1.421998138352    -0.997890882587     1.007825032070
           H          0.313924684045    -1.287708138352     0.754019117413     1.007825032070
           C          1.502593684045     1.068720861648     0.761874117413    12.000000000000
           H          1.584054684045     0.592034861648     1.736945117413     1.007825032070
           H          2.393341684045     1.654768861648     0.582936117413     1.007825032070
           H          0.639935684045     1.731664861648     0.772764117413     1.007825032070

  Charge       = 0
  Multiplicity = 1
  Basis Set: 6-31G*
  Basis Set:

    Orbital Energies (a.u.)
    -----------------------

    Doubly Occupied:

       1A    -20.561182     2A    -20.561108     3A    -11.271824
       4A    -11.269745     5A    -11.269656     6A     -1.390589
       7A     -1.366117     8A     -1.012140     9A     -0.936824
      10A     -0.831028    11A     -0.713599    12A     -0.683196
      13A     -0.654660    14A     -0.642431    15A     -0.592343
      16A     -0.566008    17A     -0.538584    18A     -0.525128
      19A     -0.469177    20A     -0.454079    21A     -0.404787

  @DF-RHF Final Energy:  -267.94047107956169

   => Energetics <=

    Nuclear Repulsion Energy =            194.8039805331304990
    One-Electron Energy =                -752.0604798389986172
    Two-Electron Energy =                 289.3160282263063436
    DFT Exchange-Correlation Energy =       0.0000000000000000
    Empirical Dispersion Energy =           0.0000000000000000
    PCM Polarization Energy =               0.0000000000000000
    EFP Energy =                            0.0000000000000000
    Total Energy =                       -267.9404710795618030

  Mulliken Charges: (a.u.)
   Center  Symbol    Alpha    Beta     Spin     Total
       1     H     0.28111  0.28111  0.00000  0.43779
       2     O     4.37291  4.37291  0.00000 -0.74583
       3     C     3.01215  3.01215  0.00000 -0.02430
       4     C     3.00242  3.00242  0.00000 -0.00484
       5     H     0.42200  0.42200  0.00000  0.15600
       6     H     0.41309  0.41309  0.00000  0.17382
       7     O     4.30413  4.30413  0.00000 -0.60825
       8     H     0.41878  0.41878  0.00000  0.16243
       9     H     0.42219  0.42219  0.00000  0.15561
      10     C     3.08822  3.08822  0.00000 -0.17644
      11     H     0.42689  0.42689  0.00000  0.14622
      12     H     0.40886  0.40886  0.00000  0.18227
      13     H     0.42723  0.42723  0.00000  0.14554

   Total alpha = 21.00000, Total beta = 21.00000, Total charge = -0.00000
