  ==> Input File <==

--------------------------------------------------------------------------
set {
	reference rhf
	basis cc-pvtz
}

set_num_threads( 4 )
memory 2 gb

molecule MOL {
0 1

H	 0.648798	 1.827563	 0.348327
O	 0.057669	 1.301365	 -0.158528
C	 0.004145	 -0.005141	 0.363049
C	 1.199168	 -0.827145	 -0.096690
C	 -1.316386	 -0.602081	 -0.083515
H	 0.012026	 0.043363	 1.450619
H	 1.216685	 -0.896776	 -1.178167
H	 2.129940	 -0.372354	 0.228035
H	 1.160783	 -1.829622	 0.314294
H	 -1.357882	 -0.655920	 -1.165207
H	 -2.140147	 0.011735	 0.257253
H	 -1.440790	 -1.601175	 0.317669

	symmetry c1
}
set optking {
	frozen_dihedral = ("
		1 2 3 4
	")
}

ee = optimize('scf')
oeprop('DIPOLE', 'QUADRUPOLE', 'MULLIKEN_CHARGES')
f=open( 'psi4out.xyz', 'w' )
f.write( "12  " )
f.write( str(ee) + "\n" )
f.write( MOL.save_string_xyz() )
f.close()
--------------------------------------------------------------------------

    Molecular point group: c1
  Charge       = 0
  Multiplicity = 1
  Basis Set: CC-PVTZ
  Basis Set:
  @DF-RHF Final Energy:  -193.19549014656224
    Total Energy =                       -193.1954901465621788
    Molecular point group: c1
  Basis Set: CC-PVTZ
  Basis Set:
  Basis Set: CC-PVTZ
  Basis Set:
  @DF-RHF Final Energy:  -193.19552267488848
    Total Energy =                       -193.1955226748886787
  Basis Set: CC-PVTZ
  Basis Set:
  Basis Set: CC-PVTZ
  Basis Set:
  @DF-RHF Final Energy:  -193.19552845269305
    Total Energy =                       -193.1955284526928835
  Basis Set: CC-PVTZ
  Basis Set:
  Charge       = 0
  Multiplicity = 1
  Basis Set: CC-PVTZ
  Basis Set:

    Orbital Energies (a.u.)
    -----------------------

    Doubly Occupied:

       1A    -20.543996     2A    -11.274356     3A    -11.207868
       4A    -11.204814     5A     -1.364151     6A     -1.042942
       7A     -0.937942     8A     -0.801532     9A     -0.709592
      10A     -0.618314    11A     -0.603290    12A     -0.550911
      13A     -0.538215    14A     -0.527453    15A     -0.508864
      16A     -0.466860    17A     -0.433365

  @DF-RHF Final Energy:  -193.19552855507249

   => Energetics <=

    Nuclear Repulsion Energy =            135.6517303521829945
    One-Electron Energy =                -531.0255900772823452
    Two-Electron Energy =                 202.1783311700268939
    DFT Exchange-Correlation Energy =       0.0000000000000000
    Empirical Dispersion Energy =           0.0000000000000000
    PCM Polarization Energy =               0.0000000000000000
    EFP Energy =                            0.0000000000000000
    Total Energy =                       -193.1955285550724568
    Molecular point group: c1
  Basis Set: CC-PVTZ
  Basis Set:

  -Total Gradient:
     Atom            X                  Y                   Z
    ------   -----------------  -----------------  -----------------
       1       -0.001176244846     0.000426829755     0.000923829302
       2        0.001237060220    -0.000656133891    -0.001429204049
       3        0.000447062709     0.000555883727     0.001270488585
       4       -0.000508319035    -0.000309410090    -0.000765355106
       5        0.000004399607     0.000000999516     0.000005171256
       6       -0.000007972113    -0.000008211455    -0.000002214105
       7        0.000005295938     0.000000777032    -0.000001420547
       8       -0.000014852068     0.000004207664     0.000001732577
       9        0.000002935326    -0.000015191023    -0.000004004773
      10        0.000002175093     0.000001060824    -0.000001049817
      11        0.000002540010     0.000001444509     0.000002370396
      12        0.000005919160    -0.000002256566    -0.000000343719

  **** Optimization is complete! (in 4 steps) ****
    Final optimized geometry and variables:
    Molecular point group: c1

    Geometry (in Angstrom), charge = 0, multiplicity = 1:

    H            0.661366865990     1.826849735685     0.332081490017
    O            0.067788473951     1.299210803006    -0.169170765042
    C            0.004789298337    -0.004379747252     0.362920563222
    C            1.198422530744    -0.829235740930    -0.095798651498
    C           -1.313873482573    -0.605421142432    -0.086673101093
    H            0.008530093265     0.049463641222     1.449496608914
    H            1.212466368014    -0.897452366789    -1.177198476824
    H            2.128959187883    -0.372791400439     0.224646849805
    H            1.159057948731    -1.832378441256     0.314366061332
    H           -1.358806735348    -0.639514313961    -1.169127431489
    H           -2.142182771488    -0.005521412382     0.267619711312
    H           -1.427613881547    -1.613711069558     0.294404917986

  Mulliken Charges: (a.u.)
   Center  Symbol    Alpha    Beta     Spin     Total
       1     H     0.39465  0.39465  0.00000  0.21070
       2     O     4.20653  4.20653  0.00000 -0.41306
       3     C     2.92423  2.92423  0.00000  0.15154
       4     C     3.14145  3.14145  0.00000 -0.28290
       5     C     3.14076  3.14076  0.00000 -0.28152
       6     H     0.46664  0.46664  0.00000  0.06673
       7     H     0.45181  0.45181  0.00000  0.09638
       8     H     0.45685  0.45685  0.00000  0.08630
       9     H     0.45781  0.45781  0.00000  0.08438
      10     H     0.45199  0.45199  0.00000  0.09603
      11     H     0.44817  0.44817  0.00000  0.10366
      12     H     0.45913  0.45913  0.00000  0.08175

   Total alpha = 17.00000, Total beta = 17.00000, Total charge =  0.00000
