                              Psi4 1.0.54 Driver

  ==> Input File <==

--------------------------------------------------------------------------
set {
	reference rhf
	basis cc-pvtz
}

set_num_threads( 4 )
memory 2 gb

molecule MOL {
0 1

H	 2.765033	 -0.508441	 -0.448237
O	 2.012307	 -0.863440	 0.000222
C	 1.050374	 0.054877	 0.000135
C	 -0.318151	 -0.570512	 0.000144
O	 1.286319	 1.213453	 -0.000040
C	 -1.454884	 0.441630	 -0.000560
H	 -0.371613	 -1.223646	 -0.864985
H	 -0.371920	 -1.222758	 0.865929
C	 -2.822577	 -0.232186	 0.000063
H	 -1.359760	 1.084704	 -0.867077
H	 -1.359641	 1.085996	 0.864983
H	 -2.954352	 -0.858985	 -0.875745
H	 -3.615886	 0.505352	 0.000019
H	 -2.953878	 -0.858359	 0.876394

	symmetry c1
}
set optking {
	frozen_dihedral = ("
		1 2 3 5
	")
}

ee,wfn = optimize('scf', return_wfn=True)
oeprop( wfn, 'DIPOLE', 'QUADRUPOLE', 'MULLIKEN_CHARGES')
f=open( 'psi4out.xyz', 'w' )
f.write( "14  " )
f.write( str(ee) + "\n" )
f.write( MOL.save_string_xyz() )
f.close()
--------------------------------------------------------------------------

    Molecular point group: c1
  Charge       = 0
  Multiplicity = 1
  Basis Set: CC-PVTZ
  Basis Set:
  @DF-RHF Final Energy:  -305.99603857620917
    Total Energy =                       -305.9960385762088322
    Molecular point group: c1
  Basis Set: CC-PVTZ
  Basis Set:
  Basis Set: CC-PVTZ
  Basis Set:
  @DF-RHF Final Energy:  -305.99239322274229
    Total Energy =                       -305.9923932227424075
  Basis Set: CC-PVTZ
  Basis Set:
  Basis Set: CC-PVTZ
  Basis Set:
  @DF-RHF Final Energy:  -305.99642482421757
    Total Energy =                       -305.9964248242176268
  Basis Set: CC-PVTZ
  Basis Set:
  Basis Set: CC-PVTZ
  Basis Set:
  @DF-RHF Final Energy:  -305.99650351143009
    Total Energy =                       -305.9965035114303760
  Basis Set: CC-PVTZ
  Basis Set:
  Basis Set: CC-PVTZ
  Basis Set:
  @DF-RHF Final Energy:  -305.99651482103832
    Total Energy =                       -305.9965148210381471
  Basis Set: CC-PVTZ
  Basis Set:
  Basis Set: CC-PVTZ
  Basis Set:
  @DF-RHF Final Energy:  -305.99651901478012
    Total Energy =                       -305.9965190147798921
  Basis Set: CC-PVTZ
  Basis Set:
  Charge       = 0
  Multiplicity = 1
  Basis Set: CC-PVTZ
  Basis Set:

    Orbital Energies (a.u.)
    -----------------------

    Doubly Occupied:

       1A    -20.600652     2A    -20.543123     3A    -11.374182
       4A    -11.239602     5A    -11.223744     6A    -11.215419
       7A     -1.474147     8A     -1.370353     9A     -1.084102
      10A     -0.980234    11A     -0.858276    12A     -0.793726
      13A     -0.705659    14A     -0.689999    15A     -0.667585
      16A     -0.623730    17A     -0.587221    18A     -0.573892
      19A     -0.546419    20A     -0.506818    21A     -0.492954
      22A     -0.485003    23A     -0.482557    24A     -0.447478

  @DF-RHF Final Energy:  -305.99651914516676

   => Energetics <=

    Nuclear Repulsion Energy =            240.2746148896019349
    One-Electron Energy =                -893.4085225086562332
    Two-Electron Energy =                 347.1373884738874835
    DFT Exchange-Correlation Energy =       0.0000000000000000
    Empirical Dispersion Energy =           0.0000000000000000
    PCM Polarization Energy =               0.0000000000000000
    EFP Energy =                            0.0000000000000000
    Total Energy =                       -305.9965191451668147
    Molecular point group: c1
  Basis Set: CC-PVTZ
  Basis Set:

  -Total Gradient:
     Atom            X                  Y                   Z
    ------   -----------------  -----------------  -----------------
       1       -0.002538245243    -0.003894818452    -0.008150031989
       2        0.002831778867     0.004974484011     0.014096688198
       3        0.000508635789    -0.001574937342    -0.014581754684
       4       -0.000020951521     0.000032266500     0.000082226268
       5       -0.000790245605     0.000463521153     0.008523431655
       6        0.000004350936    -0.000007861493    -0.000009993955
       7        0.000009053124    -0.000014621924     0.000018771060
       8       -0.000005613306     0.000018425462     0.000020398569
       9       -0.000001166321    -0.000001198427     0.000002910539
      10       -0.000000143927     0.000004260061    -0.000003275507
      11        0.000000830804     0.000001336840     0.000000665202
      12        0.000000420978     0.000000677610    -0.000000343558
      13        0.000001978056     0.000000633234     0.000001076055
      14       -0.000000682625    -0.000002167232    -0.000000767853

  **** Optimization is complete! (in 7 steps) ****
    Final optimized geometry and variables:
    Molecular point group: c1

    Geometry (in Angstrom), charge = 0, multiplicity = 1:

    H            2.809761719627    -0.539117940168    -0.296106839267
    O            2.016082035308    -0.857472968428     0.105071797228
    C            1.051523821593     0.058516128820    -0.030061287450
    C           -0.316258501023    -0.567599403341    -0.014423332301
    O            1.282221342220     1.215105390498    -0.080631858209
    C           -1.455825777373     0.440693092753     0.010620508626
    H           -0.380317277061    -1.211584063949    -0.886431582729
    H           -0.354565050129    -1.231073070721     0.843391631034
    C           -2.821656681649    -0.236852514060     0.021010386031
    H           -1.373347457864     1.094234472462    -0.849183169498
    H           -1.351554711548     1.075129702332     0.882734319765
    H           -2.962927063600    -0.853722220210    -0.860404000383
    H           -3.616907240480     0.498364952474     0.039698013205
    H           -2.940038412099    -0.873645411750     0.891469162671

  Mulliken Charges: (a.u.)
   Center  Symbol    Alpha    Beta     Spin     Total
       1     H     0.38093  0.38093  0.00000  0.23814
       2     O     4.16580  4.16580  0.00000 -0.33160
       3     C     2.80578  2.80578  0.00000  0.38844
       4     C     3.10508  3.10508  0.00000 -0.21017
       5     O     4.18417  4.18417  0.00000 -0.36834
       6     C     3.07988  3.07988  0.00000 -0.15975
       7     H     0.44167  0.44167  0.00000  0.11666
       8     H     0.43811  0.43811  0.00000  0.12377
       9     C     3.15003  3.15003  0.00000 -0.30006
      10     H     0.44594  0.44594  0.00000  0.10812
      11     H     0.44644  0.44644  0.00000  0.10712
      12     H     0.45574  0.45574  0.00000  0.08852
      13     H     0.44515  0.44515  0.00000  0.10971
      14     H     0.45528  0.45528  0.00000  0.08944

   Total alpha = 24.00000, Total beta = 24.00000, Total charge = -0.00000

*** Psi4 exiting successfully. Buy a developer a beer!
