  ==> Input File <==

--------------------------------------------------------------------------
set {
	reference rhf
	basis 6-31G*
}

set_num_threads( 4 )
memory 2 gb

molecule MOL {
0 1

H	 -1.097331	 -0.823443	 -0.861516
N	 -0.626943	 -0.667432	 -0.000092
C	 -1.147624	 -1.304312	 1.188181
C	 0.469286	 0.129090	 0.000148
H	 -2.164451	 -0.982777	 1.387388
H	 -0.522909	 -1.025559	 2.021101
H	 -1.137758	 -2.384412	 1.086604
C	 1.788933	 -0.616240	 -0.000037
O	 0.411098	 1.327768	 -0.000049
H	 1.872803	 -1.245775	 -0.880381
H	 2.595421	 0.101576	 0.003713
H	 1.870096	 -1.252171	 0.875943

	symmetry c1
}
set optking {
	frozen_dihedral = ("
		3 2 4 9
	")
}

ee = optimize('scf')
oeprop('DIPOLE', 'QUADRUPOLE', 'MULLIKEN_CHARGES')
f=open( 'psi4out.xyz', 'w' )
f.write( "12  " )
f.write( str(ee) + "\n" )
f.write( MOL.save_string_xyz() )
f.close()
--------------------------------------------------------------------------

    Molecular point group: c1
  Charge       = 0
  Multiplicity = 1
  Basis Set: 6-31G*
  Basis Set:
  @DF-RHF Final Energy:  -246.96414962467622
    Total Energy =                       -246.9641496246763381
    Molecular point group: c1
  Basis Set: 6-31G*
  Basis Set:
  Basis Set: 6-31G*
  Basis Set:
  @DF-RHF Final Energy:  -246.96908360252834
    Total Energy =                       -246.9690836025282579
  Basis Set: 6-31G*
  Basis Set:
  Basis Set: 6-31G*
  Basis Set:
  @DF-RHF Final Energy:  -246.97383882827646
    Total Energy =                       -246.9738388282767119
  Basis Set: 6-31G*
  Basis Set:
  Basis Set: 6-31G*
  Basis Set:
  @DF-RHF Final Energy:  -246.97068293233374
    Total Energy =                       -246.9706829323337729
  Basis Set: 6-31G*
  Basis Set:
  @DF-RHF Final Energy:  -246.98297848104895
    Total Energy =                       -246.9829784810487467
  @DF-RHF Final Energy:  -246.98376571858958
    Total Energy =                       -246.9837657185896660
  @DF-RHF Final Energy:  -246.98649631107378
    Total Energy =                       -246.9864963110736085
  @DF-RHF Final Energy:  -246.98729203064073
    Total Energy =                       -246.9872920306407877
  @DF-RHF Final Energy:  -246.98810997437224
    Total Energy =                       -246.9881099743723780
  Basis Set: 6-31G*
  Basis Set:
  @DF-RHF Final Energy:  -246.98834665410786
    Total Energy =                       -246.9883466541076587
  Basis Set: 6-31G*
  Basis Set:
  Basis Set: 6-31G*
  Basis Set:
  @DF-RHF Final Energy:  -246.98835977370791
    Total Energy =                       -246.9883597737078844
  Basis Set: 6-31G*
  Basis Set:
  Basis Set: 6-31G*
  Basis Set:
  @DF-RHF Final Energy:  -246.98836154193319
    Total Energy =                       -246.9883615419330454
  Basis Set: 6-31G*
  Basis Set:
  Charge       = 0
  Multiplicity = 1
  Basis Set: 6-31G*
  Basis Set:

    Orbital Energies (a.u.)
    -----------------------

    Doubly Occupied:

       1A    -20.547590     2A    -15.567369     3A    -11.351033
       4A    -11.264915     5A    -11.230050     6A     -1.407619
       7A     -1.220516     8A     -1.009537     9A     -0.938310
      10A     -0.768063    11A     -0.679245    12A     -0.660281
      13A     -0.631706    14A     -0.600998    15A     -0.576678
      16A     -0.566050    17A     -0.547595    18A     -0.498667
      19A     -0.436236    20A     -0.397608

  @DF-RHF Final Energy:  -246.98836199752304

   => Energetics <=

    Nuclear Repulsion Energy =            180.9595193269777269
    One-Electron Energy =                -694.0956315722976342
    Two-Electron Energy =                 266.1477502477968073
    DFT Exchange-Correlation Energy =       0.0000000000000000
    Empirical Dispersion Energy =           0.0000000000000000
    PCM Polarization Energy =               0.0000000000000000
    EFP Energy =                            0.0000000000000000
    Total Energy =                       -246.9883619975231568
    Molecular point group: c1
  Basis Set: 6-31G*
  Basis Set:

  -Total Gradient:
     Atom            X                  Y                   Z
    ------   -----------------  -----------------  -----------------
       1       -0.000002343138     0.000000982563    -0.000005961021
       2        0.005839749426    -0.005626535500     0.004447257076
       3       -0.004418186742     0.004445819099    -0.000579799261
       4        0.000021994520    -0.000376065238    -0.011867994912
       5       -0.000008278165     0.000010055837     0.000014323131
       6       -0.000003904190    -0.000018152835    -0.000006465583
       7        0.000006269243    -0.000001463725    -0.000020061603
       8        0.000020330082    -0.000014540776    -0.000041971959
       9       -0.001433397295     0.001605429897     0.008001286511
      10        0.000002761450    -0.000020758142     0.000027351203
      11       -0.000022261305    -0.000004256723     0.000009121528
      12       -0.000002733887    -0.000000514460     0.000022914892

  **** Optimization is complete! (in 13 steps) ****
    Final optimized geometry and variables:
    Molecular point group: c1

    Geometry (in Angstrom), charge = 0, multiplicity = 1:

    H           -1.481245034771    -0.300095706125    -0.805786180620
    N           -0.711793677739    -0.662776737636    -0.274208095900
    C           -1.215050456850    -1.007846760408     1.056467496887
    C            0.281634187927     0.334552177322    -0.302702348139
    H           -1.604710606899    -0.146784789278     1.593974784130
    H           -0.432930350366    -1.462328651855     1.651002419387
    H           -2.006097856034    -1.736850228765     0.943376220994
    C            1.676297442118    -0.137258184703     0.026019887745
    O            0.032175952526     1.467771504723    -0.575275496058
    H            2.055189165303    -0.703701986485    -0.818721839355
    H            2.318058317779     0.712934950111     0.206730728443
    H            1.685632464596    -0.797807415524     0.884639947812

  Mulliken Charges: (a.u.)
   Center  Symbol    Alpha    Beta     Spin     Total
       1     H     0.31911  0.31911  0.00000  0.36179
       2     N     3.86387  3.86387  0.00000 -0.72774
       3     C     3.15988  3.15988  0.00000 -0.31977
       4     C     2.67219  2.67219  0.00000  0.65561
       5     H     0.41470  0.41470  0.00000  0.17060
       6     H     0.41180  0.41180  0.00000  0.17640
       7     H     0.40596  0.40596  0.00000  0.18807
       8     C     3.28087  3.28087  0.00000 -0.56173
       9     O     4.26498  4.26498  0.00000 -0.52995
      10     H     0.39866  0.39866  0.00000  0.20268
      11     H     0.39825  0.39825  0.00000  0.20350
      12     H     0.40973  0.40973  0.00000  0.18054

   Total alpha = 20.00000, Total beta = 20.00000, Total charge =  0.00000
