  ==> Input File <==

--------------------------------------------------------------------------
set {
	reference rhf
	basis 6-31G*
}

set_num_threads( 1 )
memory 2 gb

molecule MOL {
0 1

O	 1.780271	 1.411520	 0.338969
C	 1.505292	 0.462126	 0.999390
C	 0.185745	 -0.270144	 0.978341
O	 2.349119	 -0.092570	 1.860438
C	 -0.823008	 0.326187	 0.001381
H	 0.395190	 -1.309922	 0.742314
H	 -0.201827	 -0.270057	 1.993480
C	 -2.149452	 -0.435131	 -0.000098
H	 -0.396738	 0.326666	 -0.996858
H	 -0.995266	 1.367201	 0.256188
C	 -3.368779	 0.488503	 -0.000883
H	 -2.193746	 -1.087250	 -0.871175
H	 -2.195311	 -1.087803	 0.870418
C	 -4.693822	 -0.272754	 -0.001129
H	 -3.325798	 1.139422	 -0.871284
H	 -3.326423	 1.139959	 0.869145
H	 -4.781274	 -0.907928	 -0.878124
H	 -5.538651	 0.408946	 -0.001420
H	 -4.781694	 -0.907783	 0.875984
C	 3.630179	 0.499301	 1.976759
H	 4.150143	 0.469087	 1.030052
H	 4.159545	 -0.085146	 2.713012
H	 3.546340	 1.525895	 2.303226

	symmetry c1
}
set optking {
	frozen_dihedral = ("
		15 11 8 12,
		1 2 3 6,
		9 5 3 6,
		1 2 4 20
	")
}

ee = energy('scf')
oeprop('DIPOLE', 'QUADRUPOLE', 'MULLIKEN_CHARGES')
f=open( 'psi4out.xyz', 'w' )
f.write( "23  " )
f.write( str(ee) + "\n" )
f.write( MOL.save_string_xyz() )
f.close()
--------------------------------------------------------------------------

    Molecular point group: c1

    Geometry (in Angstrom), charge = 0, multiplicity = 1:

       Center              X                  Y                   Z               Mass
    ------------   -----------------  -----------------  -----------------  -----------------
           O          1.919576692117     1.170162356277    -0.358361695966    15.994914619560
           C          1.644597692117     0.220768356277     0.302059304034    12.000000000000
           C          0.325050692117    -0.511501643723     0.281010304034    12.000000000000
           O          2.488424692117    -0.333927643723     1.163107304034    15.994914619560
           C         -0.683702307883     0.084829356277    -0.695949695966    12.000000000000
           H          0.534495692117    -1.551279643723     0.044983304034     1.007825032070
           H         -0.062521307883    -0.511414643723     1.296149304034     1.007825032070
           C         -2.010146307883    -0.676488643723    -0.697428695966    12.000000000000
           H         -0.257432307883     0.085308356277    -1.694188695966     1.007825032070
           H         -0.855960307883     1.125843356277    -0.441142695966     1.007825032070
           C         -3.229473307883     0.247145356277    -0.698213695966    12.000000000000
           H         -2.054440307883    -1.328607643723    -1.568505695966     1.007825032070
           H         -2.056005307883    -1.329160643723     0.173087304034     1.007825032070
           C         -4.554516307883    -0.514111643723    -0.698459695966    12.000000000000
           H         -3.186492307883     0.898064356277    -1.568614695966     1.007825032070
           H         -3.187117307883     0.898601356277     0.171814304034     1.007825032070
           H         -4.641968307883    -1.149285643723    -1.575454695966     1.007825032070
           H         -5.399345307883     0.167588356277    -0.698750695966     1.007825032070
           H         -4.642388307883    -1.149140643723     0.178653304034     1.007825032070
           C          3.769484692117     0.257943356277     1.279428304034    12.000000000000
           H          4.289448692117     0.227729356277     0.332721304034     1.007825032070
           H          4.298850692117    -0.326503643723     2.015681304034     1.007825032070
           H          3.685645692117     1.284537356277     1.605895304034     1.007825032070

  Charge       = 0
  Multiplicity = 1
  Basis Set: 6-31G*
  Basis Set:

    Orbital Energies (a.u.)
    -----------------------

    Doubly Occupied:

       1A    -20.603455     2A    -20.545289     3A    -11.371788
       4A    -11.280745     5A    -11.235814     6A    -11.217850
       7A    -11.217215     8A    -11.216300     9A    -11.209442
      10A     -1.469156    11A     -1.362587    12A     -1.093446
      13A     -1.043303    14A     -0.986868    15A     -0.931959
      16A     -0.844084    17A     -0.795184    18A     -0.767467
      19A     -0.698943    20A     -0.682752    21A     -0.672002
      22A     -0.644290    23A     -0.614458    24A     -0.598961
      25A     -0.572463    26A     -0.559509    27A     -0.556366
      28A     -0.526779    29A     -0.521103    30A     -0.502920
      31A     -0.489401    32A     -0.470704    33A     -0.463993
      34A     -0.459030    35A     -0.453265    36A     -0.434808

  @DF-RHF Final Energy:  -422.97156834641356

   => Energetics <=

    Nuclear Repulsion Energy =            453.2391915004218959
    One-Electron Energy =               -1474.1942182167983901
    Two-Electron Energy =                 597.9834583699629320
    DFT Exchange-Correlation Energy =       0.0000000000000000
    Empirical Dispersion Energy =           0.0000000000000000
    PCM Polarization Energy =               0.0000000000000000
    EFP Energy =                            0.0000000000000000
    Total Energy =                       -422.9715683464136191

  Mulliken Charges: (a.u.)
   Center  Symbol    Alpha    Beta     Spin     Total
       1     O     4.28599  4.28599  0.00000 -0.57197
       2     C     2.60550  2.60550  0.00000  0.78901
       3     C     3.21061  3.21061  0.00000 -0.42121
       4     O     4.30740  4.30740  0.00000 -0.61480
       5     C     3.15439  3.15439  0.00000 -0.30877
       6     H     0.40013  0.40013  0.00000  0.19975
       7     H     0.40060  0.40060  0.00000  0.19880
       8     C     3.15547  3.15547  0.00000 -0.31094
       9     H     0.40962  0.40962  0.00000  0.18075
      10     H     0.40958  0.40958  0.00000  0.18085
      11     C     3.15368  3.15368  0.00000 -0.30736
      12     H     0.41992  0.41992  0.00000  0.16016
      13     H     0.42304  0.42304  0.00000  0.15392
      14     C     3.24017  3.24017  0.00000 -0.48034
      15     H     0.42026  0.42026  0.00000  0.15948
      16     H     0.42239  0.42239  0.00000  0.15522
      17     H     0.42146  0.42146  0.00000  0.15709
      18     H     0.41868  0.41868  0.00000  0.16264
      19     H     0.42199  0.42199  0.00000  0.15602
      20     C     3.09244  3.09244  0.00000 -0.18489
      21     H     0.40907  0.40907  0.00000  0.18185
      22     H     0.40849  0.40849  0.00000  0.18302
      23     H     0.40913  0.40913  0.00000  0.18174

   Total alpha = 36.00000, Total beta = 36.00000, Total charge = -0.00000
