  ==> Input File <==

--------------------------------------------------------------------------
set {
	reference rhf
	basis cc-pvtz
}

set_num_threads( 4 )
memory 2 gb

molecule MOL {
0 1

O	 -0.242604	 1.188814	 -0.773229
C	 -0.421007	 0.076519	 -0.411494
C	 -1.756569	 -0.608451	 -0.359105
O	 0.550743	 -0.719877	 0.000412
H	 -1.734774	 -1.494288	 -0.980573
H	 -2.522928	 0.067468	 -0.701683
H	 -1.963052	 -0.923711	 0.655494
C	 1.863204	 -0.194033	 0.000410
H	 2.031502	 0.409177	 -0.879273
H	 2.524488	 -1.045142	 0.000793
H	 2.031291	 0.409823	 0.879686

	symmetry c1
}
set optking {
	frozen_dihedral = ("
		2 4 8 9
	")
}

ee = optimize('scf')
oeprop('DIPOLE', 'QUADRUPOLE', 'MULLIKEN_CHARGES')
f=open( 'psi4out.xyz', 'w' )
f.write( "11  " )
f.write( str(ee) + "\n" )
f.write( MOL.save_string_xyz() )
f.close()
--------------------------------------------------------------------------

    Molecular point group: c1
  Charge       = 0
  Multiplicity = 1
  Basis Set: CC-PVTZ
  Basis Set:
  @DF-RHF Final Energy:  -266.93856224446608
    Total Energy =                       -266.9385622444658566
    Molecular point group: c1
  Basis Set: CC-PVTZ
  Basis Set:
  Basis Set: CC-PVTZ
  Basis Set:
  @DF-RHF Final Energy:  -266.93860897378931
    Total Energy =                       -266.9386089737894281
  Basis Set: CC-PVTZ
  Basis Set:
  Basis Set: CC-PVTZ
  Basis Set:
  @DF-RHF Final Energy:  -266.93849896993862
    Total Energy =                       -266.9384989699386779
  Basis Set: CC-PVTZ
  Basis Set:
  Basis Set: CC-PVTZ
  Basis Set:
  @DF-RHF Final Energy:  -266.93865371161598
    Total Energy =                       -266.9386537116158706
  Basis Set: CC-PVTZ
  Basis Set:
  Charge       = 0
  Multiplicity = 1
  Basis Set: CC-PVTZ
  Basis Set:

    Orbital Energies (a.u.)
    -----------------------

    Doubly Occupied:

       1A    -20.598486     2A    -20.535108     3A    -11.369196
       4A    -11.279601     5A    -11.233087     6A     -1.473625
       7A     -1.367836     8A     -1.037023     9A     -0.953844
      10A     -0.780049    11A     -0.698645    12A     -0.683719
      13A     -0.681147    14A     -0.596518    15A     -0.593235
      16A     -0.561987    17A     -0.528095    18A     -0.524018
      19A     -0.461390    20A     -0.445854

  @DF-RHF Final Energy:  -266.93866012980516

   => Energetics <=

    Nuclear Repulsion Energy =            183.5860136613513305
    One-Electron Energy =                -728.2444221121220380
    Two-Electron Energy =                 277.7197483209655502
    DFT Exchange-Correlation Energy =       0.0000000000000000
    Empirical Dispersion Energy =           0.0000000000000000
    PCM Polarization Energy =               0.0000000000000000
    EFP Energy =                            0.0000000000000000
    Total Energy =                       -266.9386601298051573
    Molecular point group: c1
  Basis Set: CC-PVTZ
  Basis Set:

  -Total Gradient:
     Atom            X                  Y                   Z
    ------   -----------------  -----------------  -----------------
       1        0.000066791954    -0.000065740874     0.000049462022
       2        0.000081119726    -0.000364053456    -0.001263602466
       3        0.000005980822    -0.000021711221     0.000002610753
       4       -0.000309532142     0.000995193381     0.001948749223
       5       -0.000009135032    -0.000012359833     0.000008205039
       6        0.000012831496     0.000002102894     0.000002421578
       7       -0.000009895709    -0.000003959894     0.000002042215
       8        0.000676254205    -0.001706758095    -0.001464419982
       9       -0.000472105921     0.001208712555     0.000721310414
      10       -0.000000999387    -0.000013249377    -0.000007531397
      11       -0.000041310014    -0.000018176081     0.000000752601

  **** Optimization is complete! (in 5 steps) ****
    Final optimized geometry and variables:
    Molecular point group: c1

    Geometry (in Angstrom), charge = 0, multiplicity = 1:

    O           -0.274321162560     1.248191621732    -0.456305304014
    C           -0.443216369666     0.131775730208    -0.103165756198
    C           -1.773587356648    -0.564076217937    -0.059427118816
    O            0.531174994307    -0.661929873298     0.308634024036
    H           -1.743383041505    -1.445516024835    -0.686717711683
    H           -2.544243221603     0.108440736273    -0.399040771308
    H           -1.980023159787    -0.887717405340     0.952548786067
    C            1.850758504817    -0.153355811262     0.295124612944
    H            2.025570112312     0.438093246906    -0.588947573842
    H            2.505845365581    -1.008914826489     0.321181502378
    H            2.018214983789     0.464524105775     1.166593445354

  Mulliken Charges: (a.u.)
   Center  Symbol    Alpha    Beta     Spin     Total
       1     O     4.19701  4.19701  0.00000 -0.39402
       2     C     2.80066  2.80066  0.00000  0.39867
       3     C     3.13859  3.13859  0.00000 -0.27718
       4     O     4.14831  4.14831  0.00000 -0.29663
       5     H     0.44570  0.44570  0.00000  0.10859
       6     H     0.43789  0.43789  0.00000  0.12422
       7     H     0.44520  0.44520  0.00000  0.10960
       8     C     3.03384  3.03384  0.00000 -0.06768
       9     H     0.44975  0.44975  0.00000  0.10051
      10     H     0.44650  0.44650  0.00000  0.10701
      11     H     0.45655  0.45655  0.00000  0.08690

   Total alpha = 20.00000, Total beta = 20.00000, Total charge = -0.00000
