  ==> Input File <==

--------------------------------------------------------------------------
set {
	reference rhf
	basis 6-31G*
}

set_num_threads( 4 )
memory 2 gb

molecule MOL {
0 1

O	 -1.487788	 1.240889	 -0.102860
C	 -1.083277	 0.139568	 0.115197
C	 0.323299	 -0.082943	 0.642902
C	 -1.933017	 -1.084621	 -0.143902
C	 1.355627	 -0.005344	 -0.493127
H	 0.396251	 -1.044647	 1.143147
H	 0.528637	 0.693580	 1.371677
C	 1.666419	 1.434147	 -0.898738
H	 2.274881	 -0.500674	 -0.188344
H	 0.972706	 -0.555802	 -1.346068
H	 2.392144	 1.461944	 -1.705114
H	 2.074425	 1.999088	 -0.065553
H	 0.771315	 1.945453	 -1.239917
H	 -1.393885	 -1.806447	 -0.750509
H	 -2.850323	 -0.799888	 -0.640100
H	 -2.169004	 -1.571158	 0.798858

	symmetry c1
}
set optking {
	frozen_dihedral = ("
		9 5 3 2
	")
}

ee = optimize('scf')
oeprop('DIPOLE', 'QUADRUPOLE', 'MULLIKEN_CHARGES')
f=open( 'psi4out.xyz', 'w' )
f.write( "16  " )
f.write( str(ee) + "\n" )
f.write( MOL.save_string_xyz() )
f.close()
--------------------------------------------------------------------------

    Molecular point group: c1
  Charge       = 0
  Multiplicity = 1
  Basis Set: 6-31G*
  Basis Set:
  @DF-RHF Final Energy:  -270.02852103838717
    Total Energy =                       -270.0285210383869980
    Molecular point group: c1
  Basis Set: 6-31G*
  Basis Set:
  Basis Set: 6-31G*
  Basis Set:
  @DF-RHF Final Energy:  -270.02888897648495
    Total Energy =                       -270.0288889764849500
  Basis Set: 6-31G*
  Basis Set:
  Basis Set: 6-31G*
  Basis Set:
  @DF-RHF Final Energy:  -270.02814907679817
    Total Energy =                       -270.0281490767982859
  Basis Set: 6-31G*
  Basis Set:
  Basis Set: 6-31G*
  Basis Set:
  @DF-RHF Final Energy:  -270.02899359777246
    Total Energy =                       -270.0289935977723985
  Basis Set: 6-31G*
  Basis Set:
  Basis Set: 6-31G*
  Basis Set:
  @DF-RHF Final Energy:  -270.02903456054560
    Total Energy =                       -270.0290345605455400
  Basis Set: 6-31G*
  Basis Set:
  Basis Set: 6-31G*
  Basis Set:
  @DF-RHF Final Energy:  -270.02905264660512
    Total Energy =                       -270.0290526466052370
  Basis Set: 6-31G*
  Basis Set:
  Basis Set: 6-31G*
  Basis Set:
  @DF-RHF Final Energy:  -270.02905486293162
    Total Energy =                       -270.0290548629315026
  Basis Set: 6-31G*
  Basis Set:
  Charge       = 0
  Multiplicity = 1
  Basis Set: 6-31G*
  Basis Set:

    Orbital Energies (a.u.)
    -----------------------

    Doubly Occupied:

       1A    -20.548953     2A    -11.325410     3A    -11.234591
       4A    -11.230345     5A    -11.228733     6A    -11.211715
       7A     -1.394091     8A     -1.081218     9A     -1.011609
      10A     -0.946833    11A     -0.830998    12A     -0.733315
      13A     -0.657213    14A     -0.644874    15A     -0.617861
      16A     -0.589964    17A     -0.587512    18A     -0.560805
      19A     -0.539312    20A     -0.507698    21A     -0.497350
      22A     -0.487441    23A     -0.471444    24A     -0.397555

  @DF-RHF Final Energy:  -270.02905556439555

   => Energetics <=

    Nuclear Repulsion Energy =            241.0665217430829159
    One-Electron Energy =                -843.5174751468314298
    Two-Electron Energy =                 332.4218978393529937
    DFT Exchange-Correlation Energy =       0.0000000000000000
    Empirical Dispersion Energy =           0.0000000000000000
    PCM Polarization Energy =               0.0000000000000000
    EFP Energy =                            0.0000000000000000
    Total Energy =                       -270.0290555643954917
    Molecular point group: c1
  Basis Set: 6-31G*
  Basis Set:

  -Total Gradient:
     Atom            X                  Y                   Z
    ------   -----------------  -----------------  -----------------
       1       -0.000002191577    -0.000000464950     0.000014402657
       2       -0.000203551868    -0.001584767953    -0.000258314661
       3        0.000107600108     0.001738361441     0.000105692990
       4       -0.000040152853    -0.000002331310     0.000071166298
       5        0.000917716879     0.001749937374     0.000843441384
       6       -0.000013685831     0.000004314003     0.000002582276
       7        0.000003414748    -0.000011311863     0.000002101617
       8       -0.000025903487     0.000025554453    -0.000020666079
       9       -0.000807437554    -0.001916927051    -0.000726860076
      10        0.000012988338     0.000013913183     0.000012928986
      11        0.000006787763    -0.000002284126    -0.000015965912
      12        0.000000722666    -0.000013600216     0.000006260914
      13        0.000011187557     0.000003518296     0.000002365632
      14        0.000011106306     0.000003746622    -0.000018593708
      15        0.000011875557     0.000010067019    -0.000006350623
      16        0.000009523248    -0.000017724924    -0.000014191694

  **** Optimization is complete! (in 8 steps) ****
    Final optimized geometry and variables:
    Molecular point group: c1

    Geometry (in Angstrom), charge = 0, multiplicity = 1:

    O           -1.366115947444     0.964589768076     0.234852519896
    C           -0.889181329036    -0.127260665416     0.311135206862
    C            0.529516573854    -0.341041824001     0.806489332504
    C           -1.671445563168    -1.359035506535    -0.092722090061
    C            1.549114872272    -0.303258539548    -0.350865975524
    H            0.592321998622    -1.301524516051     1.310073715934
    H            0.757883122550     0.434425237466     1.528464146069
    C            1.863187432942     1.110321266059    -0.837474034706
    H            2.458584992448    -0.798352518635    -0.024639664002
    H            1.177175457044    -0.899283982040    -1.181721102680
    H            2.559060467143     1.084267837685    -1.670199662375
    H            2.313858493903     1.700094944584    -0.045055818139
    H            0.966497628249     1.625533030647    -1.161813817574
    H           -1.083625285778    -2.007555256775    -0.734575018094
    H           -2.581506283052    -1.067149484000    -0.598048232181
    H           -1.924615506161    -1.930952054357     0.796258572452

  Mulliken Charges: (a.u.)
   Center  Symbol    Alpha    Beta     Spin     Total
       1     O     4.26096  4.26096  0.00000 -0.52191
       2     C     2.73849  2.73849  0.00000  0.52303
       3     C     3.20181  3.20181  0.00000 -0.40361
       4     C     3.28920  3.28920  0.00000 -0.57840
       5     C     3.16316  3.16316  0.00000 -0.32632
       6     H     0.41476  0.41476  0.00000  0.17049
       7     H     0.40023  0.40023  0.00000  0.19954
       8     C     3.24127  3.24127  0.00000 -0.48253
       9     H     0.41363  0.41363  0.00000  0.17274
      10     H     0.41963  0.41963  0.00000  0.16074
      11     H     0.41929  0.41929  0.00000  0.16143
      12     H     0.41919  0.41919  0.00000  0.16162
      13     H     0.40559  0.40559  0.00000  0.18882
      14     H     0.40988  0.40988  0.00000  0.18025
      15     H     0.39686  0.39686  0.00000  0.20627
      16     H     0.40608  0.40608  0.00000  0.18783

   Total alpha = 24.00000, Total beta = 24.00000, Total charge =  0.00000
