  ==> Input File <==

--------------------------------------------------------------------------
set {
	reference rhf
	basis 6-31G*
}

set_num_threads( 4 )
memory 2 gb

molecule MOL {
0 1

H	 1.511721	 1.307384	 -0.113321
C	 0.850167	 0.441173	 0.000644
C	 -0.623425	 0.760064	 0.000248
O	 1.307703	 -0.649904	 0.109987
C	 -1.518387	 -0.473136	 -0.000101
H	 -0.818289	 1.390622	 -0.866171
H	 -0.818694	 1.390413	 0.866696
H	 -1.333417	 -1.085530	 -0.874338
H	 -2.563510	 -0.183466	 -0.000351
H	 -1.333864	 -1.085676	 0.874123

	symmetry c1
}
set optking {
	frozen_dihedral = ("
		4 2 3 6
	")
}

ee = optimize('scf')
oeprop('DIPOLE', 'QUADRUPOLE', 'MULLIKEN_CHARGES')
f=open( 'psi4out.xyz', 'w' )
f.write( "10  " )
f.write( str(ee) + "\n" )
f.write( MOL.save_string_xyz() )
f.close()
--------------------------------------------------------------------------

    Molecular point group: c1
  Charge       = 0
  Multiplicity = 1
  Basis Set: 6-31G*
  Basis Set:
  @DF-RHF Final Energy:  -191.95193861935519
    Total Energy =                       -191.9519386193551327
    Molecular point group: c1
  Basis Set: 6-31G*
  Basis Set:
  Basis Set: 6-31G*
  Basis Set:
  @DF-RHF Final Energy:  -191.95144482687496
    Total Energy =                       -191.9514448268750471
  Basis Set: 6-31G*
  Basis Set:
  Basis Set: 6-31G*
  Basis Set:
  @DF-RHF Final Energy:  -191.95196436164804
    Total Energy =                       -191.9519643616479811
  Basis Set: 6-31G*
  Basis Set:
  Charge       = 0
  Multiplicity = 1
  Basis Set: 6-31G*
  Basis Set:

    Orbital Energies (a.u.)
    -----------------------

    Doubly Occupied:

       1A    -20.564891     2A    -11.329141     3A    -11.240685
       4A    -11.219312     5A     -1.405137     6A     -1.060302
       7A     -0.910316     8A     -0.773773     9A     -0.683186
      10A     -0.635146    11A     -0.629769    12A     -0.541548
      13A     -0.531942    14A     -0.519210    15A     -0.492705
      16A     -0.414920

  @DF-RHF Final Energy:  -191.95196686836334

   => Energetics <=

    Nuclear Repulsion Energy =            119.1814366126130693
    One-Electron Energy =                -496.3628348662771828
    Two-Electron Energy =                 185.2294313853007282
    DFT Exchange-Correlation Energy =       0.0000000000000000
    Empirical Dispersion Energy =           0.0000000000000000
    PCM Polarization Energy =               0.0000000000000000
    EFP Energy =                            0.0000000000000000
    Total Energy =                       -191.9519668683633711
    Molecular point group: c1
  Basis Set: 6-31G*
  Basis Set:

  -Total Gradient:
     Atom            X                  Y                   Z
    ------   -----------------  -----------------  -----------------
       1       -0.000005538397     0.000006643902     0.000016931452
       2        0.000008183732     0.000016757704    -0.000952852434
       3       -0.000129389345    -0.000607898049    -0.000086908549
       4       -0.000000890582     0.000060864484     0.000695864399
       5        0.000006844660    -0.000008892325    -0.000040099959
       6        0.000099544135     0.000492709655     0.000373838047
       7        0.000012161952     0.000022562438     0.000011022777
       8       -0.000009369167    -0.000026626792    -0.000011113393
       9        0.000000892398     0.000006723433    -0.000000853344
      10        0.000017560614     0.000037155553    -0.000005828995

  **** Optimization is complete! (in 4 steps) ****
    Final optimized geometry and variables:
    Molecular point group: c1

    Geometry (in Angstrom), charge = 0, multiplicity = 1:

    H            1.512369571992     1.308405168095    -0.117686153006
    C            0.850128951196     0.439922478481    -0.027590367101
    C           -0.623629517054     0.758059844056    -0.033244304123
    O            1.307213283173    -0.651609009022     0.079289546685
    C           -1.518998460455    -0.474699322174    -0.024300480146
    H           -0.822131557636     1.392073894864    -0.895594740873
    H           -0.814283930508     1.388000030103     0.835337588116
    H           -1.339670657958    -1.090574658861    -0.897686544137
    H           -2.564064454374    -0.184764314695    -0.019971560290
    H           -1.329077916628    -1.083639060470     0.850908427604

  Mulliken Charges: (a.u.)
   Center  Symbol    Alpha    Beta     Spin     Total
       1     H     0.42822  0.42822  0.00000  0.14355
       2     C     2.83509  2.83509  0.00000  0.32982
       3     C     3.21164  3.21164  0.00000 -0.42329
       4     O     4.23665  4.23665  0.00000 -0.47329
       5     C     3.23700  3.23700  0.00000 -0.47399
       6     H     0.40832  0.40832  0.00000  0.18336
       7     H     0.40626  0.40626  0.00000  0.18748
       8     H     0.41075  0.41075  0.00000  0.17850
       9     H     0.41779  0.41779  0.00000  0.16441
      10     H     0.40828  0.40828  0.00000  0.18345

   Total alpha = 16.00000, Total beta = 16.00000, Total charge =  0.00000
