                              Psi4 1.0.54 Driver

  ==> Input File <==

--------------------------------------------------------------------------
set {
	reference rhf
	basis cc-pvtz
}

set_num_threads( 4 )
memory 2 gb

molecule MOL {
0 1

O	 -2.770473	 -0.062021	 0.771792
C	 -1.922978	 0.063265	 -0.045005
C	 -2.164976	 0.137807	 -1.526333
O	 -0.637375	 0.157174	 0.243149
H	 -1.636721	 -0.666650	 -2.021828
H	 -3.221977	 0.064434	 -1.723824
H	 -1.777192	 1.071969	 -1.911734
C	 0.162530	 -1.009518	 0.097799
C	 1.587210	 -0.664190	 0.477086
H	 0.096803	 -1.356267	 -0.924704
H	 -0.233803	 -1.785900	 0.736810
C	 2.256770	 0.342732	 -0.454344
H	 2.154716	 -1.590834	 0.479041
H	 1.598751	 -0.289614	 1.496104
C	 3.698146	 0.643205	 -0.057145
H	 2.235038	 -0.042575	 -1.470299
H	 1.683491	 1.262594	 -0.461300
H	 4.150202	 1.356548	 -0.736242
H	 4.305463	 -0.255904	 -0.069842
H	 3.749130	 1.061068	 0.942759

	symmetry c1
}
set optking {
	frozen_dihedral = ("
		1 2 4 8
	")
}

ee,wfn = optimize('scf', return_wfn=True)
oeprop( wfn, 'DIPOLE', 'QUADRUPOLE', 'MULLIKEN_CHARGES')
f=open( 'psi4out.xyz', 'w' )
f.write( "20  " )
f.write( str(ee) + "\n" )
f.write( MOL.save_string_xyz() )
f.close()
--------------------------------------------------------------------------

    Molecular point group: c1
  Charge       = 0
  Multiplicity = 1
  Basis Set: CC-PVTZ
  Basis Set:
  @DF-RHF Final Energy:  -384.06623788098653
    Total Energy =                       -384.0662378809863640
    Molecular point group: c1
  Basis Set: CC-PVTZ
  Basis Set:
  Basis Set: CC-PVTZ
  Basis Set:
  @DF-RHF Final Energy:  -383.79484868897214
    Total Energy =                       -383.7948486889720243
  Basis Set: CC-PVTZ
  Basis Set:
  Basis Set: CC-PVTZ
  Basis Set:
  @DF-RHF Final Energy:  -383.93282355131498
    Total Energy =                       -383.9328235513149252
  Basis Set: CC-PVTZ
  Basis Set:
  Basis Set: CC-PVTZ
  Basis Set:
  @DF-RHF Final Energy:  -384.04167731309781
    Total Energy =                       -384.0416773130981483
  Basis Set: CC-PVTZ
  Basis Set:
  @DF-RHF Final Energy:  -384.06557175277533
    Total Energy =                       -384.0655717527755542
  @DF-RHF Final Energy:  -384.06637302665621
    Total Energy =                       -384.0663730266568336
  @DF-RHF Final Energy:  -384.06590122929009
    Total Energy =                       -384.0659012292899206
  @DF-RHF Final Energy:  -384.06804335720102
    Total Energy =                       -384.0680433572014181
  Basis Set: CC-PVTZ
  Basis Set:
  @DF-RHF Final Energy:  -384.06816998476620
    Total Energy =                       -384.0681699847663140
  Basis Set: CC-PVTZ
  Basis Set:
  Basis Set: CC-PVTZ
  Basis Set:
  @DF-RHF Final Energy:  -384.06820130315833
    Total Energy =                       -384.0682013031587303
  Basis Set: CC-PVTZ
  Basis Set:
  Basis Set: CC-PVTZ
  Basis Set:
  @DF-RHF Final Energy:  -384.06820233547865
    Total Energy =                       -384.0682023354788726
  Basis Set: CC-PVTZ
  Basis Set:
  Charge       = 0
  Multiplicity = 1
  Basis Set: CC-PVTZ
  Basis Set:

    Orbital Energies (a.u.)
    -----------------------

    Doubly Occupied:

       1A    -20.576408     2A    -20.544093     3A    -11.369837
       4A    -11.291791     5A    -11.236517     6A    -11.226187
       7A    -11.220559     8A    -11.212555     9A     -1.460736
      10A     -1.369567    11A     -1.086243    12A     -1.022542
      13A     -0.991933    14A     -0.884142    15A     -0.812413
      16A     -0.778730    17A     -0.696971    18A     -0.688835
      19A     -0.654841    20A     -0.636073    21A     -0.619918
      22A     -0.592661    23A     -0.580563    24A     -0.557834
      25A     -0.549969    26A     -0.534558    27A     -0.497306
      28A     -0.489643    29A     -0.480878    30A     -0.475673
      31A     -0.451633    32A     -0.439480

  @DF-RHF Final Energy:  -384.06820300455882

   => Energetics <=

    Nuclear Repulsion Energy =            384.8862248705871139
    One-Electron Energy =               -1285.8466752971864935
    Two-Electron Energy =                 516.8922474220404411
    DFT Exchange-Correlation Energy =       0.0000000000000000
    Empirical Dispersion Energy =           0.0000000000000000
    PCM Polarization Energy =               0.0000000000000000
    EFP Energy =                            0.0000000000000000
    Total Energy =                       -384.0682030045589954
    Molecular point group: c1
  Basis Set: CC-PVTZ
  Basis Set:

  -Total Gradient:
     Atom            X                  Y                   Z
    ------   -----------------  -----------------  -----------------
       1        0.000355947751     0.000736538568     0.000674520463
       2       -0.000498606512    -0.000731240080    -0.001330786520
       3       -0.000002920093    -0.000017082806     0.000123381681
       4       -0.000109756347    -0.000613993117     0.001188623218
       5       -0.000004535338    -0.000025677244    -0.000036612340
       6       -0.000035300197     0.000014775611    -0.000023712275
       7        0.000041045772     0.000021678967    -0.000021069274
       8        0.000243288066     0.000659621579    -0.000589718882
       9        0.000022812328     0.000009639535     0.000006021010
      10        0.000011279165    -0.000003248521    -0.000024737315
      11        0.000012286348    -0.000022908430     0.000024881759
      12       -0.000036375870    -0.000011834256     0.000011050247
      13       -0.000003896078    -0.000000905138     0.000000289415
      14        0.000004399970    -0.000008553876     0.000002699692
      15        0.000013214089    -0.000016658864    -0.000005703419
      16       -0.000001576141     0.000001265487     0.000004190521
      17       -0.000009358740     0.000013504431    -0.000004124565
      18       -0.000008517581    -0.000001068032    -0.000008124173
      19        0.000007955321     0.000005461542     0.000010130422
      20       -0.000001385908    -0.000009315358    -0.000001199668

  **** Optimization is complete! (in 12 steps) ****
    Final optimized geometry and variables:
    Molecular point group: c1

    Geometry (in Angstrom), charge = 0, multiplicity = 1:

    O           -2.571223765113     0.390402823417     1.238373764810
    C           -1.752052092618     0.731687324512     0.466946855180
    C           -1.939546700510     1.849179924980    -0.522680901347
    O           -0.520534779327     0.184450861506     0.463289330694
    H           -1.722097667297     1.512395856429    -1.528140564507
    H           -2.950270209294     2.220373717103    -0.471250580185
    H           -1.240465229101     2.642538445616    -0.287531278974
    C           -0.242322871545    -0.820799746765    -0.496602991281
    C            1.172537754775    -1.318446746364    -0.287728920569
    H           -0.358111015670    -0.418154268806    -1.498523086480
    H           -0.950027213468    -1.631803091435    -0.369862647770
    C            2.246530775135    -0.263900891560    -0.538240700008
    H            1.323497074486    -2.161132399653    -0.957132604181
    H            1.256409965878    -1.700200869775     0.724206250489
    C            3.657635860232    -0.803596853757    -0.331132294184
    H            2.149592379147     0.111575067662    -1.553943471969
    H            2.080007360132     0.579620017428     0.120922925545
    H            4.400067687516    -0.036432606247    -0.516888680770
    H            3.864450478323    -1.632881646545    -0.999620404145
    H            3.794822621264    -1.157033277999     0.685132700019

  Mulliken Charges: (a.u.)
   Center  Symbol    Alpha    Beta     Spin     Total
       1     O     4.16919  4.16919  0.00000 -0.33838
       2     C     2.80536  2.80536  0.00000  0.38929
       3     C     3.14694  3.14694  0.00000 -0.29388
       4     O     4.16834  4.16834  0.00000 -0.33669
       5     H     0.45076  0.45076  0.00000  0.09848
       6     H     0.43571  0.43571  0.00000  0.12859
       7     H     0.44385  0.44385  0.00000  0.11230
       8     C     2.99215  2.99215  0.00000  0.01570
       9     C     3.08587  3.08587  0.00000 -0.17174
      10     H     0.46072  0.46072  0.00000  0.07856
      11     H     0.44672  0.44672  0.00000  0.10657
      12     C     3.08629  3.08629  0.00000 -0.17258
      13     H     0.45308  0.45308  0.00000  0.09383
      14     H     0.44655  0.44655  0.00000  0.10689
      15     C     3.14984  3.14984  0.00000 -0.29967
      16     H     0.45791  0.45791  0.00000  0.08419
      17     H     0.44465  0.44465  0.00000  0.11069
      18     H     0.44743  0.44743  0.00000  0.10514
      19     H     0.45594  0.45594  0.00000  0.08812
      20     H     0.45270  0.45270  0.00000  0.09459

   Total alpha = 32.00000, Total beta = 32.00000, Total charge = -0.00000

*** Psi4 exiting successfully. Buy a developer a beer!
