  ==> Input File <==

--------------------------------------------------------------------------
set {
	reference rhf
	basis 6-31G*
}

set_num_threads( 1 )
memory 2 gb

molecule MOL {
0 1

H	 -3.420663	 1.227371	 -1.044276
O	 -3.452007	 0.283848	 -0.965577
C	 -3.181085	 -0.079926	 0.364119
C	 -1.765924	 0.277073	 0.805136
H	 -3.327791	 -1.152017	 0.410903
H	 -3.905698	 0.375695	 1.036898
C	 -0.677594	 -0.417312	 -0.014550
H	 -1.637766	 1.358238	 0.744969
H	 -1.659588	 0.017670	 1.857098
C	 0.738335	 -0.034840	 0.421385
H	 -0.814977	 -0.178223	 -1.064632
H	 -0.802730	 -1.495410	 0.071702
C	 0.953588	 1.480030	 0.475423
H	 0.938945	 -0.473594	 1.395895
H	 1.460067	 -0.474637	 -0.265845
C	 2.382898	 1.913025	 0.821464
H	 0.262843	 1.915917	 1.195542
H	 0.689552	 1.903555	 -0.491390
C	 2.833626	 1.545731	 2.236506
H	 2.454153	 2.991475	 0.702474
H	 3.073824	 1.482612	 0.099268
H	 2.153628	 1.952552	 2.980306
H	 3.822639	 1.944003	 2.441617
H	 2.879579	 0.471619	 2.382576

	symmetry c1
}
set optking {
	frozen_dihedral = ("
		20 16 13 17,
		17 13 10 7,
		11 7 4 3,
		1 2 3 5,
		7 4 3 2
	")
}

ee = energy('scf')
oeprop('DIPOLE', 'QUADRUPOLE', 'MULLIKEN_CHARGES')
f=open( 'psi4out.xyz', 'w' )
f.write( "24  " )
f.write( str(ee) + "\n" )
f.write( MOL.save_string_xyz() )
f.close()
--------------------------------------------------------------------------

    Molecular point group: c1

    Geometry (in Angstrom), charge = 0, multiplicity = 1:

       Center              X                  Y                   Z               Mass
    ------------   -----------------  -----------------  -----------------  -----------------
           H         -3.096641076360     0.601250532105    -1.547375959948     1.007825032070
           O         -3.127985076360    -0.342272467895    -1.468676959948    15.994914619560
           C         -2.857063076360    -0.706046467895    -0.138980959948    12.000000000000
           C         -1.441902076360    -0.349047467895     0.302036040052    12.000000000000
           H         -3.003769076360    -1.778137467895    -0.092196959948     1.007825032070
           H         -3.581676076360    -0.250425467895     0.533798040052     1.007825032070
           C         -0.353572076360    -1.043432467895    -0.517649959948    12.000000000000
           H         -1.313744076360     0.732117532105     0.241869040052     1.007825032070
           H         -1.335566076360    -0.608450467895     1.353998040052     1.007825032070
           C          1.062356923640    -0.660960467895    -0.081714959948    12.000000000000
           H         -0.490955076360    -0.804343467895    -1.567731959948     1.007825032070
           H         -0.478708076360    -2.121530467895    -0.431397959948     1.007825032070
           C          1.277609923640     0.853909532105    -0.027676959948    12.000000000000
           H          1.262966923640    -1.099714467895     0.892795040052     1.007825032070
           H          1.784088923640    -1.100757467895    -0.768944959948     1.007825032070
           C          2.706919923640     1.286904532105     0.318364040052    12.000000000000
           H          0.586864923640     1.289796532105     0.692442040052     1.007825032070
           H          1.013573923640     1.277434532105    -0.994489959948     1.007825032070
           C          3.157647923640     0.919610532105     1.733406040052    12.000000000000
           H          2.778174923640     2.365354532105     0.199374040052     1.007825032070
           H          3.397845923640     0.856491532105    -0.403831959948     1.007825032070
           H          2.477649923640     1.326431532105     2.477206040052     1.007825032070
           H          4.146660923640     1.317882532105     1.938517040052     1.007825032070
           H          3.203600923640    -0.154501467895     1.879476040052     1.007825032070

  Charge       = 0
  Multiplicity = 1
  Basis Set: 6-31G*
  Basis Set:

    Orbital Energies (a.u.)
    -----------------------

    Doubly Occupied:

       1A    -20.553267     2A    -11.267226     3A    -11.216198
       4A    -11.215215     5A    -11.213094     6A    -11.212348
       7A    -11.211115     8A    -11.208337     9A     -1.359809
      10A     -1.091666    11A     -1.046558    12A     -0.984271
      13A     -0.916356    14A     -0.853933    15A     -0.810471
      16A     -0.765665    17A     -0.677946    18A     -0.649421
      19A     -0.630667    20A     -0.617217    21A     -0.601293
      22A     -0.575594    23A     -0.572942    24A     -0.536176
      25A     -0.525224    26A     -0.508938    27A     -0.492270
      28A     -0.484549    29A     -0.472429    30A     -0.455450
      31A     -0.449723    32A     -0.440368    33A     -0.423686

  @DF-RHF Final Energy:  -349.24368452165220

   => Energetics <=

    Nuclear Repulsion Energy =            391.9099669783685158
    One-Electron Energy =               -1250.2283850495884963
    Two-Electron Energy =                 509.0747335495683501
    DFT Exchange-Correlation Energy =       0.0000000000000000
    Empirical Dispersion Energy =           0.0000000000000000
    PCM Polarization Energy =               0.0000000000000000
    EFP Energy =                            0.0000000000000000
    Total Energy =                       -349.2436845216516303

  Mulliken Charges: (a.u.)
   Center  Symbol    Alpha    Beta     Spin     Total
       1     H     0.28339  0.28339  0.00000  0.43322
       2     O     4.36833  4.36833  0.00000 -0.73665
       3     C     2.99534  2.99534  0.00000  0.00932
       4     C     3.17319  3.17319  0.00000 -0.34639
       5     H     0.41670  0.41670  0.00000  0.16660
       6     H     0.42845  0.42845  0.00000  0.14311
       7     C     3.15291  3.15291  0.00000 -0.30583
       8     H     0.42466  0.42466  0.00000  0.15067
       9     H     0.42295  0.42295  0.00000  0.15410
      10     C     3.15391  3.15391  0.00000 -0.30783
      11     H     0.41229  0.41229  0.00000  0.17543
      12     H     0.42155  0.42155  0.00000  0.15690
      13     C     3.15788  3.15788  0.00000 -0.31577
      14     H     0.42276  0.42276  0.00000  0.15449
      15     H     0.42107  0.42107  0.00000  0.15786
      16     C     3.15091  3.15091  0.00000 -0.30181
      17     H     0.42243  0.42243  0.00000  0.15515
      18     H     0.42319  0.42319  0.00000  0.15362
      19     C     3.24104  3.24104  0.00000 -0.48208
      20     H     0.42183  0.42183  0.00000  0.15634
      21     H     0.42320  0.42320  0.00000  0.15359
      22     H     0.42302  0.42302  0.00000  0.15396
      23     H     0.41929  0.41929  0.00000  0.16141
      24     H     0.41971  0.41971  0.00000  0.16059

   Total alpha = 33.00000, Total beta = 33.00000, Total charge = -0.00000
