  ==> Input File <==

--------------------------------------------------------------------------
set {
	reference rhf
	basis 6-31G*
}

set_num_threads( 4 )
memory 2 gb

molecule MOL {
0 1

H	 0.883693	 0.733208	 2.164044
C	 -0.066137	 0.806875	 1.652477
O	 0.000000	 0.000000	 0.521119
H	 -0.856119	 0.482455	 2.328028
H	 -0.244766	 1.848357	 1.389618
C	 -1.165642	 0.000000	 -0.238270
H	 -1.228672	 0.883184	 -0.872070
H	 -2.003012	 0.000000	 0.445920
H	 -1.228672	 -0.883184	 -0.872070

	symmetry c1
}
set optking {
	frozen_dihedral = ("
		2 3 6 7
	")
}

ee = optimize('scf')
oeprop('DIPOLE', 'QUADRUPOLE', 'MULLIKEN_CHARGES')
f=open( 'psi4out.xyz', 'w' )
f.write( "9  " )
f.write( str(ee) + "\n" )
f.write( MOL.save_string_xyz() )
f.close()
--------------------------------------------------------------------------

    Molecular point group: c1
  Charge       = 0
  Multiplicity = 1
  Basis Set: 6-31G*
  Basis Set:
  @DF-RHF Final Energy:  -154.06237414018983
    Total Energy =                       -154.0623741401898315
    Molecular point group: c1
  Basis Set: 6-31G*
  Basis Set:
  Basis Set: 6-31G*
  Basis Set:
  @DF-RHF Final Energy:  -154.06340303515373
    Total Energy =                       -154.0634030351537263
  Basis Set: 6-31G*
  Basis Set:
  Basis Set: 6-31G*
  Basis Set:
  @DF-RHF Final Energy:  -154.06368573158650
    Total Energy =                       -154.0636857315864177
  Basis Set: 6-31G*
  Basis Set:
  Charge       = 0
  Multiplicity = 1
  Basis Set: 6-31G*
  Basis Set:

    Orbital Energies (a.u.)
    -----------------------

    Doubly Occupied:

       1A    -20.555455     2A    -11.265332     3A    -11.264993
       4A     -1.378245     5A     -0.975017     6A     -0.872752
       7A     -0.661048     8A     -0.653474     9A     -0.644601
      10A     -0.554074    11A     -0.528689    12A     -0.474279
      13A     -0.416149

  @DF-RHF Final Energy:  -154.06368724356054

   => Energetics <=

    Nuclear Repulsion Energy =             84.6928629773998836
    One-Electron Energy =                -377.0248854931587630
    Two-Electron Energy =                 138.2683352721984420
    DFT Exchange-Correlation Energy =       0.0000000000000000
    Empirical Dispersion Energy =           0.0000000000000000
    PCM Polarization Energy =               0.0000000000000000
    EFP Energy =                            0.0000000000000000
    Total Energy =                       -154.0636872435604232
    Molecular point group: c1
  Basis Set: 6-31G*
  Basis Set:

  -Total Gradient:
     Atom            X                  Y                   Z
    ------   -----------------  -----------------  -----------------
       1        0.000004618063    -0.000056946666    -0.000064367025
       2       -0.000897616453    -0.001565903678     0.001080067524
       3        0.001427879434     0.001942896835    -0.002301994342
       4       -0.000004135306    -0.000031502277    -0.000008564956
       5        0.000016266390     0.000013570543     0.000026941132
       6       -0.001954120855     0.001049268752     0.003142232790
       7        0.001370752051    -0.001349824377    -0.001913407244
       8       -0.000020997893     0.000007985573     0.000030187836
       9        0.000057354568    -0.000009544704     0.000008904287

  **** Optimization is complete! (in 4 steps) ****
    Final optimized geometry and variables:
    Molecular point group: c1

    Geometry (in Angstrom), charge = 0, multiplicity = 1:

    H            1.328821001774     0.442384279697     1.501037570963
    C            0.374869164336     0.532207182357     0.999803375590
    O            0.415511810952    -0.281553417547    -0.128254004013
    H           -0.413355068848     0.222894536681     1.683758864240
    H            0.213535145333     1.576927292520     0.738106476530
    C           -0.755423492218    -0.273396805535    -0.881981491811
    H           -0.808253770972     0.606223344512    -1.520685047590
    H           -1.642170097411    -0.311599378997    -0.253214098269
    H           -0.741855992250    -1.149983838044    -1.516404635904

  Mulliken Charges: (a.u.)
   Center  Symbol    Alpha    Beta     Spin     Total
       1     H     0.41203  0.41203  0.00000  0.17594
       2     C     3.08002  3.08002  0.00000 -0.16004
       3     O     4.29620  4.29620  0.00000 -0.59240
       4     H     0.42978  0.42978  0.00000  0.14043
       5     H     0.43052  0.43052  0.00000  0.13895
       6     C     3.07965  3.07965  0.00000 -0.15930
       7     H     0.42781  0.42781  0.00000  0.14438
       8     H     0.43096  0.43096  0.00000  0.13807
       9     H     0.41301  0.41301  0.00000  0.17397

   Total alpha = 13.00000, Total beta = 13.00000, Total charge = -0.00000
