                              Psi4 1.0.54 Driver

  ==> Input File <==

--------------------------------------------------------------------------
set {
	reference rhf
	basis cc-pvtz
}

set_num_threads( 4 )
memory 2 gb

molecule MOL {
0 1

H	 3.972579	 -0.580698	 4.248416
C	 3.531424	 -1.260827	 3.528920
C	 2.156740	 -0.775065	 3.082149
H	 4.209618	 -1.336070	 2.685945
H	 3.470833	 -2.239895	 3.993199
C	 1.499007	 -1.715562	 2.074765
H	 2.250858	 0.212905	 2.646262
H	 1.511610	 -0.674128	 3.951886
C	 0.118661	 -1.257992	 1.614153
H	 2.140805	 -1.825879	 1.209459
H	 1.399683	 -2.700253	 2.522315
C	 0.125636	 -0.051774	 0.690317
H	 -0.369829	 -2.057582	 1.062974
H	 -0.525633	 -1.050322	 2.463433
C	 -1.180025	 0.697761	 0.509157
O	 1.107811	 0.285510	 0.111658
C	 -2.285431	 -0.137488	 -0.145671
H	 -0.964134	 1.569069	 -0.094212
H	 -1.516936	 1.040485	 1.483953
C	 -3.646545	 0.082747	 0.508954
H	 -2.348635	 0.118247	 -1.199806
H	 -2.034895	 -1.192387	 -0.096473
C	 -4.757412	 -0.737227	 -0.138149
H	 -3.900211	 1.137405	 0.459735
H	 -3.580878	 -0.166775	 1.564416
H	 -4.867876	 -0.486707	 -1.187777
H	 -4.549650	 -1.800049	 -0.072540
H	 -5.709585	 -0.556397	 0.346597

	symmetry c1
}
set optking {
	frozen_dihedral = ("
		12 15 17 21
	")
}

ee,wfn = optimize('scf', return_wfn=True)
oeprop( wfn, 'DIPOLE', 'QUADRUPOLE', 'MULLIKEN_CHARGES')
f=open( 'psi4out.xyz', 'w' )
f.write( "28  " )
f.write( str(ee) + "\n" )
f.write( MOL.save_string_xyz() )
f.close()
--------------------------------------------------------------------------

    Molecular point group: c1
  Charge       = 0
  Multiplicity = 1
  Basis Set: CC-PVTZ
  Basis Set:
  @DF-RHF Final Energy:  -426.31490008551907
    Total Energy =                       -426.3149000855189570
    Molecular point group: c1
  Basis Set: CC-PVTZ
  Basis Set:
  Basis Set: CC-PVTZ
  Basis Set:
  @DF-RHF Final Energy:  -426.21557727908328
    Total Energy =                       -426.2155772790839592
  Basis Set: CC-PVTZ
  Basis Set:
  Basis Set: CC-PVTZ
  Basis Set:
  @DF-RHF Final Energy:  -426.29713998183070
    Total Energy =                       -426.2971399818300142
  Basis Set: CC-PVTZ
  Basis Set:
  Basis Set: CC-PVTZ
  Basis Set:
  @DF-RHF Final Energy:  -426.31433222203236
    Total Energy =                       -426.3143322220320215
  Basis Set: CC-PVTZ
  Basis Set:
  @DF-RHF Final Energy:  -426.20486116874889
    Total Energy =                       -426.2048611687487210
  @DF-RHF Final Energy:  -426.30201066522170
    Total Energy =                       -426.3020106652210188
  @DF-RHF Final Energy:  -426.31341405467265
    Total Energy =                       -426.3134140546721937
  @DF-RHF Final Energy:  -426.31510264962822
    Total Energy =                       -426.3151026496277609
  @DF-RHF Final Energy:  -426.31533686877481
    Total Energy =                       -426.3153368687751481
  @DF-RHF Final Energy:  -426.31537546716834
    Total Energy =                       -426.3153754671679962
  @DF-RHF Final Energy:  -426.31537926169472
    Total Energy =                       -426.3153792616943747
  @DF-RHF Final Energy:  -426.31538440888744
    Total Energy =                       -426.3153844088872120
  @DF-RHF Final Energy:  -426.31539288122281
    Total Energy =                       -426.3153928812232607
  @DF-RHF Final Energy:  -426.13823704195846
    Total Energy =                       -426.1382370419582912
  @DF-RHF Final Energy:  -426.27724351339373
    Total Energy =                       -426.2772435133935005
  @DF-RHF Final Energy:  -426.31267157949776
    Total Energy =                       -426.3126715794977599
  @DF-RHF Final Energy:  -426.31546260637469
    Total Energy =                       -426.3154626063746946
  @DF-RHF Final Energy:  -426.31356160081691
    Total Energy =                       -426.3135616008166835
  @DF-RHF Final Energy:  -426.31555181885085
    Total Energy =                       -426.3155518188510769
  @DF-RHF Final Energy:  -426.15467110770516
    Total Energy =                       -426.1546711077053260
  @DF-RHF Final Energy:  -426.28437210017842
    Total Energy =                       -426.2843721001784161
  @DF-RHF Final Energy:  -426.31390992991953
    Total Energy =                       -426.3139099299197596
  @DF-RHF Final Energy:  -426.31578626386170
    Total Energy =                       -426.3157862638620372
  @DF-RHF Final Energy:  -426.10240474557867
    Total Energy =                       -426.1024047455786103
  @DF-RHF Final Energy:  -426.27385223555632
    Total Energy =                       -426.2738522355556370
  @DF-RHF Final Energy:  -426.31097631720559
    Total Energy =                       -426.3109763172061548
  @DF-RHF Final Energy:  -426.31495033620831
    Total Energy =                       -426.3149503362080850
  @DF-RHF Final Energy:  -426.31579906345314
    Total Energy =                       -426.3157990634535963
  Basis Set: CC-PVTZ
  Basis Set:
  @DF-RHF Final Energy:  -426.31603434137014
    Total Energy =                       -426.3160343413709370
  Basis Set: CC-PVTZ
  Basis Set:
  Basis Set: CC-PVTZ
  Basis Set:
  @DF-RHF Final Energy:  -426.31604709026874
    Total Energy =                       -426.3160470902681709
  Basis Set: CC-PVTZ
  Basis Set:
  Basis Set: CC-PVTZ
  Basis Set:
  @DF-RHF Final Energy:  -426.31607804148234
    Total Energy =                       -426.3160780414824558
  Basis Set: CC-PVTZ
  Basis Set:
  Charge       = 0
  Multiplicity = 1
  Basis Set: CC-PVTZ
  Basis Set:

    Orbital Energies (a.u.)
    -----------------------

    Doubly Occupied:

       1A    -20.535973     2A    -11.316625     3A    -11.229481
       4A    -11.229326     5A    -11.226473     6A    -11.224202
       7A    -11.214737     8A    -11.213942     9A    -11.208479
      10A    -11.202682    11A     -1.396156    12A     -1.094258
      13A     -1.078215    14A     -1.023858    15A     -0.991075
      16A     -0.909796    17A     -0.871770    18A     -0.809909
      19A     -0.797196    20A     -0.727052    21A     -0.667049
      22A     -0.659176    23A     -0.625727    24A     -0.615871
      25A     -0.611120    26A     -0.590729    27A     -0.578082
      28A     -0.571517    29A     -0.545565    30A     -0.535135
      31A     -0.521066    32A     -0.509584    33A     -0.504444
      34A     -0.482040    35A     -0.478420    36A     -0.476561
      37A     -0.467665    38A     -0.463852    39A     -0.456603
      40A     -0.393429

  @DF-RHF Final Energy:  -426.31607899813321

   => Energetics <=

    Nuclear Repulsion Energy =            533.2371798089687900
    One-Electron Energy =               -1634.9968265867460104
    Two-Electron Energy =                 675.4435677796434447
    DFT Exchange-Correlation Energy =       0.0000000000000000
    Empirical Dispersion Energy =           0.0000000000000000
    PCM Polarization Energy =               0.0000000000000000
    EFP Energy =                            0.0000000000000000
    Total Energy =                       -426.3160789981336620
    Molecular point group: c1
  Basis Set: CC-PVTZ
  Basis Set:

  -Total Gradient:
     Atom            X                  Y                   Z
    ------   -----------------  -----------------  -----------------
       1        0.000007823325    -0.000000476410     0.000011409366
       2        0.000048600157     0.000005721334     0.000005481077
       3       -0.000067991947     0.000005343724     0.000005916240
       4       -0.000002448377    -0.000015540578    -0.000011141376
       5       -0.000025116064    -0.000008611707    -0.000039176076
       6        0.000051335632     0.000014025392    -0.000008614892
       7        0.000009819805     0.000011251177     0.000010744161
       8        0.000002250030     0.000007328224     0.000014672487
       9       -0.000025616811     0.000055898443    -0.000058696302
      10       -0.000006838186    -0.000004384233    -0.000012789126
      11       -0.000009888545    -0.000025783519    -0.000009025454
      12       -0.002317071987    -0.000091372633    -0.000759253366
      13        0.000011670012    -0.000044537853     0.000035160612
      14        0.000000074010     0.000004111687     0.000019572137
      15        0.002804842333     0.000699731036     0.001499316464
      16        0.000038729315    -0.000044716732    -0.000000789328
      17        0.000907639817    -0.002735866078    -0.002780220216
      18        0.000016613334     0.000001883430     0.000036279013
      19       -0.000027887582    -0.000019194199     0.000011781281
      20        0.000020171583    -0.000004458562    -0.000014006697
      21       -0.001434371883     0.002197545995     0.002061036456
      22        0.000008462266    -0.000014185230    -0.000041155653
      23       -0.000008145713     0.000005764695     0.000015064667
      24       -0.000011841294     0.000008189955     0.000027678177
      25       -0.000002108031    -0.000003632544     0.000000438610
      26        0.000012132363     0.000000632656    -0.000000641760
      27        0.000009323040    -0.000009717850    -0.000024548145
      28       -0.000010160602     0.000005050384     0.000005507644

  **** Optimization is complete! (in 32 steps) ****
    Final optimized geometry and variables:
    Molecular point group: c1

    Geometry (in Angstrom), charge = 0, multiplicity = 1:

    H            0.044117508797    -5.436455238054     0.071295561601
    C           -0.004419147104    -4.615945108448    -0.635314471802
    C           -0.336108380389    -3.303665004759     0.066932569482
    H            0.954717484485    -4.556091927129    -1.138173098649
    H           -0.753544154846    -4.864864774789    -1.380356183018
    C           -0.429222635733    -2.126584841610    -0.901940738297
    H            0.417598779835    -3.095185878766     0.815819437219
    H           -1.282645102689    -3.407445978978     0.592463695718
    C           -0.756815052455    -0.795647181334    -0.232669110732
    H            0.503938321521    -2.030308292176    -1.444778218178
    H           -1.200283860081    -2.337189872542    -1.637559387256
    C            0.389216607418    -0.148043255454     0.521109802722
    H           -1.099208585346    -0.071930769053    -0.968174367297
    H           -1.583930204670    -0.906926472718     0.464530671012
    C            0.111223215743     1.211076050305     1.131771989633
    O            1.463315725668    -0.650603553665     0.603963156064
    C            0.416644768280     2.351499976083     0.132787024047
    H            0.719918367485     1.311767100326     2.019096688317
    H           -0.929523367430     1.260640253611     1.431831534182
    C           -0.618665953715     3.473798391045     0.175407020273
    H            1.387267126284     2.771311308110     0.368066876423
    H            0.481775639142     1.966135220608    -0.879722356293
    C           -0.283489771189     4.628119450269    -0.762233076512
    H           -0.699655117917     3.845769920729     1.193156080818
    H           -1.595318790366     3.071693763280    -0.080079160970
    H            0.670530598308     5.076154729105    -0.505965559557
    H           -0.223023834799     4.291413146678    -1.791878568377
    H           -1.037818234815     5.404616736315    -0.712091548575

  Mulliken Charges: (a.u.)
   Center  Symbol    Alpha    Beta     Spin     Total
       1     H     0.44874  0.44874  0.00000  0.10252
       2     C     3.15168  3.15168  0.00000 -0.30336
       3     C     3.08348  3.08348  0.00000 -0.16696
       4     H     0.45226  0.45226  0.00000  0.09547
       5     H     0.45753  0.45753  0.00000  0.08495
       6     C     3.08771  3.08771  0.00000 -0.17542
       7     H     0.44310  0.44310  0.00000  0.11381
       8     H     0.45901  0.45901  0.00000  0.08198
       9     C     3.12963  3.12963  0.00000 -0.25925
      10     H     0.44684  0.44684  0.00000  0.10631
      11     H     0.44823  0.44823  0.00000  0.10354
      12     C     2.86686  2.86686  0.00000  0.26627
      13     H     0.43341  0.43341  0.00000  0.13318
      14     H     0.44183  0.44183  0.00000  0.11633
      15     C     3.09581  3.09581  0.00000 -0.19162
      16     O     4.18141  4.18141  0.00000 -0.36282
      17     C     3.09866  3.09866  0.00000 -0.19733
      18     H     0.43663  0.43663  0.00000  0.12673
      19     H     0.44877  0.44877  0.00000  0.10245
      20     C     3.08675  3.08675  0.00000 -0.17349
      21     H     0.44093  0.44093  0.00000  0.11815
      22     H     0.44909  0.44909  0.00000  0.10182
      23     C     3.14975  3.14975  0.00000 -0.29949
      24     H     0.45163  0.45163  0.00000  0.09674
      25     H     0.45509  0.45509  0.00000  0.08982
      26     H     0.45327  0.45327  0.00000  0.09345
      27     H     0.45445  0.45445  0.00000  0.09110
      28     H     0.44745  0.44745  0.00000  0.10511

   Total alpha = 40.00000, Total beta = 40.00000, Total charge =  0.00000

*** Psi4 exiting successfully. Buy a developer a beer!
