                              Psi4 1.0.54 Driver

  ==> Input File <==

--------------------------------------------------------------------------
set {
	reference rhf
	basis cc-pvtz
}

set_num_threads( 4 )
memory 2 gb

molecule MOL {
0 1

H	 -3.642953	 0.223825	 0.000000
C	 -2.571844	 0.155001	 0.000000
C	 -1.957580	 -1.086132	 0.000000
C	 -1.807160	 1.303787	 0.000000
H	 -2.551493	 -1.979629	 0.000000
C	 -0.582719	 -1.174294	 0.000000
H	 -2.279934	 2.266806	 0.000000
C	 -0.427220	 1.213406	 0.000000
H	 -0.094904	 -2.127556	 0.000000
C	 0.196908	 -0.024061	 0.000000
H	 0.151409	 2.115254	 0.000000
C	 1.690041	 -0.173233	 0.000000
C	 2.355156	 -0.903517	 -1.144101
O	 2.342048	 0.276643	 0.887614
H	 1.992721	 -1.922388	 -1.211364
H	 3.419845	 -0.910886	 -0.973478
H	 2.143480	 -0.413371	 -2.086932

	symmetry c1
}
set optking {
	frozen_dihedral = ("
		13 12 10 8
	")
}

ee,wfn = optimize('scf', return_wfn=True)
oeprop( wfn, 'DIPOLE', 'QUADRUPOLE', 'MULLIKEN_CHARGES')
f=open( 'psi4out.xyz', 'w' )
f.write( "17  " )
f.write( str(ee) + "\n" )
f.write( MOL.save_string_xyz() )
f.close()
--------------------------------------------------------------------------

    Molecular point group: c1
  Charge       = 0
  Multiplicity = 1
  Basis Set: CC-PVTZ
  Basis Set:
  @DF-RHF Final Energy:  -382.59862736870861
    Total Energy =                       -382.5986273687087760
    Molecular point group: c1
  Basis Set: CC-PVTZ
  Basis Set:
  Basis Set: CC-PVTZ
  Basis Set:
  @DF-RHF Final Energy:  -382.59728642098207
    Total Energy =                       -382.5972864209823001
  Basis Set: CC-PVTZ
  Basis Set:
  Basis Set: CC-PVTZ
  Basis Set:
  @DF-RHF Final Energy:  -382.59968749542128
    Total Energy =                       -382.5996874954215627
  Basis Set: CC-PVTZ
  Basis Set:
  Basis Set: CC-PVTZ
  Basis Set:
  @DF-RHF Final Energy:  -382.59959412046561
    Total Energy =                       -382.5995941204657811
  Basis Set: CC-PVTZ
  Basis Set:
  @DF-RHF Final Energy:  -382.59998869541766
    Total Energy =                       -382.5999886954177782
  Basis Set: CC-PVTZ
  Basis Set:
  @DF-RHF Final Energy:  -382.60000870776048
    Total Energy =                       -382.6000087077604803
  Basis Set: CC-PVTZ
  Basis Set:
  Basis Set: CC-PVTZ
  Basis Set:
  @DF-RHF Final Energy:  -382.60001184870140
    Total Energy =                       -382.6000118487017971
  Basis Set: CC-PVTZ
  Basis Set:
  Basis Set: CC-PVTZ
  Basis Set:
  @DF-RHF Final Energy:  -382.60001320406474
    Total Energy =                       -382.6000132040645667
  Basis Set: CC-PVTZ
  Basis Set:
  Charge       = 0
  Multiplicity = 1
  Basis Set: CC-PVTZ
  Basis Set:

    Orbital Energies (a.u.)
    -----------------------

    Doubly Occupied:

       1A    -20.545393     2A    -11.329589     3A    -11.246030
       4A    -11.243893     5A    -11.240795     6A    -11.240480
       7A    -11.239322     8A    -11.238121     9A    -11.230730
      10A     -1.405630    11A     -1.171573    12A     -1.054221
      13A     -1.030448    14A     -1.000598    15A     -0.863407
      16A     -0.841231    17A     -0.765083    18A     -0.708339
      19A     -0.664487    20A     -0.650255    21A     -0.628241
      22A     -0.623380    23A     -0.603275    24A     -0.592431
      25A     -0.562771    26A     -0.528726    27A     -0.518189
      28A     -0.508116    29A     -0.496599    30A     -0.413875
      31A     -0.349355    32A     -0.347367

  @DF-RHF Final Energy:  -382.60001331498921

   => Energetics <=

    Nuclear Repulsion Energy =            403.9731001360117375
    One-Electron Energy =               -1319.3823333583959538
    Two-Electron Energy =                 532.8092199073951178
    DFT Exchange-Correlation Energy =       0.0000000000000000
    Empirical Dispersion Energy =           0.0000000000000000
    PCM Polarization Energy =               0.0000000000000000
    EFP Energy =                            0.0000000000000000
    Total Energy =                       -382.6000133149891553
    Molecular point group: c1
  Basis Set: CC-PVTZ
  Basis Set:

  -Total Gradient:
     Atom            X                  Y                   Z
    ------   -----------------  -----------------  -----------------
       1        0.000000106207     0.000000129920    -0.000004246846
       2       -0.000002227365    -0.000085727864     0.000010226932
       3       -0.000072228653     0.000059867063     0.000018263786
       4        0.000064118069     0.000022386096    -0.000009427253
       5        0.000002482971     0.000005581683    -0.000002349829
       6        0.000067294172     0.000037474925    -0.000039254571
       7       -0.000001836389    -0.000011152467     0.000003606223
       8       -0.000105926807    -0.000361859741    -0.003672747586
       9       -0.000007274127     0.000015004691     0.000004638926
      10        0.000110788376     0.001753134021     0.004402487832
      11        0.000000082810    -0.000011507096    -0.000002813193
      12       -0.000111758030    -0.004093876489     0.001349516169
      13        0.000111853663     0.002708276441    -0.001990946632
      14       -0.000054580968    -0.000051404981    -0.000090429684
      15        0.000008325866     0.000026166691     0.000003884750
      16       -0.000019956117    -0.000001370413    -0.000010343227
      17        0.000010736321    -0.000011122483     0.000029934199

  **** Optimization is complete! (in 9 steps) ****
    Final optimized geometry and variables:
    Molecular point group: c1

    Geometry (in Angstrom), charge = 0, multiplicity = 1:

    H           -3.634546376058     0.253028271987     0.002385615128
    C           -2.564193804152     0.177583925251     0.017579868305
    C           -1.959610925813    -1.058697905999     0.137802880999
    C           -1.787908461976     1.317259640271    -0.084632718237
    H           -2.558312120966    -1.945285514040     0.220856787206
    C           -0.581061695998    -1.156937865135     0.142677425326
    H           -2.254310164439     2.278617890428    -0.182826932765
    C           -0.410838567393     1.221956337383    -0.054358815071
    H           -0.120798014959    -2.123204462903     0.225982420351
    C            0.199816029801    -0.015989568659     0.065946664514
    H            0.194467373257     2.105519957441    -0.113212859620
    C            1.702084386116    -0.086025776008     0.050740868529
    C            2.345536988645    -0.905737927920    -1.041844512659
    O            2.349156903912     0.551890337890     0.814635595600
    H            1.971474077401    -1.922021975275    -1.048378714886
    H            3.416866278147    -0.907291092552    -0.911701689654
    H            2.091698805100    -0.466393121619    -2.000280093784

  Mulliken Charges: (a.u.)
   Center  Symbol    Alpha    Beta     Spin     Total
       1     H     0.42113  0.42113  0.00000  0.15774
       2     C     3.08172  3.08172  0.00000 -0.16344
       3     C     3.06722  3.06722  0.00000 -0.13444
       4     C     3.06536  3.06536  0.00000 -0.13072
       5     H     0.42162  0.42162  0.00000  0.15675
       6     C     3.09667  3.09667  0.00000 -0.19334
       7     H     0.42114  0.42114  0.00000  0.15771
       8     C     3.09085  3.09085  0.00000 -0.18169
       9     H     0.42355  0.42355  0.00000  0.15290
      10     C     2.96574  2.96574  0.00000  0.06851
      11     H     0.41594  0.41594  0.00000  0.16812
      12     C     2.87470  2.87470  0.00000  0.25060
      13     C     3.15162  3.15162  0.00000 -0.30324
      14     O     4.16985  4.16985  0.00000 -0.33971
      15     H     0.45072  0.45072  0.00000  0.09856
      16     H     0.43605  0.43605  0.00000  0.12790
      17     H     0.44610  0.44610  0.00000  0.10779

   Total alpha = 32.00000, Total beta = 32.00000, Total charge = -0.00000

*** Psi4 exiting successfully. Buy a developer a beer!
