  ==> Input File <==

--------------------------------------------------------------------------
set {
	reference rhf
	basis 6-31G*
}

set_num_threads( 4 )
memory 2 gb

molecule MOL {
0 1

H	 -2.499100	 -0.730091	 -0.745082
O	 -2.347518	 -0.290803	 0.079804
C	 -1.184022	 0.487508	 -0.006784
C	 0.062599	 -0.378592	 0.031606
H	 -1.176523	 1.099369	 -0.904519
H	 -1.187323	 1.153111	 0.844927
O	 1.171513	 0.459272	 -0.058250
H	 0.050699	 -1.089204	 -0.797170
H	 0.078739	 -0.954914	 0.954740
C	 0.956266	 1.625568	 -0.788021
H	 0.173662	 2.235833	 -0.341103
H	 1.880675	 2.186256	 -0.788017
H	 0.677056	 1.404885	 -1.816191

	symmetry c1
}
set optking {
	frozen_dihedral = ("
		10 7 4 8
	")
}

ee = optimize('scf')
oeprop('DIPOLE', 'QUADRUPOLE', 'MULLIKEN_CHARGES')
f=open( 'psi4out.xyz', 'w' )
f.write( "13  " )
f.write( str(ee) + "\n" )
f.write( MOL.save_string_xyz() )
f.close()
--------------------------------------------------------------------------

    Molecular point group: c1
  Charge       = 0
  Multiplicity = 1
  Basis Set: 6-31G*
  Basis Set:
  @DF-RHF Final Energy:  -267.92843227523360
    Total Energy =                       -267.9284322752338312
    Molecular point group: c1
  Basis Set: 6-31G*
  Basis Set:
  Basis Set: 6-31G*
  Basis Set:
  @DF-RHF Final Energy:  -267.93086737212707
    Total Energy =                       -267.9308673721271816
  Basis Set: 6-31G*
  Basis Set:
  Basis Set: 6-31G*
  Basis Set:
  @DF-RHF Final Energy:  -267.93814439978894
    Total Energy =                       -267.9381443997893371
  Basis Set: 6-31G*
  Basis Set:
  Basis Set: 6-31G*
  Basis Set:
  @DF-RHF Final Energy:  -267.94116667643152
    Total Energy =                       -267.9411666764315783
  Basis Set: 6-31G*
  Basis Set:
  @DF-RHF Final Energy:  -267.94187168662449
    Total Energy =                       -267.9418716866242676
  Basis Set: 6-31G*
  Basis Set:
  @DF-RHF Final Energy:  -267.94219298169526
    Total Energy =                       -267.9421929816950296
  Basis Set: 6-31G*
  Basis Set:
  Basis Set: 6-31G*
  Basis Set:
  @DF-RHF Final Energy:  -267.94223668843625
    Total Energy =                       -267.9422366884360258
  Basis Set: 6-31G*
  Basis Set:
  Basis Set: 6-31G*
  Basis Set:
  @DF-RHF Final Energy:  -267.94224618229129
    Total Energy =                       -267.9422461822911146
  Basis Set: 6-31G*
  Basis Set:
  Charge       = 0
  Multiplicity = 1
  Basis Set: 6-31G*
  Basis Set:

    Orbital Energies (a.u.)
    -----------------------

    Doubly Occupied:

       1A    -20.566157     2A    -20.559136     3A    -11.277267
       4A    -11.271438     5A    -11.271385     6A     -1.383731
       7A     -1.369611     8A     -1.013700     9A     -0.938661
      10A     -0.830333    11A     -0.712294    12A     -0.676200
      13A     -0.663986    14A     -0.633850    15A     -0.599298
      16A     -0.572748    17A     -0.536453    18A     -0.508329
      19A     -0.495073    20A     -0.435981    21A     -0.410883

  @DF-RHF Final Energy:  -267.94224717356656

   => Energetics <=

    Nuclear Repulsion Energy =            192.7200861160812053
    One-Electron Energy =                -747.8716408192724430
    Two-Electron Energy =                 287.2093075296248230
    DFT Exchange-Correlation Energy =       0.0000000000000000
    Empirical Dispersion Energy =           0.0000000000000000
    PCM Polarization Energy =               0.0000000000000000
    EFP Energy =                            0.0000000000000000
    Total Energy =                       -267.9422471735663862
    Molecular point group: c1
  Basis Set: 6-31G*
  Basis Set:

  -Total Gradient:
     Atom            X                  Y                   Z
    ------   -----------------  -----------------  -----------------
       1       -0.000017309709    -0.000013413181     0.000003077078
       2       -0.000009609294    -0.000010538367    -0.000033768037
       3       -0.000002470449     0.000032978264     0.000010817988
       4       -0.003818470926     0.005431156580    -0.002168726337
       5       -0.000001277802    -0.000033346100     0.000026596293
       6        0.000014915130     0.000049248564    -0.000012958232
       7        0.002727235780    -0.004170953200    -0.004451500986
       8        0.002507147774    -0.003449153960     0.003069138731
       9        0.000034300804    -0.000004795002    -0.000004232488
      10       -0.001438819105     0.002172100170     0.003544432499
      11        0.000001688171    -0.000000861388     0.000007826240
      12       -0.000002689735    -0.000018495623     0.000012979317
      13        0.000005359357     0.000016073241    -0.000003682066

  **** Optimization is complete! (in 9 steps) ****
    Final optimized geometry and variables:
    Molecular point group: c1

    Geometry (in Angstrom), charge = 0, multiplicity = 1:

    H           -2.186334893864    -1.345245781250    -0.448598608572
    O           -2.066731494044    -0.831199308942     0.337859004828
    C           -1.018745447399     0.081984279150     0.150714736239
    C            0.313525716101    -0.660322058473     0.120483086774
    H           -1.178822597687     0.668182198575    -0.749740517188
    H           -1.045653867196     0.758590735543     0.994498431110
    O            1.468946049251     0.128837135325     0.090849419579
    H            0.334436157847    -1.375344428516    -0.703949491424
    H            0.377079452491    -1.247774260471     1.027449531569
    C            1.444501768966     1.315076842899    -0.641718403679
    H            0.774002147328     2.052378103777    -0.210585686838
    H            2.449102310844     1.714163417514    -0.621414274399
    H            1.160975529872     1.149821587204    -1.679848107848

  Mulliken Charges: (a.u.)
   Center  Symbol    Alpha    Beta     Spin     Total
       1     H     0.28059  0.28059  0.00000  0.43881
       2     O     4.36949  4.36949  0.00000 -0.73898
       3     C     3.01680  3.01680  0.00000 -0.03360
       4     C     2.99340  2.99340  0.00000  0.01319
       5     H     0.42697  0.42697  0.00000  0.14606
       6     H     0.40876  0.40876  0.00000  0.18248
       7     O     4.30940  4.30940  0.00000 -0.61881
       8     H     0.43556  0.43556  0.00000  0.12887
       9     H     0.40807  0.40807  0.00000  0.18386
      10     C     3.08412  3.08412  0.00000 -0.16823
      11     H     0.42696  0.42696  0.00000  0.14607
      12     H     0.40902  0.40902  0.00000  0.18195
      13     H     0.43084  0.43084  0.00000  0.13831

   Total alpha = 21.00000, Total beta = 21.00000, Total charge = -0.00000
