                              Psi4 1.0.54 Driver

  ==> Input File <==

--------------------------------------------------------------------------
set {
	reference rhf
	basis cc-pvtz
}

set_num_threads( 4 )
memory 2 gb

molecule MOL {
0 1

H	 1.145899	 -1.219896	 0.245458
O	 1.305301	 -0.562658	 -0.408057
C	 0.706474	 0.636793	 -0.025501
C	 -0.793473	 0.591216	 0.050087
H	 1.004217	 1.376092	 -0.759727
H	 1.096421	 0.976808	 0.932116
C	 -1.534243	 -0.493009	 -0.013340
H	 -1.266611	 1.552628	 0.164437
H	 -1.101195	 -1.466332	 -0.144046
H	 -2.604242	 -0.437780	 0.050785

	symmetry c1
}
set optking {
	frozen_dihedral = ("
		5 3 4 7
	")
}

ee,wfn = optimize('scf', return_wfn=True)
oeprop( wfn, 'DIPOLE', 'QUADRUPOLE', 'MULLIKEN_CHARGES')
f=open( 'psi4out.xyz', 'w' )
f.write( "10  " )
f.write( str(ee) + "\n" )
f.write( MOL.save_string_xyz() )
f.close()
--------------------------------------------------------------------------

    Molecular point group: c1
  Charge       = 0
  Multiplicity = 1
  Basis Set: CC-PVTZ
  Basis Set:
  @DF-RHF Final Energy:  -191.99774527990309
    Total Energy =                       -191.9977452799030289
    Molecular point group: c1
  Basis Set: CC-PVTZ
  Basis Set:
  Basis Set: CC-PVTZ
  Basis Set:
  @DF-RHF Final Energy:  -191.99797975200443
    Total Energy =                       -191.9979797520044826
  Basis Set: CC-PVTZ
  Basis Set:
  Basis Set: CC-PVTZ
  Basis Set:
  @DF-RHF Final Energy:  -191.99806609090533
    Total Energy =                       -191.9980660909054393
  Basis Set: CC-PVTZ
  Basis Set:
  Basis Set: CC-PVTZ
  Basis Set:
  @DF-RHF Final Energy:  -191.99806859684514
    Total Energy =                       -191.9980685968450871
  Basis Set: CC-PVTZ
  Basis Set:
  Charge       = 0
  Multiplicity = 1
  Basis Set: CC-PVTZ
  Basis Set:

    Orbital Energies (a.u.)
    -----------------------

    Doubly Occupied:

       1A    -20.555357     2A    -11.278660     3A    -11.230346
       4A    -11.216363     5A     -1.375866     6A     -1.062452
       7A     -0.933033     8A     -0.770376     9A     -0.696443
      10A     -0.665198    11A     -0.622808    12A     -0.573360
      13A     -0.534530    14A     -0.503701    15A     -0.451079
      16A     -0.368592

  @DF-RHF Final Energy:  -191.99806905114733

   => Energetics <=

    Nuclear Repulsion Energy =            119.4371653034462781
    One-Electron Energy =                -497.1941370401641507
    Two-Electron Energy =                 185.7589026855706038
    DFT Exchange-Correlation Energy =       0.0000000000000000
    Empirical Dispersion Energy =           0.0000000000000000
    PCM Polarization Energy =               0.0000000000000000
    EFP Energy =                            0.0000000000000000
    Total Energy =                       -191.9980690511472972
    Molecular point group: c1
  Basis Set: CC-PVTZ
  Basis Set:

  -Total Gradient:
     Atom            X                  Y                   Z
    ------   -----------------  -----------------  -----------------
       1        0.000008255138    -0.000040383132     0.000007428473
       2       -0.000013387199     0.000098212103     0.000024915077
       3       -0.000053212370    -0.002687270772    -0.001225494282
       4       -0.000209562271     0.000883657377    -0.003547730390
       5        0.000090599308     0.001968520422     0.002030363157
       6        0.000023785043     0.000028078916     0.000037967343
       7        0.000186442777    -0.000259316803     0.002727881524
       8       -0.000010186013     0.000019395830    -0.000018436401
       9       -0.000009278210    -0.000007887344    -0.000022145565
      10       -0.000013456199    -0.000003006597    -0.000014748935

  **** Optimization is complete! (in 5 steps) ****
    Final optimized geometry and variables:
    Molecular point group: c1

    Geometry (in Angstrom), charge = 0, multiplicity = 1:

    H            1.222397595567    -1.211405789311     0.408322012205
    O            1.311776046407    -0.589645625189    -0.290943173054
    C            0.715321481826     0.616976930193     0.067005765633
    C           -0.784502530267     0.587325476715     0.146414907457
    H            1.022954586367     1.357820130697    -0.660964251309
    H            1.099026712302     0.968574197476     1.024250344063
    C           -1.541949643650    -0.484437455534     0.076799628297
    H           -1.239822148082     1.547839904118     0.324080821318
    H           -1.131501549605    -1.458398370687    -0.111053865270
    H           -2.608435847684    -0.417634756667     0.177240818466

  Mulliken Charges: (a.u.)
   Center  Symbol    Alpha    Beta     Spin     Total
       1     H     0.39067  0.39067  0.00000  0.21866
       2     O     4.19831  4.19831  0.00000 -0.39662
       3     C     2.95053  2.95053  0.00000  0.09895
       4     C     3.07744  3.07744  0.00000 -0.15489
       5     H     0.45422  0.45422  0.00000  0.09155
       6     H     0.47041  0.47041  0.00000  0.05917
       7     C     3.17888  3.17888  0.00000 -0.35776
       8     H     0.42301  0.42301  0.00000  0.15398
       9     H     0.42855  0.42855  0.00000  0.14289
      10     H     0.42797  0.42797  0.00000  0.14405

   Total alpha = 16.00000, Total beta = 16.00000, Total charge = -0.00000

*** Psi4 exiting successfully. Buy a developer a beer!
