  ==> Input File <==

--------------------------------------------------------------------------
set {
	reference rhf
	basis 6-31G*
}

set_num_threads( 4 )
memory 2 gb

molecule MOL {
0 1

H	 0.241589	 1.918408	 0.528913
O	 0.055946	 1.300438	 -0.164479
C	 0.004957	 -0.004114	 0.366649
C	 1.201664	 -0.828089	 -0.095740
C	 -1.317755	 -0.601827	 -0.081511
H	 0.013527	 0.048298	 1.454924
H	 1.216388	 -0.895289	 -1.178704
H	 2.135132	 -0.372895	 0.226467
H	 1.166770	 -1.832878	 0.313827
H	 -1.355732	 -0.658248	 -1.164429
H	 -2.141614	 0.017037	 0.254547
H	 -1.447303	 -1.600817	 0.322594

	symmetry c1
}
set optking {
	frozen_dihedral = ("
		1 2 3 4
	")
}

ee = optimize('scf')
oeprop('DIPOLE', 'QUADRUPOLE', 'MULLIKEN_CHARGES')
f=open( 'psi4out.xyz', 'w' )
f.write( "12  " )
f.write( str(ee) + "\n" )
f.write( MOL.save_string_xyz() )
f.close()
--------------------------------------------------------------------------

    Molecular point group: c1
  Charge       = 0
  Multiplicity = 1
  Basis Set: 6-31G*
  Basis Set:
  @DF-RHF Final Energy:  -193.11284613349068
    Total Energy =                       -193.1128461334906490
    Molecular point group: c1
  Basis Set: 6-31G*
  Basis Set:
  Basis Set: 6-31G*
  Basis Set:
  @DF-RHF Final Energy:  -193.11316302098388
    Total Energy =                       -193.1131630209839329
  Basis Set: 6-31G*
  Basis Set:
  Basis Set: 6-31G*
  Basis Set:
  @DF-RHF Final Energy:  -193.11323509288465
    Total Energy =                       -193.1132350928845369
  Basis Set: 6-31G*
  Basis Set:
  Charge       = 0
  Multiplicity = 1
  Basis Set: 6-31G*
  Basis Set:

    Orbital Energies (a.u.)
    -----------------------

    Doubly Occupied:

       1A    -20.549356     2A    -11.276303     3A    -11.206388
       4A    -11.205870     5A     -1.357931     6A     -1.040751
       7A     -0.934893     8A     -0.798307     9A     -0.711392
      10A     -0.607879    11A     -0.596950    12A     -0.556429
      13A     -0.537611    14A     -0.522681    15A     -0.505302
      16A     -0.464370    17A     -0.428131

  @DF-RHF Final Energy:  -193.11323598300334

   => Energetics <=

    Nuclear Repulsion Energy =            135.2898534716010204
    One-Electron Energy =                -530.2050904064533370
    Two-Electron Energy =                 201.8020009518489530
    DFT Exchange-Correlation Energy =       0.0000000000000000
    Empirical Dispersion Energy =           0.0000000000000000
    PCM Polarization Energy =               0.0000000000000000
    EFP Energy =                            0.0000000000000000
    Total Energy =                       -193.1132359830033636
    Molecular point group: c1
  Basis Set: 6-31G*
  Basis Set:

  -Total Gradient:
     Atom            X                  Y                   Z
    ------   -----------------  -----------------  -----------------
       1       -0.000911289320     0.000150925088     0.000087677025
       2        0.001013491955    -0.000138539405    -0.000222604935
       3        0.000226153810     0.000362876826     0.000493103163
       4       -0.000323687398    -0.000243905614    -0.000397055832
       5       -0.000014150957    -0.000087814074     0.000046504914
       6       -0.000003724986    -0.000041270169    -0.000022742317
       7       -0.000023614219     0.000011782073     0.000018061387
       8       -0.000019384432     0.000013748816    -0.000009592341
       9        0.000031089593    -0.000049140195    -0.000000259044
      10        0.000034171491     0.000020129652     0.000005308919
      11        0.000004474863     0.000005112261    -0.000001345876
      12       -0.000013530397    -0.000003905260     0.000002944937

  **** Optimization is complete! (in 4 steps) ****
    Final optimized geometry and variables:
    Molecular point group: c1

    Geometry (in Angstrom), charge = 0, multiplicity = 1:

    H            0.283310119681     1.924013450831     0.501947217172
    O            0.094652912348     1.297777282884    -0.179825225059
    C            0.002737817773    -0.005688805096     0.362598229947
    C            1.201523495046    -0.825095404906    -0.096644378588
    C           -1.318364928611    -0.614267218368    -0.084859902708
    H            0.010168054621     0.051420065813     1.449121084919
    H            1.220492859860    -0.879379593755    -1.180127054457
    H            2.127137953853    -0.363972671022     0.232177523815
    H            1.162775361719    -1.835732242529     0.299216038822
    H           -1.361505350480    -0.652196141285    -1.168487528892
    H           -2.150127726036    -0.012042686246     0.263752960843
    H           -1.435849474676    -1.622797638220     0.300101953170

  Mulliken Charges: (a.u.)
   Center  Symbol    Alpha    Beta     Spin     Total
       1     H     0.28006  0.28006  0.00000  0.43987
       2     O     4.37429  4.37429  0.00000 -0.74859
       3     C     2.92521  2.92521  0.00000  0.14958
       4     C     3.23692  3.23692  0.00000 -0.47384
       5     C     3.23651  3.23651  0.00000 -0.47303
       6     H     0.43089  0.43089  0.00000  0.13821
       7     H     0.41467  0.41467  0.00000  0.17067
       8     H     0.42009  0.42009  0.00000  0.15983
       9     H     0.42470  0.42470  0.00000  0.15060
      10     H     0.41473  0.41473  0.00000  0.17055
      11     H     0.41731  0.41731  0.00000  0.16537
      12     H     0.42461  0.42461  0.00000  0.15077

   Total alpha = 17.00000, Total beta = 17.00000, Total charge = -0.00000
