                              Psi4 1.0.54 Driver

  ==> Input File <==

--------------------------------------------------------------------------
set {
	reference rhf
	basis cc-pvtz
}

set_num_threads( 4 )
memory 2 gb

molecule MOL {
0 1

O	 -0.283482	 1.290847	 0.363835
C	 -0.442760	 0.130815	 0.194029
C	 -1.775512	 -0.561169	 0.169840
O	 0.550743	 -0.719877	 0.000412
H	 -1.910661	 -1.055290	 -0.783567
H	 -2.560111	 0.160277	 0.329385
H	 -1.804078	 -1.320494	 0.940583
C	 1.863204	 -0.194033	 0.000410
H	 2.031502	 0.409177	 -0.879273
H	 2.524488	 -1.045142	 0.000793
H	 2.031291	 0.409823	 0.879686

	symmetry c1
}
set optking {
	frozen_dihedral = ("
		2 4 8 9
	")
}

ee,wfn = optimize('scf', return_wfn=True)
oeprop( wfn, 'DIPOLE', 'QUADRUPOLE', 'MULLIKEN_CHARGES')
f=open( 'psi4out.xyz', 'w' )
f.write( "11  " )
f.write( str(ee) + "\n" )
f.write( MOL.save_string_xyz() )
f.close()
--------------------------------------------------------------------------

    Molecular point group: c1
  Charge       = 0
  Multiplicity = 1
  Basis Set: CC-PVTZ
  Basis Set:
  @DF-RHF Final Energy:  -266.93908535950294
    Total Energy =                       -266.9390853595028830
    Molecular point group: c1
  Basis Set: CC-PVTZ
  Basis Set:
  Basis Set: CC-PVTZ
  Basis Set:
  @DF-RHF Final Energy:  -266.93909532628231
    Total Energy =                       -266.9390953262824269
  Basis Set: CC-PVTZ
  Basis Set:
  Basis Set: CC-PVTZ
  Basis Set:
  @DF-RHF Final Energy:  -266.93904987493465
    Total Energy =                       -266.9390498749344260
  Basis Set: CC-PVTZ
  Basis Set:
  Basis Set: CC-PVTZ
  Basis Set:
  @DF-RHF Final Energy:  -266.93910192736303
    Total Energy =                       -266.9391019273628558
  Basis Set: CC-PVTZ
  Basis Set:
  Charge       = 0
  Multiplicity = 1
  Basis Set: CC-PVTZ
  Basis Set:

    Orbital Energies (a.u.)
    -----------------------

    Doubly Occupied:

       1A    -20.598759     2A    -20.535245     3A    -11.368895
       4A    -11.279917     5A    -11.233213     6A     -1.474179
       7A     -1.367706     8A     -1.037030     9A     -0.953777
      10A     -0.780093    11A     -0.698225    12A     -0.684573
      13A     -0.681190    14A     -0.596007    15A     -0.593454
      16A     -0.561794    17A     -0.527191    18A     -0.525066
      19A     -0.462292    20A     -0.445923

  @DF-RHF Final Energy:  -266.93910261207554

   => Energetics <=

    Nuclear Repulsion Energy =            183.6801666082531312
    One-Electron Energy =                -728.4294838280702606
    Two-Electron Energy =                 277.8102146077416137
    DFT Exchange-Correlation Energy =       0.0000000000000000
    Empirical Dispersion Energy =           0.0000000000000000
    PCM Polarization Energy =               0.0000000000000000
    EFP Energy =                            0.0000000000000000
    Total Energy =                       -266.9391026120755441
    Molecular point group: c1
  Basis Set: CC-PVTZ
  Basis Set:

  -Total Gradient:
     Atom            X                  Y                   Z
    ------   -----------------  -----------------  -----------------
       1        0.000001057085     0.000005124670    -0.000004270915
       2        0.000053265299    -0.000124360986     0.000720591236
       3        0.000003660896    -0.000005971929     0.000002274539
       4       -0.000005958756    -0.000016016876    -0.001130248420
       5       -0.000000488129     0.000002020170    -0.000001970527
       6        0.000003901506     0.000002107283    -0.000001142442
       7        0.000001484471     0.000000339536    -0.000002590446
       8       -0.000309167769     0.000816239620     0.000834178616
       9        0.000267375471    -0.000678627879    -0.000418339500
      10       -0.000007554141     0.000001868612    -0.000000123318
      11       -0.000007575933    -0.000002722219     0.000001641178

  **** Optimization is complete! (in 5 steps) ****
    Final optimized geometry and variables:
    Molecular point group: c1

    Geometry (in Angstrom), charge = 0, multiplicity = 1:

    O           -0.291350104595     1.303972079435     0.211846572924
    C           -0.447712659734     0.142741470271     0.047727294631
    C           -1.778757522394    -0.552656241982     0.030106837098
    O            0.546845931497    -0.706850424369    -0.146029808970
    H           -1.915004981205    -1.050854868817    -0.921029208575
    H           -2.564708831043     0.167562687588     0.188562638149
    H           -1.803414877781    -1.308948487391     0.803932706914
    C            1.860726993863    -0.184568467162    -0.136727083819
    H            2.031817460787     0.423224983204    -1.013599729137
    H            2.519460789797    -1.037821632614    -0.149290237167
    H            2.031787742662     0.408493412224     0.748092315016

  Mulliken Charges: (a.u.)
   Center  Symbol    Alpha    Beta     Spin     Total
       1     O     4.19672  4.19672  0.00000 -0.39344
       2     C     2.80157  2.80157  0.00000  0.39686
       3     C     3.13806  3.13806  0.00000 -0.27612
       4     O     4.14785  4.14785  0.00000 -0.29571
       5     H     0.44529  0.44529  0.00000  0.10943
       6     H     0.43787  0.43787  0.00000  0.12426
       7     H     0.44559  0.44559  0.00000  0.10883
       8     C     3.03344  3.03344  0.00000 -0.06687
       9     H     0.45554  0.45554  0.00000  0.08892
      10     H     0.44587  0.44587  0.00000  0.10826
      11     H     0.45220  0.45220  0.00000  0.09559

   Total alpha = 20.00000, Total beta = 20.00000, Total charge = -0.00000

*** Psi4 exiting successfully. Buy a developer a beer!
