  ==> Input File <==

--------------------------------------------------------------------------
set {
	reference rhf
	basis cc-pvtz
}

set_num_threads( 4 )
memory 2 gb

molecule MOL {
0 1

H	 1.267987	 -1.358427	 1.864522
O	 0.593384	 -0.797850	 1.528786
C	 1.135873	 0.113391	 0.608264
C	 0.027642	 1.012027	 0.090274
H	 1.583637	 -0.416092	 -0.228948
H	 1.919616	 0.703181	 1.075551
C	 -1.138737	 0.285728	 -0.581921
H	 0.464661	 1.708096	 -0.618252
H	 -0.340737	 1.603071	 0.925246
C	 -1.933983	 -0.631436	 0.343653
H	 -0.763151	 -0.285569	 -1.422081
H	 -1.808359	 1.035291	 -0.992333
H	 -2.789188	 -1.049673	 -0.174718
H	 -1.335629	 -1.461368	 0.700418
H	 -2.305435	 -0.092167	 1.209725

	symmetry c1
}
set optking {
	frozen_dihedral = ("
		2 3 4 8
	")
}

ee = optimize('scf')
oeprop('DIPOLE', 'QUADRUPOLE', 'MULLIKEN_CHARGES')
f=open( 'psi4out.xyz', 'w' )
f.write( "15  " )
f.write( str(ee) + "\n" )
f.write( MOL.save_string_xyz() )
f.close()
--------------------------------------------------------------------------

    Molecular point group: c1
  Charge       = 0
  Multiplicity = 1
  Basis Set: CC-PVTZ
  Basis Set:
  @DF-RHF Final Energy:  -232.23247865706026
    Total Energy =                       -232.2324786570599144
    Molecular point group: c1
  Basis Set: CC-PVTZ
  Basis Set:
  Basis Set: CC-PVTZ
  Basis Set:
  @DF-RHF Final Energy:  -232.23502378674965
    Total Energy =                       -232.2350237867498777
  Basis Set: CC-PVTZ
  Basis Set:
  Basis Set: CC-PVTZ
  Basis Set:
  @DF-RHF Final Energy:  -232.23556626205789
    Total Energy =                       -232.2355662620577732
  Basis Set: CC-PVTZ
  Basis Set:
  Basis Set: CC-PVTZ
  Basis Set:
  @DF-RHF Final Energy:  -232.23574550525706
    Total Energy =                       -232.2357455052571709
  Basis Set: CC-PVTZ
  Basis Set:
  Basis Set: CC-PVTZ
  Basis Set:
  @DF-RHF Final Energy:  -232.23577074862260
    Total Energy =                       -232.2357707486226559
  Basis Set: CC-PVTZ
  Basis Set:
  Basis Set: CC-PVTZ
  Basis Set:
  @DF-RHF Final Energy:  -232.23577252524132
    Total Energy =                       -232.2357725252412024
  Basis Set: CC-PVTZ
  Basis Set:
  Charge       = 0
  Multiplicity = 1
  Basis Set: CC-PVTZ
  Basis Set:

    Orbital Energies (a.u.)
    -----------------------

    Doubly Occupied:

       1A    -20.547598     2A    -11.267100     3A    -11.212130
       4A    -11.209147     5A    -11.192659     6A     -1.365786
       7A     -1.062766     8A     -0.972081     9A     -0.861019
      10A     -0.779585    11A     -0.708254    12A     -0.646962
      13A     -0.604286    14A     -0.583775    15A     -0.549473
      16A     -0.538256    17A     -0.511339    18A     -0.470394
      19A     -0.466581    20A     -0.450389    21A     -0.432372

  @DF-RHF Final Energy:  -232.23577272033066

   => Energetics <=

    Nuclear Repulsion Energy =            192.4567951503963172
    One-Electron Energy =                -696.5212328309528402
    Two-Electron Energy =                 271.8286649602258080
    DFT Exchange-Correlation Energy =       0.0000000000000000
    Empirical Dispersion Energy =           0.0000000000000000
    PCM Polarization Energy =               0.0000000000000000
    EFP Energy =                            0.0000000000000000
    Total Energy =                       -232.2357727203307149
    Molecular point group: c1
  Basis Set: CC-PVTZ
  Basis Set:

  -Total Gradient:
     Atom            X                  Y                   Z
    ------   -----------------  -----------------  -----------------
       1        0.000003254072     0.000010253653    -0.000001649327
       2       -0.000209185540    -0.000825707506    -0.001104466122
       3        0.000230551320     0.000889849695     0.001174758259
       4        0.000215539671     0.000981844265     0.001326621908
       5       -0.000002323650    -0.000001830030    -0.000006021150
       6       -0.000007608797    -0.000001837019     0.000004487573
       7        0.000022070269    -0.000020989335    -0.000029506356
       8       -0.000254813821    -0.001061371516    -0.001384743403
       9        0.000000064740     0.000004919108     0.000010959612
      10        0.000003020278     0.000052666377     0.000020138828
      11        0.000000128453    -0.000002304746    -0.000003206607
      12       -0.000004605057    -0.000005981111     0.000006820237
      13       -0.000006045743    -0.000004980417    -0.000014299208
      14        0.000009782686    -0.000010955807    -0.000003605937
      15        0.000000171118    -0.000003575611     0.000003711692

  **** Optimization is complete! (in 7 steps) ****
    Final optimized geometry and variables:
    Molecular point group: c1

    Geometry (in Angstrom), charge = 0, multiplicity = 1:

    H            1.775017602800    -1.334777214548     1.278620107005
    O            1.021564383100    -0.837894184048     1.018777400671
    C            1.407123925560     0.200599916521     0.156731259548
    C            0.204041371515     1.030961535044    -0.253201931623
    H            1.878773903792    -0.210078697756    -0.734115282731
    H            2.134077528934     0.845626507651     0.644153035993
    C           -0.907554347072     0.274894090291    -0.992147552921
    H            0.582928890713     1.806129707325    -0.913514183233
    H           -0.204280396879     1.529128519800     0.620782168481
    C           -1.882690848576    -0.489847122403    -0.099874959144
    H           -0.459059429011    -0.406631668778    -1.710346473946
    H           -1.471981311353     0.996147127086    -1.575354565693
    H           -2.660571656591    -0.952084906066    -0.698293131031
    H           -1.383072926809    -1.261056473301     0.466951001108
    H           -2.365697939697     0.181003555437     0.603565402143

  Mulliken Charges: (a.u.)
   Center  Symbol    Alpha    Beta     Spin     Total
       1     H     0.39683  0.39683  0.00000  0.20634
       2     O     4.19566  4.19566  0.00000 -0.39133
       3     C     2.97170  2.97170  0.00000  0.05659
       4     C     3.09547  3.09547  0.00000 -0.19094
       5     H     0.47461  0.47461  0.00000  0.05078
       6     H     0.46588  0.46588  0.00000  0.06825
       7     C     3.08432  3.08432  0.00000 -0.16865
       8     H     0.44967  0.44967  0.00000  0.10066
       9     H     0.45302  0.45302  0.00000  0.09397
      10     C     3.14567  3.14567  0.00000 -0.29133
      11     H     0.45815  0.45815  0.00000  0.08370
      12     H     0.45100  0.45100  0.00000  0.09800
      13     H     0.45357  0.45357  0.00000  0.09285
      14     H     0.44492  0.44492  0.00000  0.11016
      15     H     0.45953  0.45953  0.00000  0.08093

   Total alpha = 21.00000, Total beta = 21.00000, Total charge =  0.00000
