  ==> Input File <==

--------------------------------------------------------------------------
set {
	reference rhf
	basis 6-31G*
}

set_num_threads( 1 )
memory 2 gb

molecule MOL {
0 1

H	 -2.440463	 1.530224	 -1.739879
C	 -1.707476	 0.888334	 -1.291137
C	 -2.076860	 -0.007332	 -0.404944
H	 -0.680314	 0.998726	 -1.583821
O	 -1.180634	 -0.819263	 0.215062
H	 -3.101127	 -0.138669	 -0.103576
C	 0.051604	 -1.018856	 -0.387932
C	 1.043764	 0.054862	 -0.001873
H	 -0.017620	 -1.041351	 -1.469781
H	 0.437898	 -1.966374	 -0.042284
F	 2.212596	 -0.199467	 -0.571921
F	 0.652529	 1.252447	 -0.405055
F	 1.230877	 0.110694	 1.300533

	symmetry c1
}
set optking {
	frozen_dihedral = ("
		11 8 7 9,
		3 5 7 9,
		6 3 2 1
	")
}

ee = energy('scf')
oeprop('DIPOLE', 'QUADRUPOLE', 'MULLIKEN_CHARGES')
f=open( 'psi4out.xyz', 'w' )
f.write( "13  " )
f.write( str(ee) + "\n" )
f.write( MOL.save_string_xyz() )
f.close()
--------------------------------------------------------------------------

    Molecular point group: c1

    Geometry (in Angstrom), charge = 0, multiplicity = 1:

       Center              X                  Y                   Z               Mass
    ------------   -----------------  -----------------  -----------------  -----------------
           H         -2.605652571123     1.471620726154    -1.577839958185     1.007825032070
           C         -1.872665571123     0.829730726154    -1.129097958185    12.000000000000
           C         -2.242049571123    -0.065935273846    -0.242904958185    12.000000000000
           H         -0.845503571123     0.940122726154    -1.421781958185     1.007825032070
           O         -1.345823571123    -0.877866273846     0.377101041815    15.994914619560
           H         -3.266316571123    -0.197272273846     0.058463041815     1.007825032070
           C         -0.113585571123    -1.077459273846    -0.225892958185    12.000000000000
           C          0.878574428877    -0.003741273846     0.160166041815    12.000000000000
           H         -0.182809571123    -1.099954273846    -1.307741958185     1.007825032070
           H          0.272708428877    -2.024977273846     0.119755041815     1.007825032070
           F          2.047406428877    -0.258070273846    -0.409881958185    18.998403224000
           F          0.487339428877     1.193843726154    -0.243015958185    18.998403224000
           F          1.065687428877     0.052090726154     1.462572041815    18.998403224000

  Charge       = 0
  Multiplicity = 1
  Basis Set: 6-31G*
  Basis Set:

    Orbital Energies (a.u.)
    -----------------------

    Doubly Occupied:

       1A    -26.344839     2A    -26.344447     3A    -26.340787
       4A    -20.605519     5A    -11.503725     6A    -11.314888
       7A    -11.295013     8A    -11.209619     9A     -1.743719
      10A     -1.643386    11A     -1.639094    12A     -1.436043
      13A     -1.076549    14A     -1.022433    15A     -0.937531
      16A     -0.834854    17A     -0.833690    18A     -0.819641
      19A     -0.780522    20A     -0.734875    21A     -0.709677
      22A     -0.699609    23A     -0.678923    24A     -0.663295
      25A     -0.651214    26A     -0.644528    27A     -0.627944
      28A     -0.600843    29A     -0.535625    30A     -0.527543
      31A     -0.503691    32A     -0.353498

  @DF-RHF Final Energy:  -527.51796939527821

   => Energetics <=

    Nuclear Repulsion Energy =            427.0629433586752839
    One-Electron Energy =               -1577.8466505894512011
    Two-Electron Energy =                 623.2657378354965658
    DFT Exchange-Correlation Energy =       0.0000000000000000
    Empirical Dispersion Energy =           0.0000000000000000
    PCM Polarization Energy =               0.0000000000000000
    EFP Energy =                            0.0000000000000000
    Total Energy =                       -527.5179693952793514

  Mulliken Charges: (a.u.)
   Center  Symbol    Alpha    Beta     Spin     Total
       1     H     0.40732  0.40732  0.00000  0.18536
       2     C     3.24475  3.24475  0.00000 -0.48949
       3     C     2.90868  2.90868  0.00000  0.18264
       4     H     0.39244  0.39244  0.00000  0.21512
       5     O     4.30542  4.30542  0.00000 -0.61085
       6     H     0.39440  0.39440  0.00000  0.21120
       7     C     3.07038  3.07038  0.00000 -0.14076
       8     C     2.45324  2.45324  0.00000  1.09351
       9     H     0.40029  0.40029  0.00000  0.19942
      10     H     0.38938  0.38938  0.00000  0.22124
      11     F     4.68291  4.68291  0.00000 -0.36582
      12     F     4.67627  4.67627  0.00000 -0.35254
      13     F     4.67452  4.67452  0.00000 -0.34903

   Total alpha = 32.00000, Total beta = 32.00000, Total charge = -0.00000
