  ==> Input File <==

--------------------------------------------------------------------------
set {
	reference rhf
	basis cc-pvtz
}

set_num_threads( 4 )
memory 2 gb

molecule MOL {
0 1

H	 -0.795772	 -2.525162	 0.023769
N	 -0.060930	 -1.859629	 -0.088682
C	 -0.561396	 -0.500007	 0.035200
H	 0.338690	 -2.011541	 -0.991213
C	 0.575129	 0.507849	 -0.048832
H	 -1.045871	 -0.411163	 1.001952
H	 -1.313878	 -0.253674	 -0.715470
C	 1.951750	 -0.141983	 0.035101
H	 0.478254	 1.061643	 -0.975981
H	 0.467676	 1.231891	 0.755499
H	 2.101550	 -0.848142	 -0.774949
H	 2.738260	 0.600794	 -0.026526
H	 2.078939	 -0.679792	 0.968824

	symmetry c1
}
set optking {
	frozen_dihedral = ("
		6 3 5 9
	")
}

ee = optimize('scf')
oeprop('DIPOLE', 'QUADRUPOLE', 'MULLIKEN_CHARGES')
f=open( 'psi4out.xyz', 'w' )
f.write( "13  " )
f.write( str(ee) + "\n" )
f.write( MOL.save_string_xyz() )
f.close()
--------------------------------------------------------------------------

    Molecular point group: c1
  Charge       = 0
  Multiplicity = 1
  Basis Set: CC-PVTZ
  Basis Set:
  @DF-RHF Final Energy:  -173.34103598467246
    Total Energy =                       -173.3410359846723736
    Molecular point group: c1
  Basis Set: CC-PVTZ
  Basis Set:
  Basis Set: CC-PVTZ
  Basis Set:
  @DF-RHF Final Energy:  -173.34203845699403
    Total Energy =                       -173.3420384569940893
  Basis Set: CC-PVTZ
  Basis Set:
  Basis Set: CC-PVTZ
  Basis Set:
  @DF-RHF Final Energy:  -173.34398646985105
    Total Energy =                       -173.3439864698510462
  Basis Set: CC-PVTZ
  Basis Set:
  Basis Set: CC-PVTZ
  Basis Set:
  @DF-RHF Final Energy:  -173.34413777931101
    Total Energy =                       -173.3441377793110973
  Basis Set: CC-PVTZ
  Basis Set:
  Basis Set: CC-PVTZ
  Basis Set:
  @DF-RHF Final Energy:  -173.34415000823452
    Total Energy =                       -173.3441500082344646
  Basis Set: CC-PVTZ
  Basis Set:
  Basis Set: CC-PVTZ
  Basis Set:
  @DF-RHF Final Energy:  -173.34415115714009
    Total Energy =                       -173.3441511571401179
  Basis Set: CC-PVTZ
  Basis Set:
  Charge       = 0
  Multiplicity = 1
  Basis Set: CC-PVTZ
  Basis Set:

    Orbital Energies (a.u.)
    -----------------------

    Doubly Occupied:

       1A    -15.527370     2A    -11.239236     3A    -11.210539
       4A    -11.199208     5A     -1.178031     6A     -1.026758
       7A     -0.906533     8A     -0.786672     9A     -0.668857
      10A     -0.628543    11A     -0.595930    12A     -0.560784
      13A     -0.535113    14A     -0.492452    15A     -0.472411
      16A     -0.458732    17A     -0.381673

  @DF-RHF Final Energy:  -173.34415134964732

   => Energetics <=

    Nuclear Repulsion Energy =            133.8428335498524291
    One-Electron Energy =                -498.6362867855982017
    Two-Electron Energy =                 191.4493018860983682
    DFT Exchange-Correlation Energy =       0.0000000000000000
    Empirical Dispersion Energy =           0.0000000000000000
    PCM Polarization Energy =               0.0000000000000000
    EFP Energy =                            0.0000000000000000
    Total Energy =                       -173.3441513496474329
    Molecular point group: c1
  Basis Set: CC-PVTZ
  Basis Set:

  -Total Gradient:
     Atom            X                  Y                   Z
    ------   -----------------  -----------------  -----------------
       1       -0.000002471429     0.000007374267    -0.000000280567
       2        0.000005174979    -0.000005324092    -0.000001978347
       3        0.003238004487    -0.003388339764     0.002835202954
       4        0.000003442293    -0.000000609819    -0.000003952250
       5        0.002691801571    -0.003438069623    -0.003347867000
       6       -0.003169433721     0.003402524144    -0.001845326916
       7        0.000004963804    -0.000001015897     0.000002324915
       8        0.000002551715     0.000002271293     0.000011923574
       9       -0.002770623231     0.003430037249     0.002361078643
      10        0.000000822374    -0.000006361271    -0.000003118632
      11       -0.000002020987    -0.000004796534    -0.000003148220
      12       -0.000002719854     0.000000442461    -0.000005164885
      13        0.000000508000     0.000001867587     0.000000306730

  **** Optimization is complete! (in 7 steps) ****
    Final optimized geometry and variables:
    Molecular point group: c1

    Geometry (in Angstrom), charge = 0, multiplicity = 1:

    H           -1.380726093125    -1.986962195985     0.089771622513
    N           -0.616429443753    -1.373366013521    -0.096864331339
    C           -1.023771593305     0.011602644934     0.079262082944
    H           -0.326058078217    -1.547661325898    -1.036149042932
    C            0.134645691732     1.027822621529    -0.033956055193
    H           -1.488627942290     0.107502558252     1.053028865411
    H           -1.797245204048     0.304591922394    -0.630563311415
    C            1.544589638503     0.461983858288     0.096818048438
    H            0.036705585606     1.586676605692    -0.959268832211
    H           -0.005858469336     1.771617162009     0.744509822453
    H            1.782251735322    -0.229213818523    -0.701984176725
    H            2.269534232844     1.267828359168     0.063070840571
    H            1.670416416454    -0.069372061157     1.031204133458

  Mulliken Charges: (a.u.)
   Center  Symbol    Alpha    Beta     Spin     Total
       1     H     0.42916  0.42916  0.00000  0.14168
       2     N     3.68468  3.68468  0.00000 -0.36936
       3     C     3.03309  3.03309  0.00000 -0.06619
       4     H     0.43188  0.43188  0.00000  0.13624
       5     C     3.09502  3.09502  0.00000 -0.19005
       6     H     0.45626  0.45626  0.00000  0.08747
       7     H     0.46345  0.46345  0.00000  0.07310
       8     C     3.13959  3.13959  0.00000 -0.27917
       9     H     0.45289  0.45289  0.00000  0.09421
      10     H     0.45390  0.45390  0.00000  0.09220
      11     H     0.45885  0.45885  0.00000  0.08230
      12     H     0.45192  0.45192  0.00000  0.09617
      13     H     0.44931  0.44931  0.00000  0.10139

   Total alpha = 17.00000, Total beta = 17.00000, Total charge = -0.00000
