                              Psi4 1.0.54 Driver

  ==> Input File <==

--------------------------------------------------------------------------
set {
	reference rhf
	basis cc-pvtz
}

set_num_threads( 4 )
memory 2 gb

molecule MOL {
0 1

H	 2.300172	 0.700321	 -0.566647
O	 2.063695	 -0.083403	 -0.105237
C	 0.742924	 0.005675	 0.350750
H	 0.731380	 0.039219	 1.440080
C	 -0.064076	 -1.193495	 -0.124425
C	 -0.047832	 1.190568	 -0.194462
H	 0.194729	 -1.376165	 -1.161308
H	 0.163013	 -2.094508	 0.429933
C	 -1.533112	 -0.752002	 0.006102
H	 0.148003	 1.266545	 -1.259275
H	 0.226235	 2.136493	 0.259722
C	 -1.506634	 0.799189	 0.067162
H	 -2.124360	 -1.110499	 -0.826089
H	 -1.983103	 -1.158030	 0.903403
H	 -2.183808	 1.252169	 -0.644677
H	 -1.813926	 1.138698	 1.049457

	symmetry c1
}
set optking {
	frozen_dihedral = ("
		1 2 3 6
	")
}

ee,wfn = optimize('scf', return_wfn=True)
oeprop( wfn, 'DIPOLE', 'QUADRUPOLE', 'MULLIKEN_CHARGES')
f=open( 'psi4out.xyz', 'w' )
f.write( "16  " )
f.write( str(ee) + "\n" )
f.write( MOL.save_string_xyz() )
f.close()
--------------------------------------------------------------------------

    Molecular point group: c1
  Charge       = 0
  Multiplicity = 1
  Basis Set: CC-PVTZ
  Basis Set:
  @DF-RHF Final Energy:  -270.11432291657513
    Total Energy =                       -270.1143229165751336
    Molecular point group: c1
  Basis Set: CC-PVTZ
  Basis Set:
  Basis Set: CC-PVTZ
  Basis Set:
  @DF-RHF Final Energy:  -270.11466281528487
    Total Energy =                       -270.1146628152845892
  Basis Set: CC-PVTZ
  Basis Set:
  Basis Set: CC-PVTZ
  Basis Set:
  @DF-RHF Final Energy:  -270.11475367518165
    Total Energy =                       -270.1147536751816460
  Basis Set: CC-PVTZ
  Basis Set:
  Basis Set: CC-PVTZ
  Basis Set:
  @DF-RHF Final Energy:  -270.11476000463705
    Total Energy =                       -270.1147600046366506
  Basis Set: CC-PVTZ
  Basis Set:
  @DF-RHF Final Energy:  -270.11477043825096
    Total Energy =                       -270.1147704382510710
  @DF-RHF Final Energy:  -270.11478162673086
    Total Energy =                       -270.1147816267308599
  Basis Set: CC-PVTZ
  Basis Set:
  @DF-RHF Final Energy:  -270.11479105692973
    Total Energy =                       -270.1147910569297892
  Basis Set: CC-PVTZ
  Basis Set:
  Basis Set: CC-PVTZ
  Basis Set:
  @DF-RHF Final Energy:  -270.11479826615818
    Total Energy =                       -270.1147982661577771
  Basis Set: CC-PVTZ
  Basis Set:
  Basis Set: CC-PVTZ
  Basis Set:
  @DF-RHF Final Energy:  -270.11480013137646
    Total Energy =                       -270.1148001313765690
  Basis Set: CC-PVTZ
  Basis Set:
  Charge       = 0
  Multiplicity = 1
  Basis Set: CC-PVTZ
  Basis Set:

    Orbital Energies (a.u.)
    -----------------------

    Doubly Occupied:

       1A    -20.543468     2A    -11.267153     3A    -11.218486
       4A    -11.217690     5A    -11.214884     6A    -11.206953
       7A     -1.363912     8A     -1.117114     9A     -0.969876
      10A     -0.949990    11A     -0.799996    12A     -0.781350
      13A     -0.685917    14A     -0.666881    15A     -0.611551
      16A     -0.602349    17A     -0.575979    18A     -0.532198
      19A     -0.503066    20A     -0.484963    21A     -0.473327
      22A     -0.458877    23A     -0.447743    24A     -0.423216

  @DF-RHF Final Energy:  -270.11480052000843

   => Energetics <=

    Nuclear Repulsion Energy =            255.5879224521640651
    One-Electron Energy =                -873.1715654860416862
    Two-Electron Energy =                 347.4688425138692764
    DFT Exchange-Correlation Energy =       0.0000000000000000
    Empirical Dispersion Energy =           0.0000000000000000
    PCM Polarization Energy =               0.0000000000000000
    EFP Energy =                            0.0000000000000000
    Total Energy =                       -270.1148005200083162
    Molecular point group: c1
  Basis Set: CC-PVTZ
  Basis Set:

  -Total Gradient:
     Atom            X                  Y                   Z
    ------   -----------------  -----------------  -----------------
       1       -0.000230896641    -0.000284399545    -0.000688609554
       2        0.000344137810     0.000473659062     0.001042135906
       3       -0.000252655678    -0.000436786990    -0.000748793314
       4       -0.000002439927    -0.000003058296    -0.000000369417
       5       -0.000000468545    -0.000000534556    -0.000003289944
       6        0.000131469546     0.000264661368     0.000405094892
       7        0.000000945891    -0.000012127855     0.000001361281
       8        0.000000816985     0.000006260145     0.000007662860
       9        0.000002491634    -0.000005938992     0.000010495730
      10       -0.000002015378    -0.000018163358    -0.000001163093
      11        0.000001329964     0.000009923163    -0.000016857169
      12        0.000000532002     0.000005884053    -0.000012792096
      13        0.000018645449     0.000008913675    -0.000013155370
      14       -0.000021137948    -0.000008330648    -0.000013119177
      15       -0.000013603114     0.000013345828     0.000022287928
      16        0.000022847955    -0.000013307053     0.000009110540

  **** Optimization is complete! (in 10 steps) ****
    Final optimized geometry and variables:
    Molecular point group: c1

    Geometry (in Angstrom), charge = 0, multiplicity = 1:

    H            2.337100617071     0.722829320125    -0.499978795567
    O            2.082675521476    -0.079307521657    -0.084697262169
    C            0.746196559925    -0.015096716802     0.334407802558
    H            0.734422700580    -0.009579688759     1.422649476528
    C           -0.080979184788    -1.191942451099    -0.164217242071
    C           -0.037844523425     1.190352259047    -0.171705302838
    H            0.116430651135    -1.319353092205    -1.223467517035
    H            0.171255214564    -2.121944173177     0.328392015915
    C           -1.532380874464    -0.750901747422     0.075099524711
    H            0.160123800796     1.308939686356    -1.234300278165
    H            0.239457146212     2.115239194533     0.320443161122
    C           -1.506715372235     0.802502315829     0.058271202634
    H           -2.202314694846    -1.154999066639    -0.672072958060
    H           -1.885656608900    -1.107529594227     1.034863739966
    H           -2.151167935941     1.214163938129    -0.706939876501
    H           -1.857245480310     1.195190433597     1.004631421471

  Mulliken Charges: (a.u.)
   Center  Symbol    Alpha    Beta     Spin     Total
       1     H     0.39092  0.39092  0.00000  0.21817
       2     O     4.20812  4.20812  0.00000 -0.41623
       3     C     2.92393  2.92393  0.00000  0.15214
       4     H     0.45906  0.45906  0.00000  0.08188
       5     C     3.09212  3.09212  0.00000 -0.18425
       6     C     3.11743  3.11743  0.00000 -0.23485
       7     H     0.45703  0.45703  0.00000  0.08593
       8     H     0.44340  0.44340  0.00000  0.11320
       9     C     3.11431  3.11431  0.00000 -0.22862
      10     H     0.45651  0.45651  0.00000  0.08698
      11     H     0.44211  0.44211  0.00000  0.11577
      12     C     3.11058  3.11058  0.00000 -0.22116
      13     H     0.44402  0.44402  0.00000  0.11195
      14     H     0.44869  0.44869  0.00000  0.10261
      15     H     0.44412  0.44412  0.00000  0.11177
      16     H     0.44765  0.44765  0.00000  0.10470

   Total alpha = 24.00000, Total beta = 24.00000, Total charge =  0.00000

*** Psi4 exiting successfully. Buy a developer a beer!
