  ==> Input File <==

--------------------------------------------------------------------------
set {
	reference rhf
	basis 6-31G*
}

set_num_threads( 1 )
memory 2 gb

molecule MOL {
0 1

O	 3.225979	 0.970355	 -0.599647
C	 2.701189	 0.057885	 -0.047330
C	 1.245376	 -0.013843	 0.345420
O	 3.347903	 -1.046386	 0.304773
C	 0.455112	 1.231400	 -0.050772
H	 0.838542	 -0.913825	 -0.103701
H	 1.208210	 -0.175333	 1.419774
C	 -0.998893	 1.219485	 0.433193
H	 0.482531	 1.345121	 -1.130325
H	 0.957290	 2.103070	 0.354729
C	 -1.883438	 0.145884	 -0.207175
H	 -1.431207	 2.195402	 0.224832
H	 -1.019646	 1.105716	 1.516076
C	 -3.304279	 0.637326	 -0.491244
H	 -1.425423	 -0.186808	 -1.137421
H	 -1.936772	 -0.728848	 0.437009
C	 -4.198744	 -0.428797	 -1.126417
H	 -3.260358	 1.505424	 -1.146767
H	 -3.759027	 0.980155	 0.436858
C	 -5.614758	 0.071162	 -1.410396
H	 -3.745299	 -0.773208	 -2.053461
H	 -4.247391	 -1.295595	 -0.470615
H	 -6.224198	 -0.706648	 -1.860066
H	 -5.602505	 0.917065	 -2.091934
H	 -6.108145	 0.391198	 -0.496931
C	 4.728119	 -1.109107	 -0.004993
H	 4.882018	 -1.033965	 -1.071845
H	 5.068212	 -2.067527	 0.355250
H	 5.265056	 -0.311663	 0.488280

	symmetry c1
}
set optking {
	frozen_dihedral = ("
		21 17 14 11,
		17 14 11 15,
		6 3 5 9,
		11 8 5 9,
		2 4 26 27,
		1 2 4 26,
		6 3 2 1
	")
}

ee = energy('scf')
oeprop('DIPOLE', 'QUADRUPOLE', 'MULLIKEN_CHARGES')
f=open( 'psi4out.xyz', 'w' )
f.write( "29  " )
f.write( str(ee) + "\n" )
f.write( MOL.save_string_xyz() )
f.close()
--------------------------------------------------------------------------

    Molecular point group: c1

    Geometry (in Angstrom), charge = 0, multiplicity = 1:

       Center              X                  Y                   Z               Mass
    ------------   -----------------  -----------------  -----------------  -----------------
           O          3.210233656071     0.825609221423    -0.335227439078    15.994914619560
           C          2.685443656071    -0.086860778577     0.217089560922    12.000000000000
           C          1.229630656071    -0.158588778577     0.609839560922    12.000000000000
           O          3.332157656071    -1.191131778577     0.569192560922    15.994914619560
           C          0.439366656071     1.086654221423     0.213647560922    12.000000000000
           H          0.822796656071    -1.058570778577     0.160718560922     1.007825032070
           H          1.192464656071    -0.320078778577     1.684193560922     1.007825032070
           C         -1.014638343929     1.074739221423     0.697612560922    12.000000000000
           H          0.466785656071     1.200375221423    -0.865905439078     1.007825032070
           H          0.941544656071     1.958324221423     0.619148560922     1.007825032070
           C         -1.899183343929     0.001138221423     0.057244560922    12.000000000000
           H         -1.446952343929     2.050656221423     0.489251560922     1.007825032070
           H         -1.035391343929     0.960970221423     1.780495560922     1.007825032070
           C         -3.320024343929     0.492580221423    -0.226824439078    12.000000000000
           H         -1.441168343929    -0.331553778577    -0.873001439078     1.007825032070
           H         -1.952517343929    -0.873593778577     0.701428560922     1.007825032070
           C         -4.214489343929    -0.573542778577    -0.861997439078    12.000000000000
           H         -3.276103343929     1.360678221423    -0.882347439078     1.007825032070
           H         -3.774772343929     0.835409221423     0.701277560922     1.007825032070
           C         -5.630503343929    -0.073583778577    -1.145976439078    12.000000000000
           H         -3.761044343929    -0.917953778577    -1.789041439078     1.007825032070
           H         -4.263136343929    -1.440340778577    -0.206195439078     1.007825032070
           H         -6.239943343929    -0.851393778577    -1.595646439078     1.007825032070
           H         -5.618250343929     0.772319221423    -1.827514439078     1.007825032070
           H         -6.123890343929     0.246452221423    -0.232511439078     1.007825032070
           C          4.712373656071    -1.253852778577     0.259426560922    12.000000000000
           H          4.866272656071    -1.178710778577    -0.807425439078     1.007825032070
           H          5.052466656071    -2.212272778577     0.619669560922     1.007825032070
           H          5.249310656071    -0.456408778577     0.752699560922     1.007825032070

  Charge       = 0
  Multiplicity = 1
  Basis Set: 6-31G*
  Basis Set:

    Orbital Energies (a.u.)
    -----------------------

    Doubly Occupied:

       1A    -20.603392     2A    -20.545290     3A    -11.372068
       4A    -11.280686     5A    -11.234837     6A    -11.219150
       7A    -11.216498     8A    -11.215434     9A    -11.215105
      10A    -11.214387    11A    -11.208781    12A     -1.469117
      13A     -1.362576    14A     -1.098056    15A     -1.066607
      16A     -1.019359    17A     -0.977043    18A     -0.928078
      19A     -0.861903    20A     -0.799930    21A     -0.790154
      22A     -0.763493    23A     -0.699769    24A     -0.682677
      25A     -0.671919    26A     -0.651714    27A     -0.627964
      28A     -0.605778    29A     -0.593218    30A     -0.579793
      31A     -0.566298    32A     -0.552068    33A     -0.531677
      34A     -0.528454    35A     -0.517846    36A     -0.512961
      37A     -0.494024    38A     -0.477355    39A     -0.471459
      40A     -0.459615    41A     -0.458123    42A     -0.456111
      43A     -0.441312    44A     -0.434589

  @DF-RHF Final Energy:  -501.04086960594998

   => Energetics <=

    Nuclear Repulsion Energy =            610.3941870196057380
    One-Electron Energy =               -1891.9168881673886062
    Two-Electron Energy =                 780.4818315418335715
    DFT Exchange-Correlation Energy =       0.0000000000000000
    Empirical Dispersion Energy =           0.0000000000000000
    PCM Polarization Energy =               0.0000000000000000
    EFP Energy =                            0.0000000000000000
    Total Energy =                       -501.0408696059491831

  Mulliken Charges: (a.u.)
   Center  Symbol    Alpha    Beta     Spin     Total
       1     O     4.28590  4.28590  0.00000 -0.57181
       2     C     2.60545  2.60545  0.00000  0.78909
       3     C     3.20864  3.20864  0.00000 -0.41728
       4     O     4.30742  4.30742  0.00000 -0.61484
       5     C     3.15523  3.15523  0.00000 -0.31046
       6     H     0.39856  0.39856  0.00000  0.20288
       7     H     0.40121  0.40121  0.00000  0.19758
       8     C     3.15867  3.15867  0.00000 -0.31735
       9     H     0.41313  0.41313  0.00000  0.17373
      10     H     0.40941  0.40941  0.00000  0.18117
      11     C     3.15517  3.15517  0.00000 -0.31034
      12     H     0.41651  0.41651  0.00000  0.16698
      13     H     0.42212  0.42212  0.00000  0.15576
      14     C     3.15269  3.15269  0.00000 -0.30538
      15     H     0.42266  0.42266  0.00000  0.15468
      16     H     0.42174  0.42174  0.00000  0.15652
      17     C     3.15191  3.15191  0.00000 -0.30382
      18     H     0.42284  0.42284  0.00000  0.15432
      19     H     0.42331  0.42331  0.00000  0.15339
      20     C     3.23935  3.23935  0.00000 -0.47870
      21     H     0.42293  0.42293  0.00000  0.15415
      22     H     0.42337  0.42337  0.00000  0.15327
      23     H     0.41929  0.41929  0.00000  0.16142
      24     H     0.42156  0.42156  0.00000  0.15689
      25     H     0.42181  0.42181  0.00000  0.15638
      26     C     3.09238  3.09238  0.00000 -0.18477
      27     H     0.40911  0.40911  0.00000  0.18179
      28     H     0.40850  0.40850  0.00000  0.18299
      29     H     0.40912  0.40912  0.00000  0.18175

   Total alpha = 44.00000, Total beta = 44.00000, Total charge =  0.00000
