                              Psi4 1.0.54 Driver

  ==> Input File <==

--------------------------------------------------------------------------
set {
	reference rhf
	basis cc-pvtz
}

set_num_threads( 4 )
memory 2 gb

molecule MOL {
0 1

H	 3.078425	 -1.344495	 -0.391983
O	 2.173507	 -1.597788	 -0.411770
C	 1.364203	 -0.540413	 -0.205732
C	 1.856132	 0.738928	 0.003970
C	 0.002482	 -0.763422	 -0.207949
H	 2.917201	 0.910860	 0.005377
C	 0.986754	 1.790790	 0.210664
H	 -0.380557	 -1.750329	 -0.369621
C	 -0.861704	 0.296439	 0.000000
H	 1.378805	 2.776255	 0.371842
C	 -0.376824	 1.576139	 0.209954
C	 -2.330689	 0.069587	 0.000000
H	 -1.055306	 2.392108	 0.370404
O	 -2.848621	 -0.993976	 0.000000
H	 -2.934306	 0.982410	 0.000000

	symmetry c1
}
set optking {
	frozen_dihedral = ("
		11 9 12 14
	")
}

ee,wfn = optimize('scf', return_wfn=True)
oeprop( wfn, 'DIPOLE', 'QUADRUPOLE', 'MULLIKEN_CHARGES')
f=open( 'psi4out.xyz', 'w' )
f.write( "15  " )
f.write( str(ee) + "\n" )
f.write( MOL.save_string_xyz() )
f.close()
--------------------------------------------------------------------------

    Molecular point group: c1
  Charge       = 0
  Multiplicity = 1
  Basis Set: CC-PVTZ
  Basis Set:
  @DF-RHF Final Energy:  -418.43857645380831
    Total Energy =                       -418.4385764538083095
    Molecular point group: c1
  Basis Set: CC-PVTZ
  Basis Set:
  Basis Set: CC-PVTZ
  Basis Set:
  @DF-RHF Final Energy:  -418.43818307957213
    Total Energy =                       -418.4381830795722408
  Basis Set: CC-PVTZ
  Basis Set:
  Basis Set: CC-PVTZ
  Basis Set:
  @DF-RHF Final Energy:  -418.43860559333700
    Total Energy =                       -418.4386055933372290
  Basis Set: CC-PVTZ
  Basis Set:
  Basis Set: CC-PVTZ
  Basis Set:
  @DF-RHF Final Energy:  -418.43862947118583
    Total Energy =                       -418.4386294711858909
  Basis Set: CC-PVTZ
  Basis Set:
  Charge       = 0
  Multiplicity = 1
  Basis Set: CC-PVTZ
  Basis Set:

    Orbital Energies (a.u.)
    -----------------------

    Doubly Occupied:

       1A    -20.595783     2A    -20.554603     3A    -11.327567
       4A    -11.311852     5A    -11.251046     6A    -11.250800
       7A    -11.247544     8A    -11.243053     9A    -11.237285
      10A     -1.427553    11A     -1.410334    12A     -1.174266
      13A     -1.052086    14A     -1.030912    15A     -0.902747
      16A     -0.850171    17A     -0.817047    18A     -0.740350
      19A     -0.706272    20A     -0.689924    21A     -0.644810
      22A     -0.640724    23A     -0.614697    24A     -0.608725
      25A     -0.580034    26A     -0.556353    27A     -0.545832
      28A     -0.516428    29A     -0.492796    30A     -0.426850
      31A     -0.358328    32A     -0.330793

  @DF-RHF Final Energy:  -418.43862961457285

   => Energetics <=

    Nuclear Repulsion Energy =            404.1018438737747829
    One-Electron Energy =               -1370.8058158667852240
    Two-Electron Energy =                 548.2653423784377082
    DFT Exchange-Correlation Energy =       0.0000000000000000
    Empirical Dispersion Energy =           0.0000000000000000
    PCM Polarization Energy =               0.0000000000000000
    EFP Energy =                            0.0000000000000000
    Total Energy =                       -418.4386296145727329
    Molecular point group: c1
  Basis Set: CC-PVTZ
  Basis Set:

  -Total Gradient:
     Atom            X                  Y                   Z
    ------   -----------------  -----------------  -----------------
       1       -0.000000662098     0.000002653289    -0.000012539858
       2       -0.000005502734    -0.000005792879     0.000005204379
       3        0.000041577435     0.000039725063     0.000033864117
       4        0.000004965704    -0.000041279188    -0.000055388223
       5       -0.000047646196     0.000011272545     0.000017693925
       6       -0.000001592032     0.000005862990     0.000005116125
       7       -0.000043585681     0.000009687676     0.000051416286
       8        0.000001871929     0.000005729432    -0.000009986853
       9       -0.000077453919     0.000306668744    -0.001208625229
      10        0.000006411613     0.000000196951    -0.000008330043
      11        0.000121749700    -0.000210178887     0.001356603667
      12       -0.000039412027    -0.000108075223    -0.001896733638
      13       -0.000000402954    -0.000004176471    -0.000003878333
      14        0.000030345944     0.000013724233     0.001729142681
      15        0.000009335319    -0.000026018277    -0.000003559004

  **** Optimization is complete! (in 5 steps) ****
    Final optimized geometry and variables:
    Molecular point group: c1

    Geometry (in Angstrom), charge = 0, multiplicity = 1:

    H            3.078218935734    -1.346250448851    -0.350346303913
    O            2.173461808744    -1.600881686175    -0.366514639677
    C            1.364063011906    -0.543740830729    -0.161345222509
    C            1.855766081296     0.737318373576     0.040386126816
    C            0.002809242327    -0.768392237047    -0.153486078925
    H            2.916786853355     0.909907689900     0.036674766786
    C            0.986440939743     1.789055777223     0.246075576558
    H           -0.379728497011    -1.757961056978    -0.300037025715
    C           -0.861660762838     0.293119519475     0.045688161083
    H            1.378177690395     2.775232255942     0.403763818049
    C           -0.377435294906     1.574134953608     0.247071335174
    C           -2.329794786788     0.060692644727     0.079451086790
    H           -1.055978531895     2.390984152888     0.403045279403
    O           -2.842868842853    -1.004965067992     0.089207854001
    H           -2.936115012625     0.971269812876     0.113903687972

  Mulliken Charges: (a.u.)
   Center  Symbol    Alpha    Beta     Spin     Total
       1     H     0.38732  0.38732  0.00000  0.22537
       2     O     4.16967  4.16967  0.00000 -0.33935
       3     C     2.84154  2.84154  0.00000  0.31692
       4     C     3.12682  3.12682  0.00000 -0.25364
       5     C     3.11902  3.11902  0.00000 -0.23805
       6     H     0.43125  0.43125  0.00000  0.13749
       7     C     3.06282  3.06282  0.00000 -0.12563
       8     H     0.40527  0.40527  0.00000  0.18946
       9     C     2.96884  2.96884  0.00000  0.06232
      10     H     0.41937  0.41937  0.00000  0.16127
      11     C     3.10987  3.10987  0.00000 -0.21974
      12     C     2.90997  2.90997  0.00000  0.18007
      13     H     0.42334  0.42334  0.00000  0.15332
      14     O     4.16832  4.16832  0.00000 -0.33664
      15     H     0.45658  0.45658  0.00000  0.08684

   Total alpha = 32.00000, Total beta = 32.00000, Total charge =  0.00000

*** Psi4 exiting successfully. Buy a developer a beer!
