  ==> Input File <==

--------------------------------------------------------------------------
set {
	reference rhf
	basis 6-31G*
}

set_num_threads( 4 )
memory 2 gb

molecule MOL {
0 1

H	 0.987317	 -0.496298	 -1.566192
O	 1.211775	 0.389047	 -1.313933
C	 0.709265	 0.639550	 -0.033818
C	 -0.793441	 0.596080	 0.058728
H	 1.062669	 1.626593	 0.241960
H	 1.131940	 -0.055711	 0.690739
C	 -1.530462	 -0.493172	 -0.025500
H	 -1.268471	 1.554324	 0.202247
H	 -1.092586	 -1.461565	 -0.186463
H	 -2.602122	 -0.450675	 0.050101

	symmetry c1
}
set optking {
	frozen_dihedral = ("
		5 3 4 7
	")
}

ee = optimize('scf')
oeprop('DIPOLE', 'QUADRUPOLE', 'MULLIKEN_CHARGES')
f=open( 'psi4out.xyz', 'w' )
f.write( "10  " )
f.write( str(ee) + "\n" )
f.write( MOL.save_string_xyz() )
f.close()
--------------------------------------------------------------------------

    Molecular point group: c1
  Charge       = 0
  Multiplicity = 1
  Basis Set: 6-31G*
  Basis Set:
  @DF-RHF Final Energy:  -191.91133365890317
    Total Energy =                       -191.9113336589031178
    Molecular point group: c1
  Basis Set: 6-31G*
  Basis Set:
  Basis Set: 6-31G*
  Basis Set:
  @DF-RHF Final Energy:  -191.91225091436831
    Total Energy =                       -191.9122509143682862
  Basis Set: 6-31G*
  Basis Set:
  Basis Set: 6-31G*
  Basis Set:
  @DF-RHF Final Energy:  -191.91245040628704
    Total Energy =                       -191.9124504062870074
  Basis Set: 6-31G*
  Basis Set:
  Basis Set: 6-31G*
  Basis Set:
  @DF-RHF Final Energy:  -191.91246478407146
    Total Energy =                       -191.9124647840714033
  Basis Set: 6-31G*
  Basis Set:
  Charge       = 0
  Multiplicity = 1
  Basis Set: 6-31G*
  Basis Set:

    Orbital Energies (a.u.)
    -----------------------

    Doubly Occupied:

       1A    -20.553781     2A    -11.275949     3A    -11.235805
       4A    -11.230975     5A     -1.360588     6A     -1.063905
       7A     -0.924863     8A     -0.774517     9A     -0.698802
      10A     -0.633610    11A     -0.624327    12A     -0.582025
      13A     -0.537630    14A     -0.491849    15A     -0.436924
      16A     -0.376871

  @DF-RHF Final Energy:  -191.91246664128153

   => Energetics <=

    Nuclear Repulsion Energy =            118.3670821981459795
    One-Electron Energy =                -494.9542566864109290
    Two-Electron Energy =                 184.6747078469835515
    DFT Exchange-Correlation Energy =       0.0000000000000000
    Empirical Dispersion Energy =           0.0000000000000000
    PCM Polarization Energy =               0.0000000000000000
    EFP Energy =                            0.0000000000000000
    Total Energy =                       -191.9124666412814122
    Molecular point group: c1
  Basis Set: 6-31G*
  Basis Set:

  -Total Gradient:
     Atom            X                  Y                   Z
    ------   -----------------  -----------------  -----------------
       1        0.000001767880    -0.000039195205    -0.000051141780
       2        0.000113211576    -0.000072801270    -0.000126903765
       3       -0.000083116631    -0.001076773001     0.003139853177
       4        0.000179971542    -0.000391725570     0.004684995880
       5       -0.000104252026     0.001128510626    -0.003851566851
       6       -0.000010301175     0.000018980461    -0.000029256346
       7       -0.000106964134     0.000325585619    -0.003670688416
       8        0.000036580690     0.000042950698    -0.000025466714
       9       -0.000008017536     0.000071644448    -0.000028604542
      10       -0.000018880188    -0.000007176807    -0.000041220641

  **** Optimization is complete! (in 5 steps) ****
    Final optimized geometry and variables:
    Molecular point group: c1

    Geometry (in Angstrom), charge = 0, multiplicity = 1:

    H            0.825175921104    -0.654024206723    -1.289650187817
    O            1.240898111936     0.117795057019    -0.931782225512
    C            0.746777263049     0.350336731346     0.365639578285
    C           -0.765984395531     0.334645894722     0.418510662601
    H            1.120613281928     1.330376803648     0.626272409401
    H            1.157215366211    -0.373560177055     1.064856293852
    C           -1.487202516153    -0.766847276121     0.335367422542
    H           -1.264626966646     1.289476103527     0.441510534233
    H           -1.033971871801    -1.745107506175     0.307892390848
    H           -2.561797651041    -0.741905690457     0.307273629245

  Mulliken Charges: (a.u.)
   Center  Symbol    Alpha    Beta     Spin     Total
       1     H     0.28293  0.28293  0.00000  0.43414
       2     O     4.36695  4.36695  0.00000 -0.73390
       3     C     3.00347  3.00347  0.00000 -0.00693
       4     C     3.08965  3.08965  0.00000 -0.17931
       5     H     0.41236  0.41236  0.00000  0.17529
       6     H     0.42319  0.42319  0.00000  0.15361
       7     C     3.19653  3.19653  0.00000 -0.39307
       8     H     0.40391  0.40391  0.00000  0.19217
       9     H     0.41437  0.41437  0.00000  0.17126
      10     H     0.40663  0.40663  0.00000  0.18673

   Total alpha = 16.00000, Total beta = 16.00000, Total charge = -0.00000
