  ==> Input File <==

--------------------------------------------------------------------------
set {
	reference rhf
	basis cc-pvtz
}

set_num_threads( 4 )
memory 2 gb

molecule MOL {
0 1

O	 -0.294688	 1.318815	 -0.000872
C	 -0.448732	 0.145721	 -0.000187
C	 -1.780748	 -0.548101	 0.000195
O	 0.550743	 -0.719877	 0.000412
H	 -1.859389	 -1.183260	 -0.872613
H	 -2.570236	 0.185547	 -0.001342
H	 -1.860233	 -1.180337	 0.875064
C	 1.569395	 -0.533949	 -0.962315
H	 1.164129	 -0.593096	 -1.961459
H	 2.279807	 -1.328220	 -0.800663
H	 2.046292	 0.425961	 -0.831306

	symmetry c1
}
set optking {
	frozen_dihedral = ("
		8 4 2 1
	")
}

ee = optimize('scf')
oeprop('DIPOLE', 'QUADRUPOLE', 'MULLIKEN_CHARGES')
f=open( 'psi4out.xyz', 'w' )
f.write( "11  " )
f.write( str(ee) + "\n" )
f.write( MOL.save_string_xyz() )
f.close()
--------------------------------------------------------------------------

    Molecular point group: c1
  Charge       = 0
  Multiplicity = 1
  Basis Set: CC-PVTZ
  Basis Set:
  @DF-RHF Final Energy:  -266.92751920305045
    Total Energy =                       -266.9275192030501103
    Molecular point group: c1
  Basis Set: CC-PVTZ
  Basis Set:
  Basis Set: CC-PVTZ
  Basis Set:
  @DF-RHF Final Energy:  -266.92498493917157
    Total Energy =                       -266.9249849391715088
  Basis Set: CC-PVTZ
  Basis Set:
  Basis Set: CC-PVTZ
  Basis Set:
  @DF-RHF Final Energy:  -266.92830926548879
    Total Energy =                       -266.9283092654887923
  Basis Set: CC-PVTZ
  Basis Set:
  Basis Set: CC-PVTZ
  Basis Set:
  @DF-RHF Final Energy:  -266.92838081498712
    Total Energy =                       -266.9283808149872357
  Basis Set: CC-PVTZ
  Basis Set:
  @DF-RHF Final Energy:  -266.92839045206961
    Total Energy =                       -266.9283904520694932
  @DF-RHF Final Energy:  -266.92839160936751
    Total Energy =                       -266.9283916093676794
  Basis Set: CC-PVTZ
  Basis Set:
  @DF-RHF Final Energy:  -266.92839175656354
    Total Energy =                       -266.9283917565635420
  Basis Set: CC-PVTZ
  Basis Set:
  Basis Set: CC-PVTZ
  Basis Set:
  @DF-RHF Final Energy:  -266.92837400421433
    Total Energy =                       -266.9283740042141631
  Basis Set: CC-PVTZ
  Basis Set:
  Basis Set: CC-PVTZ
  Basis Set:
  @DF-RHF Final Energy:  -266.92839351778622
    Total Energy =                       -266.9283935177861622
  Basis Set: CC-PVTZ
  Basis Set:
  Charge       = 0
  Multiplicity = 1
  Basis Set: CC-PVTZ
  Basis Set:

    Orbital Energies (a.u.)
    -----------------------

    Doubly Occupied:

       1A    -20.587659     2A    -20.541627     3A    -11.370941
       4A    -11.284433     5A    -11.234682     6A     -1.467307
       7A     -1.369555     8A     -1.033153     9A     -0.956664
      10A     -0.778970    11A     -0.697582    12A     -0.683842
      13A     -0.675225    14A     -0.604152    15A     -0.593983
      16A     -0.569234    17A     -0.535933    18A     -0.512015
      19A     -0.460007    20A     -0.444379

  @DF-RHF Final Energy:  -266.92839364702866

   => Energetics <=

    Nuclear Repulsion Energy =            182.9625734383344593
    One-Electron Energy =                -726.9792380899540376
    Two-Electron Energy =                 277.0882710045908652
    DFT Exchange-Correlation Energy =       0.0000000000000000
    Empirical Dispersion Energy =           0.0000000000000000
    PCM Polarization Energy =               0.0000000000000000
    EFP Energy =                            0.0000000000000000
    Total Energy =                       -266.9283936470286562
    Molecular point group: c1
  Basis Set: CC-PVTZ
  Basis Set:

  -Total Gradient:
     Atom            X                  Y                   Z
    ------   -----------------  -----------------  -----------------
       1       -0.000200923263     0.000058467423     0.009858232588
       2       -0.001295861820    -0.002064152204    -0.017348629175
       3       -0.000009140710     0.000042612568     0.000420809347
       4        0.005135452686     0.006408058761     0.012279551330
       5        0.000026862392    -0.000094028675    -0.000021883093
       6        0.000054710400     0.000026134831    -0.000072760615
       7        0.000037722418    -0.000080600192    -0.000097886662
       8       -0.003748841957    -0.004324885695    -0.005041721646
       9        0.000031993118    -0.000000734113    -0.000030946198
      10       -0.000042356787     0.000014397316     0.000030764321
      11        0.000010383524     0.000014729981     0.000024469803

  **** Optimization is complete! (in 10 steps) ****
    Final optimized geometry and variables:
    Molecular point group: c1

    Geometry (in Angstrom), charge = 0, multiplicity = 1:

    O           -0.235587080403     1.386762318393     0.193484762163
    C           -0.399059653910     0.218932248897     0.168323434730
    C           -1.735397907897    -0.461190941147     0.231317845770
    O            0.610423056761    -0.658309054157     0.190255950684
    H           -1.885891548485    -1.040743788442    -0.671851289730
    H           -2.518974203249     0.271390377382     0.336815551992
    H           -1.746776246421    -1.151783847765     1.064432797632
    C            1.664034552066    -0.460004563451    -0.730533581185
    H            1.301540283456    -0.577639991411    -1.744334325373
    H            2.399437900426    -1.219930505996    -0.522542257318
    H            2.102991043558     0.519354103778    -0.612886126858

  Mulliken Charges: (a.u.)
   Center  Symbol    Alpha    Beta     Spin     Total
       1     O     4.18212  4.18212  0.00000 -0.36424
       2     C     2.79969  2.79969  0.00000  0.40062
       3     C     3.13672  3.13672  0.00000 -0.27344
       4     O     4.15993  4.15993  0.00000 -0.31987
       5     H     0.44976  0.44976  0.00000  0.10047
       6     H     0.43845  0.43845  0.00000  0.12310
       7     H     0.44345  0.44345  0.00000  0.11310
       8     C     3.03219  3.03219  0.00000 -0.06439
       9     H     0.46491  0.46491  0.00000  0.07017
      10     H     0.44581  0.44581  0.00000  0.10839
      11     H     0.44695  0.44695  0.00000  0.10609

   Total alpha = 20.00000, Total beta = 20.00000, Total charge = -0.00000
