                              Psi4 1.0.54 Driver

  ==> Input File <==

--------------------------------------------------------------------------
set {
	reference rhf
	basis cc-pvtz
}

set_num_threads( 4 )
memory 2 gb

molecule MOL {
0 1

O	 1.944685	 2.801265	 -1.840275
C	 1.426577	 2.383562	 -2.823737
C	 0.148757	 1.570295	 -2.783705
C	 2.014352	 2.638921	 -4.193240
C	 -0.406034	 1.335887	 -1.385818
H	 -0.582400	 2.078500	 -3.408369
H	 0.346717	 0.624708	 -3.283388
C	 -1.691529	 0.513374	 -1.395151
H	 -0.584433	 2.292962	 -0.909063
H	 0.345610	 0.837982	 -0.783941
C	 -2.258482	 0.271340	 0.000669
H	 -2.439942	 1.017532	 -2.002585
H	 -1.505567	 -0.444216	 -1.876506
C	 -3.544441	 -0.550271	 -0.000253
H	 -2.444926	 1.227973	 0.482546
H	 -1.511380	 -0.233283	 0.608388
C	 -4.804551	 0.308747	 0.000556
H	 -3.553737	 -1.201524	 -0.870151
H	 -3.553831	 -1.203282	 0.868313
H	 -4.842050	 0.949078	 -0.874436
H	 -5.698404	 -0.304480	 -0.000254
H	 -4.842277	 0.947103	 0.876982
H	 1.298720	 3.165233	 -4.815264
H	 2.915931	 3.224667	 -4.101326
H	 2.238406	 1.698748	 -4.685091

	symmetry c1
}
set optking {
	frozen_dihedral = ("
		15 11 14 18
	")
}

ee,wfn = optimize('scf', return_wfn=True)
oeprop( wfn, 'DIPOLE', 'QUADRUPOLE', 'MULLIKEN_CHARGES')
f=open( 'psi4out.xyz', 'w' )
f.write( "25  " )
f.write( str(ee) + "\n" )
f.write( MOL.save_string_xyz() )
f.close()
--------------------------------------------------------------------------

    Molecular point group: c1
  Charge       = 0
  Multiplicity = 1
  Basis Set: CC-PVTZ
  Basis Set:
  @DF-RHF Final Energy:  -387.27069406845527
    Total Energy =                       -387.2706940684549863
    Molecular point group: c1
  Basis Set: CC-PVTZ
  Basis Set:
  Basis Set: CC-PVTZ
  Basis Set:
  @DF-RHF Final Energy:  -387.27093270958494
    Total Energy =                       -387.2709327095847129
  Basis Set: CC-PVTZ
  Basis Set:
  Basis Set: CC-PVTZ
  Basis Set:
  @DF-RHF Final Energy:  -387.27102647212575
    Total Energy =                       -387.2710264721258682
  Basis Set: CC-PVTZ
  Basis Set:
  Basis Set: CC-PVTZ
  Basis Set:
  @DF-RHF Final Energy:  -387.27097395839644
    Total Energy =                       -387.2709739583964392
  Basis Set: CC-PVTZ
  Basis Set:
  Basis Set: CC-PVTZ
  Basis Set:
  @DF-RHF Final Energy:  -387.27102821380430
    Total Energy =                       -387.2710282138041293
  Basis Set: CC-PVTZ
  Basis Set:
  Charge       = 0
  Multiplicity = 1
  Basis Set: CC-PVTZ
  Basis Set:

    Orbital Energies (a.u.)
    -----------------------

    Doubly Occupied:

       1A    -20.538907     2A    -11.320539     3A    -11.230237
       4A    -11.226613     5A    -11.215296     6A    -11.214600
       7A    -11.213645     8A    -11.211586     9A    -11.207155
      10A     -1.398949    11A     -1.094912    12A     -1.056758
      13A     -1.014854    14A     -0.968845    15A     -0.893264
      16A     -0.820014    17A     -0.786365    18A     -0.730839
      19A     -0.659623    20A     -0.655416    21A     -0.627225
      22A     -0.621913    23A     -0.611002    24A     -0.588977
      25A     -0.570054    26A     -0.557737    27A     -0.536245
      28A     -0.524991    29A     -0.517119    30A     -0.495053
      31A     -0.486874    32A     -0.478832    33A     -0.463650
      34A     -0.456211    35A     -0.452091    36A     -0.401390

  @DF-RHF Final Energy:  -387.27102835251293

   => Energetics <=

    Nuclear Repulsion Energy =            442.1345749501484192
    One-Electron Energy =               -1401.1156418484383721
    Two-Electron Energy =                 571.7100385457766833
    DFT Exchange-Correlation Energy =       0.0000000000000000
    Empirical Dispersion Energy =           0.0000000000000000
    PCM Polarization Energy =               0.0000000000000000
    EFP Energy =                            0.0000000000000000
    Total Energy =                       -387.2710283525133264
    Molecular point group: c1
  Basis Set: CC-PVTZ
  Basis Set:

  -Total Gradient:
     Atom            X                  Y                   Z
    ------   -----------------  -----------------  -----------------
       1        0.000010337498    -0.000005370600     0.000014241521
       2       -0.000021238235     0.000023740374    -0.000013222954
       3        0.000013271001    -0.000008704759     0.000002246402
       4        0.000005665760    -0.000011347150     0.000001617840
       5       -0.000000156963     0.000015945194    -0.000006551738
       6        0.000000040951     0.000000272867     0.000001744131
       7       -0.000000553102    -0.000002680089    -0.000002840624
       8       -0.000004984762    -0.000007881877     0.000012296488
       9        0.000003075453     0.000002458022     0.000000785101
      10        0.000000511015    -0.000000493208     0.000000450374
      11        0.000610983624    -0.001032476729     0.003083959730
      12        0.000001838469     0.000002124901     0.000001041666
      13       -0.000003453787    -0.000004946874    -0.000003470123
      14        0.001502896200    -0.002580435318     0.001461956884
      15       -0.000751875509     0.001275381473    -0.002834746751
      16       -0.000003281133    -0.000002431491     0.000001431173
      17        0.000006603029    -0.000006239931    -0.000005379189
      18       -0.001360846242     0.002338556485    -0.001711590132
      19        0.000007788187    -0.000000509625     0.000000869753
      20       -0.000002198129     0.000007457741    -0.000002995496
      21       -0.000011956547    -0.000001411492    -0.000000736584
      22       -0.000000169070    -0.000000086801     0.000002676204
      23       -0.000001500026     0.000001347904    -0.000001215829
      24       -0.000001997182    -0.000001195242     0.000003010219
      25        0.000001199507    -0.000001073771    -0.000005578066

  **** Optimization is complete! (in 6 steps) ****
    Final optimized geometry and variables:
    Molecular point group: c1

    Geometry (in Angstrom), charge = 0, multiplicity = 1:

    O            2.729845289034     1.561014309471    -0.243050221845
    C            2.224336608553     1.119781568664    -1.222715476904
    C            0.958282462786     0.288400373489    -1.177498370409
    C            2.817289288667     1.361088875300    -2.592611385576
    C            0.397676309739     0.068796016917     0.220496107692
    H            0.224036670012     0.775681685235    -1.815100723292
    H            1.173449623525    -0.662128935676    -1.660390509968
    C           -0.876123857041    -0.771378981217     0.216996967324
    H            0.203642581566     1.030856125758     0.680840302380
    H            1.152196397147    -0.409194121654     0.835058710883
    C           -1.437521570988    -1.014307586302     1.618047403492
    H           -1.629807063970    -0.281868244855    -0.395636622132
    H           -0.677067774695    -1.730199391803    -0.256157302497
    C           -2.763143241777    -1.790766402026     1.616506029673
    H           -1.587458599447    -0.049158657456     2.093912683537
    H           -0.694569147291    -1.543620774146     2.205351441059
    C           -3.992553933258    -0.884559244980     1.575173431543
    H           -2.794935645040    -2.445437560694     0.750483751291
    H           -2.823335012059    -2.425122511014     2.493718435198
    H           -3.972980064451    -0.229318763004     0.710643080123
    H           -4.906595524113    -1.465549805040     1.525402111388
    H           -4.044968592828    -0.259488489120     2.460111167226
    H            2.097946105953     1.866191125581    -3.227787335165
    H            3.709446254798     1.961786271420    -2.504961828357
    H            3.058538050327     0.416274759499    -3.067138156128

  Mulliken Charges: (a.u.)
   Center  Symbol    Alpha    Beta     Spin     Total
       1     O     4.17077  4.17077  0.00000 -0.34155
       2     C     2.86216  2.86216  0.00000  0.27568
       3     C     3.11328  3.11328  0.00000 -0.22656
       4     C     3.15125  3.15125  0.00000 -0.30250
       5     C     3.08372  3.08372  0.00000 -0.16744
       6     H     0.44569  0.44569  0.00000  0.10862
       7     H     0.44560  0.44560  0.00000  0.10880
       8     C     3.09149  3.09149  0.00000 -0.18299
       9     H     0.44567  0.44567  0.00000  0.10865
      10     H     0.44593  0.44593  0.00000  0.10815
      11     C     3.09443  3.09443  0.00000 -0.18887
      12     H     0.45544  0.45544  0.00000  0.08912
      13     H     0.45545  0.45545  0.00000  0.08910
      14     C     3.09101  3.09101  0.00000 -0.18203
      15     H     0.45466  0.45466  0.00000  0.09068
      16     H     0.44673  0.44673  0.00000  0.10653
      17     C     3.14802  3.14802  0.00000 -0.29604
      18     H     0.45634  0.45634  0.00000  0.08731
      19     H     0.44706  0.44706  0.00000  0.10587
      20     H     0.45604  0.45604  0.00000  0.08793
      21     H     0.44870  0.44870  0.00000  0.10259
      22     H     0.45440  0.45440  0.00000  0.09119
      23     H     0.45040  0.45040  0.00000  0.09920
      24     H     0.43535  0.43535  0.00000  0.12931
      25     H     0.45038  0.45038  0.00000  0.09924

   Total alpha = 36.00000, Total beta = 36.00000, Total charge = -0.00000

*** Psi4 exiting successfully. Buy a developer a beer!
