  ==> Input File <==

--------------------------------------------------------------------------
set {
	reference rhf
	basis cc-pvtz
}

set_num_threads( 4 )
memory 2 gb

molecule MOL {
0 1

O	 3.219313	 0.959291	 -0.614106
C	 2.698710	 0.058177	 -0.050237
C	 1.246364	 -0.005813	 0.348416
O	 3.344101	 -1.038700	 0.312317
C	 0.453207	 1.232821	 -0.049003
H	 0.839270	 -0.907818	 -0.092281
H	 1.216683	 -0.160521	 1.422434
C	 -0.998367	 1.217982	 0.432195
H	 0.481498	 1.345443	 -1.127236
H	 0.951413	 2.105557	 0.354893
C	 -1.882951	 0.151251	 -0.211235
H	 -1.429490	 2.193659	 0.228843
H	 -1.019755	 1.099323	 1.513279
C	 -3.342450	 0.243269	 0.226009
H	 -1.826223	 0.246578	 -1.293162
H	 -1.508033	 -0.839650	 0.027695
C	 -4.234517	 -0.821434	 -0.405970
H	 -3.730149	 1.228245	 -0.022691
H	 -3.398860	 0.159952	 1.308941
C	 -5.509434	 -1.084453	 0.388502
H	 -4.496270	 -0.516775	 -1.415618
H	 -3.674308	 -1.747440	 -0.503618
H	 -6.119023	 -1.844447	 -0.086676
H	 -6.109866	 -0.184841	 0.473876
H	 -5.281340	 -1.424243	 1.393352
C	 4.720529	 -1.114346	 0.001449
H	 4.874321	 -1.055557	 -1.065852
H	 5.057824	 -2.067950	 0.373977
H	 5.264321	 -0.313596	 0.480350

	symmetry c1
}
set optking {
	frozen_dihedral = ("
		21 17 14 11
	")
}

ee = optimize('scf')
oeprop('DIPOLE', 'QUADRUPOLE', 'MULLIKEN_CHARGES')
f=open( 'psi4out.xyz', 'w' )
f.write( "29  " )
f.write( str(ee) + "\n" )
f.write( MOL.save_string_xyz() )
f.close()
--------------------------------------------------------------------------

    Molecular point group: c1
  Charge       = 0
  Multiplicity = 1
  Basis Set: CC-PVTZ
  Basis Set:
  @DF-RHF Final Energy:  -501.22322035863510
    Total Energy =                       -501.2232203586347623
    Molecular point group: c1
  Basis Set: CC-PVTZ
  Basis Set:
  Basis Set: CC-PVTZ
  Basis Set:
  @DF-RHF Final Energy:  -501.22338349834138
    Total Energy =                       -501.2233834983421730
  Basis Set: CC-PVTZ
  Basis Set:
  Basis Set: CC-PVTZ
  Basis Set:
  @DF-RHF Final Energy:  -501.22341053529681
    Total Energy =                       -501.2234105352969209
  Basis Set: CC-PVTZ
  Basis Set:
  Basis Set: CC-PVTZ
  Basis Set:
  @DF-RHF Final Energy:  -501.22328068060744
    Total Energy =                       -501.2232806806077861
  Basis Set: CC-PVTZ
  Basis Set:
  Basis Set: CC-PVTZ
  Basis Set:
  @DF-RHF Final Energy:  -501.22342218399706
    Total Energy =                       -501.2234221839962629
  Basis Set: CC-PVTZ
  Basis Set:
  Charge       = 0
  Multiplicity = 1
  Basis Set: CC-PVTZ
  Basis Set:

    Orbital Energies (a.u.)
    -----------------------

    Doubly Occupied:

       1A    -20.596012     2A    -20.533857     3A    -11.364274
       4A    -11.278265     5A    -11.232977     6A    -11.217057
       7A    -11.215480     8A    -11.213947     9A    -11.213804
      10A    -11.212276    11A    -11.207096    12A     -1.471905
      13A     -1.365493    14A     -1.099186    15A     -1.067605
      16A     -1.020549    17A     -0.978136    18A     -0.929021
      19A     -0.862061    20A     -0.799971    21A     -0.790909
      22A     -0.765651    23A     -0.703041    24A     -0.685495
      25A     -0.676029    26A     -0.651732    27A     -0.627819
      28A     -0.607335    29A     -0.596467    30A     -0.582810
      31A     -0.566922    32A     -0.550135    33A     -0.533724
      34A     -0.531822    35A     -0.517459    36A     -0.509523
      37A     -0.499555    38A     -0.477621    39A     -0.471063
      40A     -0.461469    41A     -0.460631    42A     -0.458308
      43A     -0.443524    44A     -0.437069

  @DF-RHF Final Energy:  -501.22342178128224

   => Energetics <=

    Nuclear Repulsion Energy =            611.4976563292973424
    One-Electron Energy =               -1894.4719790260946866
    Two-Electron Energy =                 781.7509009155155582
    DFT Exchange-Correlation Energy =       0.0000000000000000
    Empirical Dispersion Energy =           0.0000000000000000
    PCM Polarization Energy =               0.0000000000000000
    EFP Energy =                            0.0000000000000000
    Total Energy =                       -501.2234217812817860
    Molecular point group: c1
  Basis Set: CC-PVTZ
  Basis Set:

  -Total Gradient:
     Atom            X                  Y                   Z
    ------   -----------------  -----------------  -----------------
       1       -0.000014790599    -0.000022529458    -0.000044693138
       2        0.000041529163     0.000054739973     0.000114344662
       3       -0.000035873394    -0.000023884235    -0.000050132081
       4       -0.000013263155    -0.000019313315    -0.000035478421
       5        0.000020616924     0.000030808340     0.000038633991
       6       -0.000041310794    -0.000033658222     0.000002623711
       7        0.000011648738     0.000012338076    -0.000014998799
       8       -0.000030141447     0.000036852981    -0.000042471521
       9        0.000004170869     0.000017230734    -0.000000274125
      10        0.000010107839    -0.000019435719     0.000007483196
      11        0.000559146814    -0.001752812244     0.002052383600
      12       -0.000019410130    -0.000004973134    -0.000008210049
      13       -0.000004337226     0.000012033333    -0.000006549688
      14       -0.001446491104     0.002800030494    -0.002523644676
      15        0.000011006407     0.000008672772     0.000025373965
      16        0.000034523904    -0.000031528546    -0.000005239543
      17        0.003909004848    -0.002794409939    -0.000891351473
      18        0.000004933389     0.000000724758    -0.000013634117
      19       -0.000013483893    -0.000001940712     0.000005434099
      20        0.000015007928     0.000003485702    -0.000000169950
      21       -0.002999624085     0.001720527016     0.001386819791
      22        0.000010274028     0.000013992362    -0.000000827019
      23       -0.000003355037    -0.000000903539    -0.000001931503
      24       -0.000002793983    -0.000001011033     0.000005536868
      25       -0.000005985140    -0.000004926927     0.000002536985
      26        0.000000021097     0.000000239682    -0.000001126692
      27        0.000001106235    -0.000000188529    -0.000000231693
      28       -0.000000777964    -0.000000262344    -0.000000371867
      29       -0.000001460225     0.000000101672     0.000000165486

  **** Optimization is complete! (in 6 steps) ****
    Final optimized geometry and variables:
    Molecular point group: c1

    Geometry (in Angstrom), charge = 0, multiplicity = 1:

    O            3.200949689927     0.989596684010    -0.663964828355
    C            2.683371382872     0.095941281492    -0.085633559482
    C            1.232045698506     0.035018325869     0.317355610201
    O            3.331516140784    -0.994802353589     0.290296597073
    C            0.435757010755     1.266703172945    -0.095191414142
    H            0.825547722144    -0.873728849007    -0.109917800537
    H            1.205129343089    -0.104938469161     1.393456253905
    C           -1.015432286438     1.254638198084     0.387366442962
    H            0.462850146182     1.365520582246    -1.174803527288
    H            0.932348860030     2.145660283511     0.297040692521
    C           -1.896685219231     0.174783191297    -0.238003355006
    H           -1.450120145556     2.225448889577     0.169102692598
    H           -1.035596618858     1.152936883132     1.470303560287
    C           -3.352606514631     0.255548226704     0.214398648008
    H           -1.847838808786     0.259276141067    -1.321721190924
    H           -1.514335183764    -0.811071294311     0.008115494187
    C           -4.255972409365    -0.791982643939    -0.439883094430
    H           -3.747617684205     1.248282082364     0.017698587401
    H           -3.383781994916     0.127155923570     1.294038161697
    C           -5.543122952471    -1.037774011341     0.343349768589
    H           -4.526522140518    -0.458482985774    -1.437520723654
    H           -3.717628751401    -1.728102589513    -0.550153018415
    H           -6.183717526088    -1.749095086430    -0.165492956737
    H           -6.105533301874    -0.118130901376     0.468649963500
    H           -5.331050805070    -1.430462074823     1.332167757328
    C            4.707164812479    -1.072662581173    -0.023510287511
    H            4.857763123309    -1.028423159661    -1.091970768274
    H            5.047101318659    -2.020486663338     0.361189261940
    H            5.251085113434    -0.264508180123     0.442646722445

  Mulliken Charges: (a.u.)
   Center  Symbol    Alpha    Beta     Spin     Total
       1     O     4.19697  4.19697  0.00000 -0.39394
       2     C     2.80484  2.80484  0.00000  0.39032
       3     C     3.10176  3.10176  0.00000 -0.20353
       4     O     4.14723  4.14723  0.00000 -0.29446
       5     C     3.09247  3.09247  0.00000 -0.18494
       6     H     0.43915  0.43915  0.00000  0.12170
       7     H     0.43990  0.43990  0.00000  0.12020
       8     C     3.10413  3.10413  0.00000 -0.20825
       9     H     0.44619  0.44619  0.00000  0.10762
      10     H     0.43961  0.43961  0.00000  0.12077
      11     C     3.09281  3.09281  0.00000 -0.18561
      12     H     0.44527  0.44527  0.00000  0.10946
      13     H     0.45357  0.45357  0.00000  0.09286
      14     C     3.08772  3.08772  0.00000 -0.17544
      15     H     0.45275  0.45275  0.00000  0.09451
      16     H     0.45375  0.45375  0.00000  0.09250
      17     C     3.08392  3.08392  0.00000 -0.16784
      18     H     0.45201  0.45201  0.00000  0.09599
      19     H     0.45636  0.45636  0.00000  0.08728
      20     C     3.14949  3.14949  0.00000 -0.29898
      21     H     0.45332  0.45332  0.00000  0.09336
      22     H     0.45534  0.45534  0.00000  0.08931
      23     H     0.44887  0.44887  0.00000  0.10226
      24     H     0.45479  0.45479  0.00000  0.09041
      25     H     0.45578  0.45578  0.00000  0.08843
      26     C     3.03814  3.03814  0.00000 -0.07628
      27     H     0.45434  0.45434  0.00000  0.09132
      28     H     0.44528  0.44528  0.00000  0.10944
      29     H     0.45423  0.45423  0.00000  0.09155

   Total alpha = 44.00000, Total beta = 44.00000, Total charge = -0.00000
