                              Psi4 1.0.54 Driver

  ==> Input File <==

--------------------------------------------------------------------------
set {
	reference rhf
	basis cc-pvtz
}

set_num_threads( 4 )
memory 2 gb

molecule MOL {
0 1

H	 -3.144994	 -1.202467	 -0.018751
O	 -2.321472	 -0.864941	 -0.318626
C	 -2.021813	 0.336996	 0.342658
C	 -0.669613	 0.837286	 -0.127252
H	 -2.780861	 1.084746	 0.127159
H	 -2.006390	 0.184138	 1.420053
C	 0.490865	 -0.082543	 0.241244
H	 -0.708709	 0.967192	 -1.204587
H	 -0.507562	 1.822272	 0.303070
C	 1.839800	 0.429565	 -0.255472
H	 0.305636	 -1.070211	 -0.165276
H	 0.527397	 -0.195943	 1.322876
C	 2.464311	 -0.466651	 -1.319694
H	 1.716175	 1.431597	 -0.657157
H	 2.523981	 0.520980	 0.584308
H	 1.819038	 -0.549423	 -2.187845
H	 3.418932	 -0.075563	 -1.652941
H	 2.632568	 -1.468480	 -0.938285

	symmetry c1
}
set optking {
	frozen_dihedral = ("
		14 10 7 11
	")
}

ee,wfn = optimize('scf', return_wfn=True)
oeprop( wfn, 'DIPOLE', 'QUADRUPOLE', 'MULLIKEN_CHARGES')
f=open( 'psi4out.xyz', 'w' )
f.write( "18  " )
f.write( str(ee) + "\n" )
f.write( MOL.save_string_xyz() )
f.close()
--------------------------------------------------------------------------

    Molecular point group: c1
  Charge       = 0
  Multiplicity = 1
  Basis Set: CC-PVTZ
  Basis Set:
  @DF-RHF Final Energy:  -271.28110295204397
    Total Energy =                       -271.2811029520437955
    Molecular point group: c1
  Basis Set: CC-PVTZ
  Basis Set:
  Basis Set: CC-PVTZ
  Basis Set:
  @DF-RHF Final Energy:  -271.28136394771491
    Total Energy =                       -271.2813639477147944
  Basis Set: CC-PVTZ
  Basis Set:
  Basis Set: CC-PVTZ
  Basis Set:
  @DF-RHF Final Energy:  -271.28143815185422
    Total Energy =                       -271.2814381518544451
  Basis Set: CC-PVTZ
  Basis Set:
  Charge       = 0
  Multiplicity = 1
  Basis Set: CC-PVTZ
  Basis Set:

    Orbital Energies (a.u.)
    -----------------------

    Doubly Occupied:

       1A    -20.546419     2A    -11.265807     3A    -11.210931
       4A    -11.208767     5A    -11.204678     6A    -11.201880
       7A     -1.364255     8A     -1.074268     9A     -1.008660
      10A     -0.913448    11A     -0.821694    12A     -0.782668
      13A     -0.707751    14A     -0.641675    15A     -0.619873
      16A     -0.591076    17A     -0.571626    18A     -0.561675
      19A     -0.509495    20A     -0.506488    21A     -0.499411
      22A     -0.465110    23A     -0.453367    24A     -0.448382
      25A     -0.430614

  @DF-RHF Final Energy:  -271.28143880247649

   => Energetics <=

    Nuclear Repulsion Energy =            250.5865718313498292
    One-Electron Energy =                -864.5159863103360749
    Two-Electron Energy =                 342.6479756765096454
    DFT Exchange-Correlation Energy =       0.0000000000000000
    Empirical Dispersion Energy =           0.0000000000000000
    PCM Polarization Energy =               0.0000000000000000
    EFP Energy =                            0.0000000000000000
    Total Energy =                       -271.2814388024766004
    Molecular point group: c1
  Basis Set: CC-PVTZ
  Basis Set:

  -Total Gradient:
     Atom            X                  Y                   Z
    ------   -----------------  -----------------  -----------------
       1       -0.000000209202    -0.000000128237    -0.000000226739
       2        0.000004264457     0.000000200022     0.000032688596
       3       -0.000029839168     0.000020992608    -0.000049241419
       4        0.000048211226    -0.000036344078     0.000065198786
       5       -0.000022835452    -0.000005076343     0.000005986357
       6        0.000002446765    -0.000013565576    -0.000018806875
       7        0.000702386565    -0.000776455498     0.001061766155
       8        0.000004724656    -0.000000090052     0.000012265073
       9        0.000002067286     0.000008156024     0.000002223622
      10        0.000202438219     0.000744827246     0.001237550874
      11       -0.000634299842     0.000555355575    -0.001109858560
      12       -0.000013042695    -0.000002745381    -0.000004421174
      13        0.000005604636     0.000036011868     0.000032989761
      14       -0.000280953999    -0.000540217089    -0.001264889062
      15        0.000007090635     0.000009065152    -0.000008819419
      16        0.000004368886     0.000007136700     0.000009791020
      17        0.000011658411    -0.000005690135    -0.000000415173
      18       -0.000014081378    -0.000001432806    -0.000003781824

  **** Optimization is complete! (in 4 steps) ****
    Final optimized geometry and variables:
    Molecular point group: c1

    Geometry (in Angstrom), charge = 0, multiplicity = 1:

    H           -3.049261689367    -1.212798724019     0.198924755484
    O           -2.223659358744    -0.870841895332    -0.089738974477
    C           -1.936765178434     0.329887494152     0.579415037376
    C           -0.580784682915     0.836982096106     0.128604146531
    H           -2.696050065436     1.075512764015     0.357321701153
    H           -1.933981396748     0.173143194584     1.656386755226
    C            0.581083344032    -0.077984730797     0.512327896955
    H           -0.604830642114     0.966823988950    -0.949484487069
    H           -0.428415989695     1.822506481297     0.560804570228
    C            1.944203501849     0.424859905329    -0.005356101963
    H            0.380039116287    -1.065488413357     0.116552046369
    H            0.605408827288    -0.176929828281     1.593272194707
    C            2.548436059649    -0.471403654825    -1.083438271997
    H            1.832322509785     1.424649035079    -0.413518435988
    H            2.646516485738     0.510256365940     0.816531012679
    H            1.880635543942    -0.562183387105    -1.933824801313
    H            3.491785070017    -0.075106010216    -1.442743517096
    H            2.731005400471    -1.470469659909    -0.702374691425

  Mulliken Charges: (a.u.)
   Center  Symbol    Alpha    Beta     Spin     Total
       1     H     0.39574  0.39574  0.00000  0.20851
       2     O     4.19824  4.19824  0.00000 -0.39648
       3     C     2.97388  2.97388  0.00000  0.05223
       4     C     3.09154  3.09154  0.00000 -0.18308
       5     H     0.46539  0.46539  0.00000  0.06921
       6     H     0.47375  0.47375  0.00000  0.05249
       7     C     3.09563  3.09563  0.00000 -0.19126
       8     H     0.45193  0.45193  0.00000  0.09614
       9     H     0.45310  0.45310  0.00000  0.09380
      10     C     3.08915  3.08915  0.00000 -0.17830
      11     H     0.44505  0.44505  0.00000  0.10990
      12     H     0.45343  0.45343  0.00000  0.09313
      13     C     3.14689  3.14689  0.00000 -0.29378
      14     H     0.45626  0.45626  0.00000  0.08747
      15     H     0.45016  0.45016  0.00000  0.09968
      16     H     0.45359  0.45359  0.00000  0.09282
      17     H     0.45120  0.45120  0.00000  0.09759
      18     H     0.45504  0.45504  0.00000  0.08993

   Total alpha = 25.00000, Total beta = 25.00000, Total charge = -0.00000

*** Psi4 exiting successfully. Buy a developer a beer!
