  ==> Input File <==

--------------------------------------------------------------------------
set {
	reference rhf
	basis 6-31G*
}

set_num_threads( 4 )
memory 2 gb

molecule MOL {
0 1

O	 1.938744	 1.128194	 0.579634
C	 1.705091	 0.115954	 0.001797
C	 0.381791	 -0.609817	 0.001258
O	 2.602496	 -0.520235	 -0.740539
C	 -0.823008	 0.326187	 0.001381
H	 0.371250	 -1.265087	 -0.865474
H	 0.370908	 -1.265746	 0.867490
C	 -2.149452	 -0.435131	 -0.000098
H	 -0.770201	 0.977095	 -0.865636
H	 -0.771220	 0.975655	 0.869608
C	 -3.368779	 0.488503	 -0.000883
H	 -2.193746	 -1.087250	 -0.871175
H	 -2.195311	 -1.087803	 0.870418
C	 -4.693822	 -0.272754	 -0.001129
H	 -3.325798	 1.139422	 -0.871284
H	 -3.326423	 1.139959	 0.869145
H	 -4.781274	 -0.907928	 -0.878124
H	 -5.538651	 0.408946	 -0.001420
H	 -4.781694	 -0.907783	 0.875984
C	 3.891818	 0.058683	 -0.826889
H	 3.836084	 1.048044	 -1.257686
H	 4.466703	 -0.594903	 -1.464235
H	 4.346122	 0.122446	 0.151399

	symmetry c1
}
set optking {
	frozen_dihedral = ("
		1 2 3 6
	")
}

ee = optimize('scf')
oeprop('DIPOLE', 'QUADRUPOLE', 'MULLIKEN_CHARGES')
f=open( 'psi4out.xyz', 'w' )
f.write( "23  " )
f.write( str(ee) + "\n" )
f.write( MOL.save_string_xyz() )
f.close()
--------------------------------------------------------------------------

    Molecular point group: c1
  Charge       = 0
  Multiplicity = 1
  Basis Set: 6-31G*
  Basis Set:
  @DF-RHF Final Energy:  -422.97514940607869
    Total Energy =                       -422.9751494060790264
    Molecular point group: c1
  Basis Set: 6-31G*
  Basis Set:
  Basis Set: 6-31G*
  Basis Set:
  @DF-RHF Final Energy:  -422.97431716889821
    Total Energy =                       -422.9743171688982102
  Basis Set: 6-31G*
  Basis Set:
  Basis Set: 6-31G*
  Basis Set:
  @DF-RHF Final Energy:  -422.97538569777515
    Total Energy =                       -422.9753856977752093
  Basis Set: 6-31G*
  Basis Set:
  Basis Set: 6-31G*
  Basis Set:
  @DF-RHF Final Energy:  -422.97553133487673
    Total Energy =                       -422.9755313348765640
  Basis Set: 6-31G*
  Basis Set:
  Charge       = 0
  Multiplicity = 1
  Basis Set: 6-31G*
  Basis Set:

    Orbital Energies (a.u.)
    -----------------------

    Doubly Occupied:

       1A    -20.605226     2A    -20.543568     3A    -11.372080
       4A    -11.280843     5A    -11.234798     6A    -11.221758
       7A    -11.218727     8A    -11.217189     9A    -11.210111
      10A     -1.469698    11A     -1.362041    12A     -1.093778
      13A     -1.043604    14A     -0.987025    15A     -0.932842
      16A     -0.844136    17A     -0.795751    18A     -0.769222
      19A     -0.696151    20A     -0.682445    21A     -0.671684
      22A     -0.652385    23A     -0.608253    24A     -0.598850
      25A     -0.573696    26A     -0.565937    27A     -0.549873
      28A     -0.525450    29A     -0.523502    30A     -0.506835
      31A     -0.484730    32A     -0.471393    33A     -0.466617
      34A     -0.462299    35A     -0.455273    36A     -0.433231

  @DF-RHF Final Energy:  -422.97553213082875

   => Energetics <=

    Nuclear Repulsion Energy =            452.2231766809866826
    One-Electron Energy =               -1472.1354163809396596
    Two-Electron Energy =                 596.9367075691244509
    DFT Exchange-Correlation Energy =       0.0000000000000000
    Empirical Dispersion Energy =           0.0000000000000000
    PCM Polarization Energy =               0.0000000000000000
    EFP Energy =                            0.0000000000000000
    Total Energy =                       -422.9755321308285829
    Molecular point group: c1
  Basis Set: 6-31G*
  Basis Set:

  -Total Gradient:
     Atom            X                  Y                   Z
    ------   -----------------  -----------------  -----------------
       1        0.000333575655    -0.000676497617     0.000766291418
       2       -0.000429861886     0.000824206975    -0.000996769359
       3       -0.000408967491     0.000747336084    -0.000303649409
       4        0.000037029620     0.000020556535    -0.000147209100
       5        0.000024403410    -0.000012185464     0.000056891221
       6        0.000445202962    -0.000791318931     0.000554999830
       7       -0.000004779213    -0.000015602645     0.000003925313
       8        0.000001148124    -0.000013496401    -0.000032441618
       9        0.000018351962    -0.000027382290     0.000001917025
      10       -0.000008911853     0.000005752643     0.000009173090
      11        0.000008867219     0.000005747919     0.000001211725
      12       -0.000008006114    -0.000013796837    -0.000005575985
      13        0.000011752325     0.000009704553    -0.000003951644
      14        0.000002655327    -0.000000981449    -0.000003580282
      15       -0.000004934675    -0.000000046718     0.000000936199
      16       -0.000001712278     0.000003652974     0.000000958563
      17       -0.000000018017    -0.000000569326     0.000000125267
      18        0.000000452600     0.000000647321    -0.000000210956
      19        0.000001273248     0.000001388379     0.000000150471
      20       -0.000025677390    -0.000141247345     0.000178613186
      21       -0.000046838082     0.000024296147    -0.000020925498
      22        0.000009581178     0.000023327881    -0.000026174014
      23        0.000045413366     0.000026507613    -0.000034705443

  **** Optimization is complete! (in 5 steps) ****
    Final optimized geometry and variables:
    Molecular point group: c1

    Geometry (in Angstrom), charge = 0, multiplicity = 1:

    O            1.916451762797     1.091561075067     0.665191150211
    C            1.714795079448     0.084695838647     0.064916042815
    C            0.396533488510    -0.651096541617     0.032964284915
    O            2.652604441353    -0.545430901897    -0.628708998769
    C           -0.809458909697     0.287233806700     0.070249370460
    H            0.376186553401    -1.303006130050    -0.831888775988
    H            0.390029589727    -1.299531364674     0.907116856534
    C           -2.136247261429    -0.471698328491     0.113212264339
    H           -0.788064937772     0.932955690212    -0.804377252067
    H           -0.723588952633     0.937290849374     0.933680316751
    C           -3.353426855909     0.454242676322     0.144003114901
    H           -2.208258663443    -1.130147108060    -0.751012783427
    H           -2.154692758820    -1.117052050775     0.990116879230
    C           -4.678868327131    -0.304828006205     0.192294092164
    H           -3.337812182566     1.097906832492    -0.732776076383
    H           -3.282082511957     1.112513156246     1.006866288516
    H           -4.794829157335    -0.947673805447    -0.675798481165
    H           -5.522290349769     0.378245504342     0.212611250942
    H           -4.739835344494    -0.931764847548     1.077408295621
    C            3.948949819163     0.024848952062    -0.620235853338
    H            3.927072454639     1.021770919594    -1.036158548048
    H            4.559774191648    -0.622027625700    -1.230458032576
    H            4.338639309607     0.068534315573     0.386590112714

  Mulliken Charges: (a.u.)
   Center  Symbol    Alpha    Beta     Spin     Total
       1     O     4.28688  4.28688  0.00000 -0.57375
       2     C     2.60391  2.60391  0.00000  0.79218
       3     C     3.20897  3.20897  0.00000 -0.41794
       4     O     4.30610  4.30610  0.00000 -0.61220
       5     C     3.15732  3.15732  0.00000 -0.31464
       6     H     0.40042  0.40042  0.00000  0.19916
       7     H     0.40058  0.40058  0.00000  0.19884
       8     C     3.15287  3.15287  0.00000 -0.30575
       9     H     0.41728  0.41728  0.00000  0.16545
      10     H     0.40408  0.40408  0.00000  0.19185
      11     C     3.15187  3.15187  0.00000 -0.30374
      12     H     0.42352  0.42352  0.00000  0.15295
      13     H     0.42313  0.42313  0.00000  0.15373
      14     C     3.23966  3.23966  0.00000 -0.47932
      15     H     0.42192  0.42192  0.00000  0.15617
      16     H     0.42069  0.42069  0.00000  0.15861
      17     H     0.42180  0.42180  0.00000  0.15640
      18     H     0.41839  0.41839  0.00000  0.16323
      19     H     0.42150  0.42150  0.00000  0.15700
      20     C     3.09330  3.09330  0.00000 -0.18661
      21     H     0.40839  0.40839  0.00000  0.18322
      22     H     0.40838  0.40838  0.00000  0.18325
      23     H     0.40904  0.40904  0.00000  0.18192

   Total alpha = 36.00000, Total beta = 36.00000, Total charge =  0.00000
