  ==> Input File <==

--------------------------------------------------------------------------
set {
	reference rhf
	basis 6-31G*
}

set_num_threads( 4 )
memory 2 gb

molecule MOL {
0 1

O	 2.862325	 1.357334	 0.000267
C	 2.843464	 0.164689	 -0.000222
C	 1.546494	 -0.624492	 -0.000609
C	 4.124123	 -0.644674	 -0.000428
C	 0.291004	 0.242674	 0.000989
H	 1.557904	 -1.283758	 -0.867573
H	 1.558622	 -1.285963	 0.864672
C	 -0.994322	 -0.586602	 0.000262
H	 0.309117	 0.896430	 -0.865270
H	 0.309661	 0.894078	 0.869017
C	 -2.259874	 0.272531	 0.000494
H	 -1.004862	 -1.240012	 -0.870939
H	 -1.005220	 -1.241071	 0.870675
C	 -3.104032	 0.106534	 1.265348
H	 -2.864076	 0.022685	 -0.869872
H	 -1.983601	 1.319434	 -0.112044
C	 -4.366571	 0.967710	 1.258050
H	 -3.381807	 -0.939369	 1.378273
H	 -2.501590	 0.357455	 2.135958
H	 -5.007169	 0.717003	 0.417259
H	 -4.943928	 0.827852	 2.166785
H	 -4.120702	 2.023092	 1.181485
H	 4.165367	 -1.288615	 -0.874074
H	 4.976217	 0.020734	 -0.001915
H	 4.166763	 -1.286207	 0.874930

	symmetry c1
}
set optking {
	frozen_dihedral = ("
		15 11 8 12
	")
}

ee = optimize('scf')
oeprop('DIPOLE', 'QUADRUPOLE', 'MULLIKEN_CHARGES')
f=open( 'psi4out.xyz', 'w' )
f.write( "25  " )
f.write( str(ee) + "\n" )
f.write( MOL.save_string_xyz() )
f.close()
--------------------------------------------------------------------------

    Molecular point group: c1
  Charge       = 0
  Multiplicity = 1
  Basis Set: 6-31G*
  Basis Set:
  @DF-RHF Final Energy:  -387.13096412472623
    Total Energy =                       -387.1309641247265745
    Molecular point group: c1
  Basis Set: 6-31G*
  Basis Set:
  Basis Set: 6-31G*
  Basis Set:
  @DF-RHF Final Energy:  -387.13118345345885
    Total Energy =                       -387.1311834534587888
  Basis Set: 6-31G*
  Basis Set:
  Basis Set: 6-31G*
  Basis Set:
  @DF-RHF Final Energy:  -387.13126100486380
    Total Energy =                       -387.1312610048639726
  Basis Set: 6-31G*
  Basis Set:
  Basis Set: 6-31G*
  Basis Set:
  @DF-RHF Final Energy:  -387.13123272392602
    Total Energy =                       -387.1312327239265869
  Basis Set: 6-31G*
  Basis Set:
  Basis Set: 6-31G*
  Basis Set:
  @DF-RHF Final Energy:  -387.13124439073772
    Total Energy =                       -387.1312443907376064
  Basis Set: 6-31G*
  Basis Set:
  Basis Set: 6-31G*
  Basis Set:
  @DF-RHF Final Energy:  -387.13126728724376
    Total Energy =                       -387.1312672872446683
  Basis Set: 6-31G*
  Basis Set:
  Charge       = 0
  Multiplicity = 1
  Basis Set: 6-31G*
  Basis Set:

    Orbital Energies (a.u.)
    -----------------------

    Doubly Occupied:

       1A    -20.550503     2A    -11.326383     3A    -11.231704
       4A    -11.228365     5A    -11.217304     6A    -11.216373
       7A    -11.215442     8A    -11.213141     9A    -11.207767
      10A     -1.395814    11A     -1.092117    12A     -1.055553
      13A     -1.014001    14A     -0.967838    15A     -0.890621
      16A     -0.818186    17A     -0.788752    18A     -0.730449
      19A     -0.653625    20A     -0.651945    21A     -0.634595
      22A     -0.620018    23A     -0.601638    24A     -0.581359
      25A     -0.564792    26A     -0.563903    27A     -0.540742
      28A     -0.528432    29A     -0.507630    30A     -0.489771
      31A     -0.485877    32A     -0.480335    33A     -0.464413
      34A     -0.454309    35A     -0.448420    36A     -0.399533

  @DF-RHF Final Energy:  -387.13126800978114

   => Energetics <=

    Nuclear Repulsion Energy =            440.5025664070699349
    One-Electron Energy =               -1397.6043671297138644
    Two-Electron Energy =                 569.9705327128623367
    DFT Exchange-Correlation Energy =       0.0000000000000000
    Empirical Dispersion Energy =           0.0000000000000000
    PCM Polarization Energy =               0.0000000000000000
    EFP Energy =                            0.0000000000000000
    Total Energy =                       -387.1312680097815928
    Molecular point group: c1
  Basis Set: 6-31G*
  Basis Set:

  -Total Gradient:
     Atom            X                  Y                   Z
    ------   -----------------  -----------------  -----------------
       1       -0.000001303573    -0.000000357273    -0.000000221618
       2        0.000001926669     0.000000257838     0.000001310369
       3        0.000003432776     0.000001728373    -0.000005381819
       4       -0.000001653983    -0.000000745842    -0.000008529750
       5       -0.000000732665    -0.000004921775     0.000007718081
       6        0.000000628301    -0.000000710162    -0.000002185564
       7       -0.000002062826     0.000002241481    -0.000001870982
       8        0.000633134600     0.000946563108    -0.000696058453
       9       -0.000004917082     0.000003147556     0.000002830535
      10        0.000001224752    -0.000007546713     0.000002716650
      11       -0.000629048597    -0.000940805375     0.000701893411
      12       -0.000417134544    -0.000634444573     0.000478821596
      13       -0.000000128477     0.000003535435     0.000004346448
      14        0.000001692854    -0.000005043233    -0.000009397300
      15        0.000415678430     0.000628840502    -0.000478000806
      16       -0.000004044685     0.000002184299    -0.000001592824
      17        0.000004434277     0.000006382532     0.000003950220
      18       -0.000003562518     0.000002308218    -0.000005865162
      19        0.000002456841    -0.000004153806    -0.000002650641
      20        0.000003467821    -0.000001921170     0.000001247279
      21       -0.000001148544     0.000002110077     0.000001322583
      22       -0.000001198571     0.000001410149    -0.000000218689
      23        0.000000643028    -0.000002252090     0.000002075582
      24       -0.000001135188     0.000000553587     0.000000942700
      25       -0.000000649110     0.000001638855     0.000002798153

  **** Optimization is complete! (in 7 steps) ****
    Final optimized geometry and variables:
    Molecular point group: c1

    Geometry (in Angstrom), charge = 0, multiplicity = 1:

    O            2.758904098013     1.212164792178    -0.286220552395
    C            2.743891779449     0.019474100613    -0.280684128952
    C            1.449429558349    -0.773868999167    -0.286358707986
    C            4.027069605622    -0.785713777788    -0.267112447100
    C            0.191654298924     0.089042464944    -0.302042448454
    H            1.469985622262    -1.439551205495    -1.148330989084
    H            1.456204355733    -1.428999088202     0.583850651768
    C           -1.092445738824    -0.743291565253    -0.309720918993
    H            0.214802120281     0.737870780645    -1.171776141558
    H            0.198307164114     0.745950026258     0.562441084771
    C           -2.377428976347     0.114417655199    -0.295328951202
    H           -1.092429949353    -1.398292691553    -1.177634059698
    H           -1.090121248737    -1.405251831735     0.554259822303
    C           -3.208159811313    -0.045873414934     0.979973773119
    H           -2.996081068114    -0.127236049980    -1.155812936941
    H           -2.114271969037     1.163610727821    -0.410644200324
    C           -4.457602938424     0.833066811349     0.994193249126
    H           -3.497876052344    -1.088718094896     1.090972213482
    H           -2.588703342843     0.191704188836     1.842709163219
    H           -5.111985396711     0.597288441094     0.159537469103
    H           -5.025905301696     0.695085746078     1.908902434621
    H           -4.197490924851     1.885319046654     0.921774419203
    H            4.077367405348    -1.433142486573    -1.137699333712
    H            4.877025682236    -0.117589657068    -0.264593016696
    H            4.064708779190    -1.423468963638     0.611239665413

  Mulliken Charges: (a.u.)
   Center  Symbol    Alpha    Beta     Spin     Total
       1     O     4.26118  4.26118  0.00000 -0.52236
       2     C     2.73566  2.73566  0.00000  0.52869
       3     C     3.21144  3.21144  0.00000 -0.42288
       4     C     3.28668  3.28668  0.00000 -0.57335
       5     C     3.14995  3.14995  0.00000 -0.29990
       6     H     0.41000  0.41000  0.00000  0.18000
       7     H     0.40989  0.40989  0.00000  0.18021
       8     C     3.15739  3.15739  0.00000 -0.31478
       9     H     0.41153  0.41153  0.00000  0.17694
      10     H     0.41225  0.41225  0.00000  0.17550
      11     C     3.15475  3.15475  0.00000 -0.30950
      12     H     0.42205  0.42205  0.00000  0.15589
      13     H     0.42245  0.42245  0.00000  0.15509
      14     C     3.15309  3.15309  0.00000 -0.30617
      15     H     0.42102  0.42102  0.00000  0.15796
      16     H     0.41845  0.41845  0.00000  0.16311
      17     C     3.24023  3.24023  0.00000 -0.48045
      18     H     0.42317  0.42317  0.00000  0.15366
      19     H     0.42296  0.42296  0.00000  0.15408
      20     H     0.42187  0.42187  0.00000  0.15626
      21     H     0.41941  0.41941  0.00000  0.16119
      22     H     0.42069  0.42069  0.00000  0.15862
      23     H     0.40871  0.40871  0.00000  0.18258
      24     H     0.39647  0.39647  0.00000  0.20706
      25     H     0.40871  0.40871  0.00000  0.18258

   Total alpha = 36.00000, Total beta = 36.00000, Total charge =  0.00000
