                              Psi4 1.0.54 Driver

  ==> Input File <==

--------------------------------------------------------------------------
set {
	reference rhf
	basis cc-pvtz
}

set_num_threads( 4 )
memory 2 gb

molecule MOL {
0 1

O	 2.280787	 0.498324	 0.961711
C	 1.704209	 0.119472	 -0.000093
C	 0.380337	 -0.600947	 -0.000234
O	 2.161208	 0.285025	 -1.230605
C	 -0.824290	 0.329213	 -0.000115
H	 0.371455	 -1.255476	 -0.865660
H	 0.371410	 -1.255787	 0.864952
C	 -2.146151	 -0.432825	 -0.000068
H	 -0.773936	 0.979158	 -0.866319
H	 -0.773838	 0.979034	 0.866186
C	 -3.366283	 0.483552	 0.000557
H	 -2.189286	 -1.084450	 -0.869996
H	 -2.188867	 -1.085083	 0.869399
C	 -4.687436	 -0.278003	 0.000108
H	 -3.325150	 1.134819	 -0.867957
H	 -3.325087	 1.133730	 0.869885
H	 -4.773783	 -0.912098	 -0.876078
H	 -5.531922	 0.401392	 0.000363
H	 -4.773901	 -0.912898	 0.875703
C	 3.399835	 0.949191	 -1.378968
H	 3.346255	 1.950196	 -0.977310
H	 3.594184	 0.983300	 -2.438643
H	 4.185620	 0.408111	 -0.873015

	symmetry c1
}
set optking {
	frozen_dihedral = ("
		1 2 3 6
	")
}

ee,wfn = optimize('scf', return_wfn=True)
oeprop( wfn, 'DIPOLE', 'QUADRUPOLE', 'MULLIKEN_CHARGES')
f=open( 'psi4out.xyz', 'w' )
f.write( "23  " )
f.write( str(ee) + "\n" )
f.write( MOL.save_string_xyz() )
f.close()
--------------------------------------------------------------------------

    Molecular point group: c1
  Charge       = 0
  Multiplicity = 1
  Basis Set: CC-PVTZ
  Basis Set:
  @DF-RHF Final Energy:  -423.12910780020525
    Total Energy =                       -423.1291078002051336
    Molecular point group: c1
  Basis Set: CC-PVTZ
  Basis Set:
  Basis Set: CC-PVTZ
  Basis Set:
  @DF-RHF Final Energy:  -423.12947195904758
    Total Energy =                       -423.1294719590471232
  Basis Set: CC-PVTZ
  Basis Set:
  Basis Set: CC-PVTZ
  Basis Set:
  @DF-RHF Final Energy:  -422.90771928788376
    Total Energy =                       -422.9077192878834239
  Basis Set: CC-PVTZ
  Basis Set:
  Basis Set: CC-PVTZ
  Basis Set:
  @DF-RHF Final Energy:  -423.05270070135322
    Total Energy =                       -423.0527007013532739
  Basis Set: CC-PVTZ
  Basis Set:
  @DF-RHF Final Energy:  -423.12265040557548
    Total Energy =                       -423.1226504055755413
  @DF-RHF Final Energy:  -422.53333496846750
    Total Energy =                       -422.5333349684681252
  @DF-RHF Final Energy:  -422.88473493878212
    Total Energy =                       -422.8847349387824579
  @DF-RHF Final Energy:  -423.06695712527693
    Total Energy =                       -423.0669571252768719
  @DF-RHF Final Energy:  -423.12090287713556
    Total Energy =                       -423.1209028771351086
  @DF-RHF Final Energy:  -423.12813524988513
    Total Energy =                       -423.1281352498855313
  @DF-RHF Final Energy:  -423.12982251783893
    Total Energy =                       -423.1298225178388748
  Basis Set: CC-PVTZ
  Basis Set:
  @DF-RHF Final Energy:  -423.12978245294556
    Total Energy =                       -423.1297824529452782
  Basis Set: CC-PVTZ
  Basis Set:
  Basis Set: CC-PVTZ
  Basis Set:
  @DF-RHF Final Energy:  -423.12991308855686
    Total Energy =                       -423.1299130885569184
  Basis Set: CC-PVTZ
  Basis Set:
  Basis Set: CC-PVTZ
  Basis Set:
  @DF-RHF Final Energy:  -423.12992534683229
    Total Energy =                       -423.1299253468321240
  Basis Set: CC-PVTZ
  Basis Set:
  Charge       = 0
  Multiplicity = 1
  Basis Set: CC-PVTZ
  Basis Set:

    Orbital Energies (a.u.)
    -----------------------

    Doubly Occupied:

       1A    -20.597478     2A    -20.531517     3A    -11.363066
       4A    -11.278276     5A    -11.231757     6A    -11.227313
       7A    -11.219620     8A    -11.217960     9A    -11.210120
      10A     -1.471634    11A     -1.364071    12A     -1.098284
      13A     -1.046469    14A     -0.986184    15A     -0.935162
      16A     -0.846721    17A     -0.798913    18A     -0.775001
      19A     -0.696465    20A     -0.683215    21A     -0.675724
      22A     -0.655125    23A     -0.608586    24A     -0.596819
      25A     -0.579826    26A     -0.572985    27A     -0.539669
      28A     -0.538704    29A     -0.525270    30A     -0.506749
      31A     -0.492544    32A     -0.476988    33A     -0.471178
      34A     -0.467470    35A     -0.457127    36A     -0.430996

  @DF-RHF Final Energy:  -423.12992561087270

   => Energetics <=

    Nuclear Repulsion Energy =            455.1930402432661253
    One-Electron Energy =               -1478.2959601105558249
    Two-Electron Energy =                 599.9729942564169960
    DFT Exchange-Correlation Energy =       0.0000000000000000
    Empirical Dispersion Energy =           0.0000000000000000
    PCM Polarization Energy =               0.0000000000000000
    EFP Energy =                            0.0000000000000000
    Total Energy =                       -423.1299256108727604
    Molecular point group: c1
  Basis Set: CC-PVTZ
  Basis Set:

  -Total Gradient:
     Atom            X                  Y                   Z
    ------   -----------------  -----------------  -----------------
       1       -0.000289184610     0.000109427699    -0.000092613065
       2        0.000397498112    -0.000112440758     0.000097382171
       3        0.000011742941    -0.000142796908     0.000214825912
       4        0.000030703177     0.000006648730     0.000006086894
       5        0.000004539192     0.000005730450    -0.000009041060
       6       -0.000116475361     0.000177226191    -0.000216057525
       7        0.000003367353    -0.000008021237     0.000013943004
       8        0.000002079622     0.000001173680     0.000021324284
       9       -0.000004337792     0.000012814823    -0.000004285554
      10        0.000005792992    -0.000005663266     0.000000590179
      11       -0.000001642454    -0.000000648807    -0.000014813333
      12       -0.000005795482     0.000000931852     0.000000724843
      13       -0.000004246667    -0.000008049452    -0.000000811086
      14        0.000003934305     0.000001800782    -0.000001607853
      15       -0.000000818258     0.000008009045     0.000000533727
      16        0.000008261437    -0.000005395590     0.000000611287
      17       -0.000003090109     0.000002641596     0.000004147590
      18       -0.000003172119    -0.000004775635    -0.000004416293
      19       -0.000004840595    -0.000005815112    -0.000001303964
      20       -0.000037206903    -0.000001064505    -0.000009217182
      21        0.000002111974     0.000003589155     0.000001969619
      22       -0.000002172709    -0.000020035886    -0.000006624649
      23        0.000002951953    -0.000015286847    -0.000001347939

  **** Optimization is complete! (in 15 steps) ****
    Final optimized geometry and variables:
    Molecular point group: c1

    Geometry (in Angstrom), charge = 0, multiplicity = 1:

    O            0.233942613923     0.946368809567     2.450976992418
    C            0.787957064999     0.784834844054     1.416539826610
    C            0.668334109122    -0.454488405103     0.569634489660
    O            1.559826622538     1.701827645359     0.857413922211
    C           -0.513397215074    -0.342788674859    -0.400980271245
    H            1.587335449476    -0.601808348494     0.018001925001
    H            0.520572577666    -1.291006141520     1.238697295687
    C           -0.680962567914    -1.592415461874    -1.259634533056
    H           -0.369216766821     0.521450390501    -1.041940196145
    H           -1.420323635250    -0.165911300960     0.167628121361
    C           -1.855314162215    -1.500238543863    -2.229727950563
    H            0.233981027491    -1.769849637799    -1.819614441204
    H           -0.816155038909    -2.456210541807    -0.613511210389
    C           -2.021677116468    -2.750433928639    -3.086946687136
    H           -1.720568011272    -0.636355186795    -2.874727080492
    H           -2.769231088988    -1.322856996917    -1.669891542227
    H           -1.135688040534    -2.935852678868    -3.685034814641
    H           -2.862539188728    -2.652651936485    -3.763715537904
    H           -2.193053267505    -3.627140026901    -2.471326927535
    C            1.703140268612     2.931255590226     1.539886235829
    H            0.745660746068     3.417355101969     1.654597604306
    H            2.357141188252     3.534853454694     0.931724720691
    H            2.138563919840     2.776020809736     2.515738568471

  Mulliken Charges: (a.u.)
   Center  Symbol    Alpha    Beta     Spin     Total
       1     O     4.20472  4.20472  0.00000 -0.40944
       2     C     2.80674  2.80674  0.00000  0.38652
       3     C     3.07633  3.07633  0.00000 -0.15266
       4     O     4.14980  4.14980  0.00000 -0.29960
       5     C     3.10099  3.10099  0.00000 -0.20197
       6     H     0.44379  0.44379  0.00000  0.11242
       7     H     0.43975  0.43975  0.00000  0.12050
       8     C     3.09088  3.09088  0.00000 -0.18175
       9     H     0.44783  0.44783  0.00000  0.10434
      10     H     0.44319  0.44319  0.00000  0.11362
      11     C     3.08475  3.08475  0.00000 -0.16950
      12     H     0.45406  0.45406  0.00000  0.09187
      13     H     0.45296  0.45296  0.00000  0.09408
      14     C     3.15020  3.15020  0.00000 -0.30039
      15     H     0.45392  0.45392  0.00000  0.09215
      16     H     0.45284  0.45284  0.00000  0.09433
      17     H     0.45500  0.45500  0.00000  0.09000
      18     H     0.44757  0.44757  0.00000  0.10486
      19     H     0.45449  0.45449  0.00000  0.09102
      20     C     3.03717  3.03717  0.00000 -0.07435
      21     H     0.45449  0.45449  0.00000  0.09103
      22     H     0.44551  0.44551  0.00000  0.10898
      23     H     0.45302  0.45302  0.00000  0.09395

   Total alpha = 36.00000, Total beta = 36.00000, Total charge = -0.00000

*** Psi4 exiting successfully. Buy a developer a beer!
