                              Psi4 1.0.54 Driver

  ==> Input File <==

--------------------------------------------------------------------------
set {
	reference rhf
	basis cc-pvtz
}

set_num_threads( 4 )
memory 2 gb

molecule MOL {
0 1

O	 3.219569	 0.959280	 -0.614118
C	 2.698966	 0.058166	 -0.050249
C	 1.246620	 -0.005824	 0.348404
O	 3.344357	 -1.038711	 0.312305
C	 0.453463	 1.232810	 -0.049015
H	 0.839526	 -0.907829	 -0.092293
H	 1.216939	 -0.160532	 1.422422
C	 -0.998111	 1.217971	 0.432183
H	 0.481754	 1.345432	 -1.127248
H	 0.951669	 2.105546	 0.354881
C	 -1.882695	 0.151240	 -0.211247
H	 -1.429234	 2.193648	 0.228831
H	 -1.019499	 1.099312	 1.513267
C	 -3.342194	 0.243258	 0.225997
H	 -1.825967	 0.246567	 -1.293174
H	 -1.507777	 -0.839661	 0.027683
C	 -4.234261	 -0.821445	 -0.405982
H	 -3.729893	 1.228234	 -0.022703
H	 -3.398604	 0.159941	 1.308929
C	 -5.690990	 -0.721862	 0.034246
H	 -4.179093	 -0.739316	 -1.488078
H	 -3.849720	 -1.806590	 -0.156034
H	 -6.296000	 -1.491096	 -0.431829
H	 -6.115706	 0.239991	 -0.233269
H	 -5.783547	 -0.834709	 1.109377
C	 4.720785	 -1.114357	 0.001437
H	 4.874577	 -1.055568	 -1.065864
H	 5.058080	 -2.067961	 0.373965
H	 5.264577	 -0.313607	 0.480338

	symmetry c1
}
ee,wfn = energy('scf', return_wfn=True)
oeprop( wfn, 'DIPOLE', 'QUADRUPOLE', 'MULLIKEN_CHARGES')
oeprop( wfn, 'GRID_ESP')
f=open( 'psi4out.xyz', 'w' )
f.write( "29  " )
f.write( str(ee) + "\n" )
f.write( MOL.save_string_xyz() )
f.close()
--------------------------------------------------------------------------

    Molecular point group: c1

    Geometry (in Angstrom), charge = 0, multiplicity = 1:

       Center              X                  Y                   Z               Mass
    ------------   -----------------  -----------------  -----------------  -----------------
           O          3.219312830071     0.959290826576    -0.614106176620    15.994914619560
           C          2.698709830071     0.058176826576    -0.050237176620    12.000000000000
           C          1.246363830071    -0.005813173424     0.348415823380    12.000000000000
           O          3.344100830071    -1.038700173424     0.312316823380    15.994914619560
           C          0.453206830071     1.232820826576    -0.049003176620    12.000000000000
           H          0.839269830071    -0.907818173424    -0.092281176620     1.007825032070
           H          1.216682830071    -0.160521173424     1.422433823380     1.007825032070
           C         -0.998367169929     1.217981826576     0.432194823380    12.000000000000
           H          0.481497830071     1.345442826576    -1.127236176620     1.007825032070
           H          0.951412830071     2.105556826576     0.354892823380     1.007825032070
           C         -1.882951169929     0.151250826576    -0.211235176620    12.000000000000
           H         -1.429490169929     2.193658826576     0.228842823380     1.007825032070
           H         -1.019755169929     1.099322826576     1.513278823380     1.007825032070
           C         -3.342450169929     0.243268826576     0.226008823380    12.000000000000
           H         -1.826223169929     0.246577826576    -1.293162176620     1.007825032070
           H         -1.508033169929    -0.839650173424     0.027694823380     1.007825032070
           C         -4.234517169929    -0.821434173424    -0.405970176620    12.000000000000
           H         -3.730149169929     1.228244826576    -0.022691176620     1.007825032070
           H         -3.398860169929     0.159951826576     1.308940823380     1.007825032070
           C         -5.691246169929    -0.721851173424     0.034257823380    12.000000000000
           H         -4.179349169929    -0.739305173424    -1.488066176620     1.007825032070
           H         -3.849976169929    -1.806579173424    -0.156022176620     1.007825032070
           H         -6.296256169929    -1.491085173424    -0.431817176620     1.007825032070
           H         -6.115962169929     0.240001826576    -0.233257176620     1.007825032070
           H         -5.783803169929    -0.834698173424     1.109388823380     1.007825032070
           C          4.720528830071    -1.114346173424     0.001448823380    12.000000000000
           H          4.874320830071    -1.055557173424    -1.065852176620     1.007825032070
           H          5.057823830071    -2.067950173424     0.373976823380     1.007825032070
           H          5.264320830071    -0.313596173424     0.480349823380     1.007825032070

  Charge       = 0
  Multiplicity = 1
  Basis Set: CC-PVTZ
  Basis Set:

    Orbital Energies (a.u.)
    -----------------------

    Doubly Occupied:

       1A    -20.596000     2A    -20.533832     3A    -11.364235
       4A    -11.278219     5A    -11.232926     6A    -11.217047
       7A    -11.215532     8A    -11.213945     9A    -11.213710
      10A    -11.212307    11A    -11.207106    12A     -1.471882
      13A     -1.365480    14A     -1.099377    15A     -1.068052
      16A     -1.020627    17A     -0.978172    18A     -0.929222
      19A     -0.862179    20A     -0.799742    21A     -0.791019
      22A     -0.765644    23A     -0.702969    24A     -0.685452
      25A     -0.676083    26A     -0.651931    27A     -0.629509
      28A     -0.605888    29A     -0.595892    30A     -0.582088
      31A     -0.568127    32A     -0.549743    33A     -0.533158
      34A     -0.531640    35A     -0.517298    36A     -0.512591
      37A     -0.496945    38A     -0.478271    39A     -0.470470
      40A     -0.463044    41A     -0.460559    42A     -0.458120
      43A     -0.443809    44A     -0.437475

  @DF-RHF Final Energy:  -501.22495776632115

   => Energetics <=

    Nuclear Repulsion Energy =            611.1888475933366180
    One-Electron Energy =               -1893.8526596791302836
    Two-Electron Energy =                 781.4388543194726253
    DFT Exchange-Correlation Energy =       0.0000000000000000
    Empirical Dispersion Energy =           0.0000000000000000
    PCM Polarization Energy =               0.0000000000000000
    EFP Energy =                            0.0000000000000000
    Total Energy =                       -501.2249577663211539

  Mulliken Charges: (a.u.)
   Center  Symbol    Alpha    Beta     Spin     Total
       1     O     4.19699  4.19699  0.00000 -0.39398
       2     C     2.80486  2.80486  0.00000  0.39027
       3     C     3.10169  3.10169  0.00000 -0.20337
       4     O     4.14722  4.14722  0.00000 -0.29444
       5     C     3.09264  3.09264  0.00000 -0.18529
       6     H     0.43907  0.43907  0.00000  0.12186
       7     H     0.43991  0.43991  0.00000  0.12017
       8     C     3.10388  3.10388  0.00000 -0.20776
       9     H     0.44623  0.44623  0.00000  0.10753
      10     H     0.43956  0.43956  0.00000  0.12088
      11     C     3.09288  3.09288  0.00000 -0.18577
      12     H     0.44537  0.44537  0.00000  0.10926
      13     H     0.45372  0.45372  0.00000  0.09255
      14     C     3.08602  3.08602  0.00000 -0.17205
      15     H     0.45301  0.45301  0.00000  0.09399
      16     H     0.45410  0.45410  0.00000  0.09180
      17     C     3.08336  3.08336  0.00000 -0.16671
      18     H     0.45383  0.45383  0.00000  0.09234
      19     H     0.45501  0.45501  0.00000  0.08998
      20     C     3.15055  3.15055  0.00000 -0.30110
      21     H     0.45446  0.45446  0.00000  0.09108
      22     H     0.45510  0.45510  0.00000  0.08979
      23     H     0.44835  0.44835  0.00000  0.10330
      24     H     0.45495  0.45495  0.00000  0.09010
      25     H     0.45525  0.45525  0.00000  0.08950
      26     C     3.03812  3.03812  0.00000 -0.07624
      27     H     0.45435  0.45435  0.00000  0.09130
      28     H     0.44527  0.44527  0.00000  0.10945
      29     H     0.45422  0.45422  0.00000  0.09155

   Total alpha = 44.00000, Total beta = 44.00000, Total charge =  0.00000

*** Psi4 exiting successfully. Buy a developer a beer!
