  ==> Input File <==

--------------------------------------------------------------------------
set {
	reference rhf
	basis 6-31G*
}

set_num_threads( 4 )
memory 2 gb

molecule MOL {
0 1

O	 -1.276010	 1.052711	 -0.768302
C	 -1.204840	 0.067374	 -0.106123
C	 -2.388195	 -0.672128	 0.458071
O	 -0.067104	 -0.527208	 0.221609
H	 -2.388023	 -1.694060	 0.097175
H	 -3.300579	 -0.174919	 0.164318
H	 -2.315377	 -0.706351	 1.539059
C	 1.064333	 0.280620	 0.575432
C	 2.289959	 -0.563186	 0.273073
C	 0.967620	 0.688068	 2.037375
H	 1.052445	 1.160608	 -0.050656
H	 2.312208	 -0.844858	 -0.773547
H	 3.192822	 -0.004608	 0.497041
H	 2.289296	 -1.468364	 0.870823
H	 1.832736	 1.280571	 2.317606
H	 0.080111	 1.282801	 2.212297
H	 0.933881	 -0.190119	 2.674286

	symmetry c1
}
set optking {
	frozen_dihedral = ("
		8 4 2 1
	")
}

ee = optimize('scf')
oeprop('DIPOLE', 'QUADRUPOLE', 'MULLIKEN_CHARGES')
f=open( 'psi4out.xyz', 'w' )
f.write( "17  " )
f.write( str(ee) + "\n" )
f.write( MOL.save_string_xyz() )
f.close()
--------------------------------------------------------------------------

    Molecular point group: c1
  Charge       = 0
  Multiplicity = 1
  Basis Set: 6-31G*
  Basis Set:
  @DF-RHF Final Energy:  -344.90688897348087
    Total Energy =                       -344.9068889734808181
    Molecular point group: c1
  Basis Set: 6-31G*
  Basis Set:
  Basis Set: 6-31G*
  Basis Set:
  @DF-RHF Final Energy:  -344.90418588417469
    Total Energy =                       -344.9041858841746944
  Basis Set: 6-31G*
  Basis Set:
  Basis Set: 6-31G*
  Basis Set:
  @DF-RHF Final Energy:  -344.90756009786656
    Total Energy =                       -344.9075600978663942
  Basis Set: 6-31G*
  Basis Set:
  Basis Set: 6-31G*
  Basis Set:
  @DF-RHF Final Energy:  -344.90761071608790
    Total Energy =                       -344.9076107160879587
  Basis Set: 6-31G*
  Basis Set:
  @DF-RHF Final Energy:  -344.90752247700084
    Total Energy =                       -344.9075224770008390
  @DF-RHF Final Energy:  -344.90762922844675
    Total Energy =                       -344.9076292284470924
  @DF-RHF Final Energy:  -344.90763208855458
    Total Energy =                       -344.9076320885546920
  @DF-RHF Final Energy:  -344.90763323600231
    Total Energy =                       -344.9076332360022548
  @DF-RHF Final Energy:  -344.89223140874714
    Total Energy =                       -344.8922314087470795
  @DF-RHF Final Energy:  -344.90713977833065
    Total Energy =                       -344.9071397783307020
  @DF-RHF Final Energy:  -344.90760187574904
    Total Energy =                       -344.9076018757490942
  Basis Set: 6-31G*
  Basis Set:
  @DF-RHF Final Energy:  -344.90763195452041
    Total Energy =                       -344.9076319545203546
  Basis Set: 6-31G*
  Basis Set:
  Basis Set: 6-31G*
  Basis Set:
  @DF-RHF Final Energy:  -344.90763357694226
    Total Energy =                       -344.9076335769420893
  Basis Set: 6-31G*
  Basis Set:
  Basis Set: 6-31G*
  Basis Set:
  @DF-RHF Final Energy:  -344.90763371769168
    Total Energy =                       -344.9076337176919083
  Basis Set: 6-31G*
  Basis Set:
  Charge       = 0
  Multiplicity = 1
  Basis Set: 6-31G*
  Basis Set:

    Orbital Energies (a.u.)
    -----------------------

    Doubly Occupied:

       1A    -20.591374     2A    -20.546810     3A    -11.374960
       4A    -11.292808     5A    -11.232746     6A    -11.223130
       7A    -11.219869     8A     -1.460922     9A     -1.362345
      10A     -1.077494    11A     -1.007113    12A     -0.952027
      13A     -0.847476    14A     -0.763521    15A     -0.693928
      16A     -0.664114    17A     -0.663111    18A     -0.620600
      19A     -0.586658    20A     -0.579614    21A     -0.562624
      22A     -0.551875    23A     -0.535690    24A     -0.525045
      25A     -0.503831    26A     -0.484463    27A     -0.446700
      28A     -0.434016

  @DF-RHF Final Energy:  -344.90763402021383

   => Energetics <=

    Nuclear Repulsion Energy =            322.9448135577707149
    One-Electron Energy =               -1110.0951663490604915
    Two-Electron Energy =                 442.2427187710759995
    DFT Exchange-Correlation Energy =       0.0000000000000000
    Empirical Dispersion Energy =           0.0000000000000000
    PCM Polarization Energy =               0.0000000000000000
    EFP Energy =                            0.0000000000000000
    Total Energy =                       -344.9076340202138340
    Molecular point group: c1
  Basis Set: 6-31G*
  Basis Set:

  -Total Gradient:
     Atom            X                  Y                   Z
    ------   -----------------  -----------------  -----------------
       1       -0.001099981404    -0.004509044172    -0.008061980605
       2        0.000783239693     0.006328159414     0.015757065910
       3       -0.000059476254     0.000020005225    -0.000097071760
       4        0.002035846509    -0.001068406373    -0.014616911881
       5       -0.000000779311     0.000004631084     0.000008892277
       6       -0.000004380389     0.000003148883    -0.000004483239
       7        0.000007673413    -0.000004482881     0.000002272991
       8       -0.001679286253    -0.000786672886     0.007003517351
       9        0.000003949722     0.000008101383    -0.000001043836
      10        0.000004656837     0.000003664756     0.000008419257
      11        0.000010154043    -0.000001456790    -0.000002749726
      12       -0.000001040242    -0.000000262053     0.000000062882
      13        0.000004441054    -0.000000124736    -0.000000396381
      14       -0.000005035914     0.000003770673     0.000000377659
      15       -0.000004188422    -0.000002465027    -0.000002576816
      16        0.000003287235     0.000002203843     0.000001463785
      17        0.000000919683    -0.000000770342     0.000005142136

  **** Optimization is complete! (in 15 steps) ****
    Final optimized geometry and variables:
    Molecular point group: c1

    Geometry (in Angstrom), charge = 0, multiplicity = 1:

    O           -1.227925062775     1.095534717107    -0.996614641629
    C           -1.131074461449     0.056328847545    -0.431762270761
    C           -2.296534519883    -0.773873018833     0.032675246936
    O            0.031566305008    -0.566371886622    -0.225371233188
    H           -2.229479128549    -1.767289518769    -0.395336461064
    H           -3.223618980005    -0.303181143382    -0.259147451847
    H           -2.258485048000    -0.881043071715     1.111426924195
    C            1.178589012371     0.214641627430     0.132561106986
    C            2.387042986238    -0.665879319395    -0.128171320234
    C            1.063435380050     0.651022929980     1.585514210313
    H            1.207634107325     1.081626452480    -0.512077660109
    H            2.418778409354    -0.966952394942    -1.168635666651
    H            3.300736363653    -0.128280982080     0.102904413819
    H            2.348550313161    -1.559276511518     0.485946180696
    H            1.938635447310     1.223327355690     1.875076313134
    H            0.192644852060     1.280347090732     1.736861936962
    H            0.986126018046    -0.212608482362     2.237930383506

  Mulliken Charges: (a.u.)
   Center  Symbol    Alpha    Beta     Spin     Total
       1     O     4.27471  4.27471  0.00000 -0.54942
       2     C     2.61649  2.61649  0.00000  0.76702
       3     C     3.28349  3.28349  0.00000 -0.56697
       4     O     4.31915  4.31915  0.00000 -0.63830
       5     H     0.39885  0.39885  0.00000  0.20230
       6     H     0.39792  0.39792  0.00000  0.20415
       7     H     0.40394  0.40394  0.00000  0.19213
       8     C     2.92804  2.92804  0.00000  0.14392
       9     C     3.24305  3.24305  0.00000 -0.48609
      10     C     3.25261  3.25261  0.00000 -0.50521
      11     H     0.39998  0.39998  0.00000  0.20003
      12     H     0.40863  0.40863  0.00000  0.18274
      13     H     0.41802  0.41802  0.00000  0.16397
      14     H     0.41445  0.41445  0.00000  0.17109
      15     H     0.41496  0.41496  0.00000  0.17007
      16     H     0.41115  0.41115  0.00000  0.17771
      17     H     0.41456  0.41456  0.00000  0.17087

   Total alpha = 28.00000, Total beta = 28.00000, Total charge = -0.00000
