  ==> Input File <==

--------------------------------------------------------------------------
set {
	reference rhf
	basis 6-31G*
}

set_num_threads( 1 )
memory 2 gb

molecule MOL {
0 1

O	 0.749854	 1.307668	 -0.000040
C	 0.576249	 0.131685	 -0.000108
C	 -0.766779	 -0.556801	 -0.000461
O	 1.568443	 -0.749345	 -0.000005
C	 -1.945214	 0.412366	 0.000161
H	 -0.796911	 -1.211249	 -0.867467
H	 -0.796854	 -1.212390	 0.865687
C	 -3.287791	 -0.317055	 0.000105
H	 -1.876087	 1.060580	 -0.866812
H	 -1.875822	 1.059691	 0.867761
H	 -3.394745	 -0.949193	 -0.877058
H	 -4.111778	 0.388953	 0.000015
H	 -3.394954	 -0.949187	 0.877259
C	 2.048831	 -1.176112	 1.261860
H	 2.430809	 -0.337685	 1.826374
H	 2.840610	 -1.878735	 1.053836
H	 1.261594	 -1.655149	 1.826033

	symmetry c1
}
set optking {
	frozen_dihedral = ("
		1 2 3 6,
		9 5 3 6
	")
}

ee = energy('scf')
oeprop('DIPOLE', 'QUADRUPOLE', 'MULLIKEN_CHARGES')
f=open( 'psi4out.xyz', 'w' )
f.write( "17  " )
f.write( str(ee) + "\n" )
f.write( MOL.save_string_xyz() )
f.close()
--------------------------------------------------------------------------

    Molecular point group: c1

    Geometry (in Angstrom), charge = 0, multiplicity = 1:

       Center              X                  Y                   Z               Mass
    ------------   -----------------  -----------------  -----------------  -----------------
           O          0.879234673376     1.453350368862    -0.194816016210    15.994914619560
           C          0.705629673376     0.277367368862    -0.194884016210    12.000000000000
           C         -0.637398326624    -0.411118631138    -0.195237016210    12.000000000000
           O          1.697823673376    -0.603662631138    -0.194781016210    15.994914619560
           C         -1.815833326624     0.558048368862    -0.194615016210    12.000000000000
           H         -0.667530326624    -1.065566631138    -1.062243016210     1.007825032070
           H         -0.667473326624    -1.066707631138     0.670910983790     1.007825032070
           C         -3.158410326624    -0.171372631138    -0.194671016210    12.000000000000
           H         -1.746706326624     1.206262368862    -1.061588016210     1.007825032070
           H         -1.746441326624     1.205373368862     0.672984983790     1.007825032070
           H         -3.265364326624    -0.803510631138    -1.071834016210     1.007825032070
           H         -3.982397326624     0.534635368862    -0.194761016210     1.007825032070
           H         -3.265573326624    -0.803504631138     0.682482983790     1.007825032070
           C          2.178211673376    -1.030429631138     1.067083983790    12.000000000000
           H          2.560189673376    -0.192002631138     1.631597983790     1.007825032070
           H          2.969990673376    -1.733052631138     0.859059983790     1.007825032070
           H          1.390974673376    -1.509466631138     1.631256983790     1.007825032070

  Charge       = 0
  Multiplicity = 1
  Basis Set: 6-31G*
  Basis Set:

    Orbital Energies (a.u.)
    -----------------------

    Doubly Occupied:

       1A    -20.587607     2A    -20.555446     3A    -11.374103
       4A    -11.295814     5A    -11.237706     6A    -11.222912
       7A    -11.215881     8A     -1.464468     9A     -1.367805
      10A     -1.080188    11A     -0.995766    12A     -0.955040
      13A     -0.833793    14A     -0.768648    15A     -0.698992
      16A     -0.682118    17A     -0.676229    18A     -0.634559
      19A     -0.618031    20A     -0.577987    21A     -0.565999
      22A     -0.544148    23A     -0.517996    24A     -0.491648
      25A     -0.490081    26A     -0.480783    27A     -0.455442
      28A     -0.434356

  @DF-RHF Final Energy:  -344.88516838465358

   => Energetics <=

    Nuclear Repulsion Energy =            313.7627828588238685
    One-Electron Energy =               -1091.6488376677550605
    Two-Electron Energy =                 433.0008864242765299
    DFT Exchange-Correlation Energy =       0.0000000000000000
    Empirical Dispersion Energy =           0.0000000000000000
    PCM Polarization Energy =               0.0000000000000000
    EFP Energy =                            0.0000000000000000
    Total Energy =                       -344.8851683846547189

  Mulliken Charges: (a.u.)
   Center  Symbol    Alpha    Beta     Spin     Total
       1     O     4.25847  4.25847  0.00000 -0.51694
       2     C     2.61568  2.61568  0.00000  0.76864
       3     C     3.21061  3.21061  0.00000 -0.42122
       4     O     4.31003  4.31003  0.00000 -0.62006
       5     C     3.15255  3.15255  0.00000 -0.30510
       6     H     0.39886  0.39886  0.00000  0.20229
       7     H     0.40862  0.40862  0.00000  0.18277
       8     C     3.24247  3.24247  0.00000 -0.48494
       9     H     0.40945  0.40945  0.00000  0.18111
      10     H     0.41223  0.41223  0.00000  0.17554
      11     H     0.42105  0.42105  0.00000  0.15790
      12     H     0.41498  0.41498  0.00000  0.17004
      13     H     0.42267  0.42267  0.00000  0.15465
      14     C     3.09337  3.09337  0.00000 -0.18673
      15     H     0.40720  0.40720  0.00000  0.18560
      16     H     0.40080  0.40080  0.00000  0.19840
      17     H     0.42098  0.42098  0.00000  0.15804

   Total alpha = 28.00000, Total beta = 28.00000, Total charge =  0.00000
