  ==> Input File <==

--------------------------------------------------------------------------
set {
	reference rhf
	basis 6-31G*
}

set_num_threads( 4 )
memory 2 gb

molecule MOL {
0 1

H	 -3.105572	 0.711190	 -0.895224
C	 -2.325628	 0.085977	 -1.325267
O	 -1.392607	 -0.295399	 -0.366433
H	 -2.776178	 -0.814941	 -1.718323
H	 -1.858541	 0.631502	 -2.144205
C	 -0.719715	 0.768384	 0.229244
C	 0.719720	 0.768376	 -0.229267
H	 -1.185038	 1.714362	 -0.050570
H	 -0.750528	 0.687237	 1.313896
O	 1.392611	 -0.295398	 0.366430
H	 0.750534	 0.687200	 -1.313918
H	 1.185043	 1.714359	 0.050526
C	 2.706965	 -0.449871	 -0.062409
H	 2.756559	 -0.644779	 -1.131878
H	 3.305899	 0.433456	 0.155466
H	 3.125548	 -1.294566	 0.467107

	symmetry c1
}
set optking {
	frozen_dihedral = ("
		2 3 6 7
	")
}

ee = optimize('scf')
oeprop('DIPOLE', 'QUADRUPOLE', 'MULLIKEN_CHARGES')
f=open( 'psi4out.xyz', 'w' )
f.write( "16  " )
f.write( str(ee) + "\n" )
f.write( MOL.save_string_xyz() )
f.close()
--------------------------------------------------------------------------

    Molecular point group: c1
  Charge       = 0
  Multiplicity = 1
  Basis Set: 6-31G*
  Basis Set:
  @DF-RHF Final Energy:  -306.97278444326554
    Total Energy =                       -306.9727844432651978
    Molecular point group: c1
  Basis Set: 6-31G*
  Basis Set:
  Basis Set: 6-31G*
  Basis Set:
  @DF-RHF Final Energy:  -306.97343222453014
    Total Energy =                       -306.9734322245301428
  Basis Set: 6-31G*
  Basis Set:
  Basis Set: 6-31G*
  Basis Set:
  @DF-RHF Final Energy:  -306.97357643693027
    Total Energy =                       -306.9735764369303297
  Basis Set: 6-31G*
  Basis Set:
  Charge       = 0
  Multiplicity = 1
  Basis Set: 6-31G*
  Basis Set:

    Orbital Energies (a.u.)
    -----------------------

    Doubly Occupied:

       1A    -20.554021     2A    -20.551130     3A    -11.269151
       4A    -11.268450     5A    -11.265871     6A    -11.264025
       7A     -1.386726     8A     -1.368819     9A     -1.028978
      10A     -0.939476    11A     -0.896203    12A     -0.821017
      13A     -0.685599    14A     -0.677302    15A     -0.657563
      16A     -0.637755    17A     -0.621925    18A     -0.604384
      19A     -0.558204    20A     -0.525707    21A     -0.512428
      22A     -0.480373    23A     -0.468256    24A     -0.415532
      25A     -0.407032

  @DF-RHF Final Energy:  -306.97357840323394

   => Energetics <=

    Nuclear Repulsion Energy =            259.3726602986340026
    One-Electron Energy =                -932.9606171623821638
    Two-Electron Energy =                 366.6143784605143310
    DFT Exchange-Correlation Energy =       0.0000000000000000
    Empirical Dispersion Energy =           0.0000000000000000
    PCM Polarization Energy =               0.0000000000000000
    EFP Energy =                            0.0000000000000000
    Total Energy =                       -306.9735784032337733
    Molecular point group: c1
  Basis Set: 6-31G*
  Basis Set:

  -Total Gradient:
     Atom            X                  Y                   Z
    ------   -----------------  -----------------  -----------------
       1        0.000028408468     0.000011301108     0.000010474412
       2       -0.000808587348    -0.000012440483     0.000666626637
       3        0.001055486238    -0.000317580273    -0.000833522157
       4       -0.000025951217     0.000003150043    -0.000037731726
       5        0.000029938888    -0.000003809992     0.000051111746
       6       -0.000564955536     0.000704596748    -0.000631976845
       7        0.000212382382    -0.000324067921     0.000819885806
       8        0.000019409096    -0.000008011460    -0.000009120590
       9        0.000077974135     0.000051608021     0.000001272150
      10       -0.000046776397    -0.000049376041    -0.000021201651
      11        0.000002764289    -0.000066266797     0.000038738028
      12        0.000025074135    -0.000007198976    -0.000024398764
      13       -0.000011961799     0.000019980320    -0.000045167483
      14        0.000011784124    -0.000003668844     0.000003805985
      15        0.000002898303    -0.000000135273     0.000003731904
      16       -0.000007887761     0.000001919822     0.000007472548

  **** Optimization is complete! (in 4 steps) ****
    Final optimized geometry and variables:
    Molecular point group: c1

    Geometry (in Angstrom), charge = 0, multiplicity = 1:

    H           -3.200247230668     0.607018499245    -0.665921410554
    C           -2.419537986209    -0.030638946759    -1.075745447417
    O           -1.479129915609    -0.375064197824    -0.108519366504
    H           -2.869675285090    -0.947754856739    -1.430185842912
    H           -1.964537840938     0.482199353695    -1.921472188441
    C           -0.772162548190     0.690387653512     0.458624921295
    C            0.678545137439     0.693134879986     0.022899825571
    H           -1.225690158677     1.642937911234     0.193914309757
    H           -0.812452703996     0.587990952333     1.536811629550
    O            1.325368443646    -0.401731203396     0.588171830858
    H            0.736867592884     0.653687837550    -1.064435802597
    H            1.151904264503     1.621673340860     0.347055548152
    C            2.648113502137    -0.554914310242     0.185786734444
    H            2.722534480557    -0.706730776469    -0.889374450634
    H            3.250987102629     0.311553018868     0.454068849256
    H            3.043692882970    -1.425552026776     0.690259936943

  Mulliken Charges: (a.u.)
   Center  Symbol    Alpha    Beta     Spin     Total
       1     H     0.42947  0.42947  0.00000  0.14106
       2     C     3.07971  3.07971  0.00000 -0.15941
       3     O     4.30144  4.30144  0.00000 -0.60289
       4     H     0.41120  0.41120  0.00000  0.17759
       5     H     0.43272  0.43272  0.00000  0.13457
       6     C     2.99938  2.99938  0.00000  0.00123
       7     C     2.99051  2.99051  0.00000  0.01898
       8     H     0.43047  0.43047  0.00000  0.13907
       9     H     0.41063  0.41063  0.00000  0.17874
      10     O     4.29919  4.29919  0.00000 -0.59838
      11     H     0.43013  0.43013  0.00000  0.13973
      12     H     0.43435  0.43435  0.00000  0.13129
      13     C     3.07911  3.07911  0.00000 -0.15822
      14     H     0.42918  0.42918  0.00000  0.14163
      15     H     0.43178  0.43178  0.00000  0.13644
      16     H     0.41072  0.41072  0.00000  0.17856

   Total alpha = 25.00000, Total beta = 25.00000, Total charge =  0.00000
