                              Psi4 1.0.54 Driver

  ==> Input File <==

--------------------------------------------------------------------------
set {
	reference rhf
	basis cc-pvtz
}

set_num_threads( 4 )
memory 2 gb

molecule MOL {
0 1

O	 -1.426295	 1.202946	 -0.299546
C	 -1.081510	 0.147522	 0.122720
C	 0.327029	 -0.064006	 0.641890
C	 -2.015215	 -1.038995	 0.148099
C	 1.349460	 -0.017068	 -0.500215
H	 0.399029	 -1.014606	 1.159950
H	 0.538021	 0.726928	 1.350471
C	 2.779782	 -0.209014	 -0.009215
H	 1.115007	 -0.782959	 -1.233891
H	 1.259071	 0.936707	 -1.006644
H	 3.481860	 -0.160270	 -0.833072
H	 2.903471	 -1.171535	 0.475559
H	 3.052569	 0.559584	 0.705428
H	 -1.542592	 -1.907477	 -0.297009
H	 -2.928470	 -0.804786	 -0.376885
H	 -2.243840	 -1.291571	 1.178530

	symmetry c1
}
set optking {
	frozen_dihedral = ("
		4 2 3 5
	")
}

ee,wfn = optimize('scf', return_wfn=True)
oeprop( wfn, 'DIPOLE', 'QUADRUPOLE', 'MULLIKEN_CHARGES')
f=open( 'psi4out.xyz', 'w' )
f.write( "16  " )
f.write( str(ee) + "\n" )
f.write( MOL.save_string_xyz() )
f.close()
--------------------------------------------------------------------------

    Molecular point group: c1
  Charge       = 0
  Multiplicity = 1
  Basis Set: CC-PVTZ
  Basis Set:
  @DF-RHF Final Energy:  -270.12929054676511
    Total Energy =                       -270.1292905467651053
    Molecular point group: c1
  Basis Set: CC-PVTZ
  Basis Set:
  Basis Set: CC-PVTZ
  Basis Set:
  @DF-RHF Final Energy:  -270.12894440963890
    Total Energy =                       -270.1289444096390753
  Basis Set: CC-PVTZ
  Basis Set:
  Basis Set: CC-PVTZ
  Basis Set:
  @DF-RHF Final Energy:  -270.12931683091904
    Total Energy =                       -270.1293168309190946
  Basis Set: CC-PVTZ
  Basis Set:
  Basis Set: CC-PVTZ
  Basis Set:
  @DF-RHF Final Energy:  -270.12933232077228
    Total Energy =                       -270.1293323207721642
  Basis Set: CC-PVTZ
  Basis Set:
  Basis Set: CC-PVTZ
  Basis Set:
  @DF-RHF Final Energy:  -270.12933152559691
    Total Energy =                       -270.1293315255968537
  Basis Set: CC-PVTZ
  Basis Set:
  Basis Set: CC-PVTZ
  Basis Set:
  @DF-RHF Final Energy:  -270.12935611019122
    Total Energy =                       -270.1293561101909972
  Basis Set: CC-PVTZ
  Basis Set:
  Charge       = 0
  Multiplicity = 1
  Basis Set: CC-PVTZ
  Basis Set:

    Orbital Energies (a.u.)
    -----------------------

    Doubly Occupied:

       1A    -20.537306     2A    -11.320262     3A    -11.228861
       4A    -11.228259     5A    -11.227751     6A    -11.216022
       7A     -1.397828     8A     -1.081809     9A     -1.015162
      10A     -0.949792    11A     -0.827805    12A     -0.736046
      13A     -0.660683    14A     -0.650787    15A     -0.615323
      16A     -0.607274    17A     -0.575181    18A     -0.561000
      19A     -0.541366    20A     -0.516295    21A     -0.502012
      22A     -0.483624    23A     -0.473635    24A     -0.400694

  @DF-RHF Final Energy:  -270.12935654772025

   => Energetics <=

    Nuclear Repulsion Energy =            237.4367729987430664
    One-Electron Energy =                -836.4227018551517858
    Two-Electron Energy =                 328.8565723086883281
    DFT Exchange-Correlation Energy =       0.0000000000000000
    Empirical Dispersion Energy =           0.0000000000000000
    PCM Polarization Energy =               0.0000000000000000
    EFP Energy =                            0.0000000000000000
    Total Energy =                       -270.1293565477203629
    Molecular point group: c1
  Basis Set: CC-PVTZ
  Basis Set:

  -Total Gradient:
     Atom            X                  Y                   Z
    ------   -----------------  -----------------  -----------------
       1        0.000009390703    -0.000012486977     0.000011864919
       2        0.000042506886     0.000001814356    -0.000156700776
       3       -0.000024690778    -0.000150388434     0.000000450127
       4       -0.000006758294     0.000023252768     0.000035953069
       5        0.000009042704     0.000116494608     0.000016595186
       6        0.000001418589    -0.000001360116     0.000000178708
       7       -0.000004368419     0.000004008698     0.000009092360
       8        0.000001432679     0.000005644270     0.000012243699
       9       -0.000003816553     0.000002057570    -0.000005844791
      10       -0.000007677831    -0.000011442788     0.000010199986
      11       -0.000003536584    -0.000000016854     0.000002524239
      12       -0.000001924676     0.000009482281    -0.000005435900
      13        0.000006297034    -0.000004365735    -0.000000372996
      14       -0.000010122168    -0.000001801525     0.000024352907
      15       -0.000001469685     0.000008004697     0.000013229646
      16       -0.000005723608     0.000011103180     0.000031669616

  **** Optimization is complete! (in 7 steps) ****
    Final optimized geometry and variables:
    Molecular point group: c1

    Geometry (in Angstrom), charge = 0, multiplicity = 1:

    O           -1.416299779413     1.206015082397    -0.312469458970
    C           -1.078106311888     0.146772949303     0.105390594784
    C            0.331410123762    -0.069987627469     0.625032593609
    C           -2.018600790945    -1.032927138335     0.131707048726
    C            1.356639912114    -0.030170243693    -0.512895108531
    H            0.401085890267    -1.012466420001     1.156740507214
    H            0.542186067810     0.726780047690     1.329276552050
    C            2.786749309435    -0.207707520283    -0.016347508131
    H            1.126516090298    -0.808037353001    -1.235808002085
    H            1.258701644043     0.914854215952    -1.032217889658
    H            3.489601019413    -0.173796529567    -0.840295797140
    H            2.913963993959    -1.159465996312     0.488524388773
    H            3.056722742531     0.576561861128     0.682419900102
    H           -1.572385166159    -1.879151641534    -0.379983827963
    H           -2.957237431289    -0.772866214379    -0.332836386872
    H           -2.190157809656    -1.335759921490     1.159661755216

  Mulliken Charges: (a.u.)
   Center  Symbol    Alpha    Beta     Spin     Total
       1     O     4.17709  4.17709  0.00000 -0.35418
       2     C     2.85766  2.85766  0.00000  0.28467
       3     C     3.09986  3.09986  0.00000 -0.19971
       4     C     3.15394  3.15394  0.00000 -0.30789
       5     C     3.08830  3.08830  0.00000 -0.17660
       6     H     0.44939  0.44939  0.00000  0.10121
       7     H     0.44105  0.44105  0.00000  0.11789
       8     C     3.14916  3.14916  0.00000 -0.29832
       9     H     0.45374  0.45374  0.00000  0.09251
      10     H     0.43973  0.43973  0.00000  0.12055
      11     H     0.44623  0.44623  0.00000  0.10754
      12     H     0.45551  0.45551  0.00000  0.08897
      13     H     0.45259  0.45259  0.00000  0.09482
      14     H     0.45068  0.45068  0.00000  0.09865
      15     H     0.43633  0.43633  0.00000  0.12735
      16     H     0.44873  0.44873  0.00000  0.10254

   Total alpha = 24.00000, Total beta = 24.00000, Total charge = -0.00000

*** Psi4 exiting successfully. Buy a developer a beer!
