  ==> Input File <==

--------------------------------------------------------------------------
set {
	reference rhf
	basis cc-pvtz
}

set_num_threads( 4 )
memory 2 gb

molecule MOL {
0 1

H	 1.211229	 -1.009955	 -0.654811
O	 1.025292	 -0.335832	 -1.283649
C	 0.530217	 0.792681	 -0.631740
C	 -0.793473	 0.591216	 0.050087
H	 0.428746	 1.563261	 -1.386864
H	 1.247663	 1.165610	 0.096885
C	 -1.534243	 -0.493009	 -0.013340
H	 -1.131909	 1.433294	 0.631134
H	 -1.101195	 -1.466332	 -0.144046
H	 -2.604242	 -0.437780	 0.050785

	symmetry c1
}
set optking {
	frozen_dihedral = ("
		3 4 7 9
	")
}

ee = optimize('scf')
oeprop('DIPOLE', 'QUADRUPOLE', 'MULLIKEN_CHARGES')
f=open( 'psi4out.xyz', 'w' )
f.write( "10  " )
f.write( str(ee) + "\n" )
f.write( MOL.save_string_xyz() )
f.close()
--------------------------------------------------------------------------

    Molecular point group: c1
  Charge       = 0
  Multiplicity = 1
  Basis Set: CC-PVTZ
  Basis Set:
  @DF-RHF Final Energy:  -191.97689824630459
    Total Energy =                       -191.9768982463045859
    Molecular point group: c1
  Basis Set: CC-PVTZ
  Basis Set:
  Basis Set: CC-PVTZ
  Basis Set:
  @DF-RHF Final Energy:  -191.98811238340687
    Total Energy =                       -191.9881123834067296
  Basis Set: CC-PVTZ
  Basis Set:
  Basis Set: CC-PVTZ
  Basis Set:
  @DF-RHF Final Energy:  -191.99078208186120
    Total Energy =                       -191.9907820818613402
  Basis Set: CC-PVTZ
  Basis Set:
  Basis Set: CC-PVTZ
  Basis Set:
  @DF-RHF Final Energy:  -191.99088697894163
    Total Energy =                       -191.9908869789415746
  Basis Set: CC-PVTZ
  Basis Set:
  Basis Set: CC-PVTZ
  Basis Set:
  @DF-RHF Final Energy:  -191.99091771618919
    Total Energy =                       -191.9909177161890170
  Basis Set: CC-PVTZ
  Basis Set:
  Charge       = 0
  Multiplicity = 1
  Basis Set: CC-PVTZ
  Basis Set:

    Orbital Energies (a.u.)
    -----------------------

    Doubly Occupied:

       1A    -20.554053     2A    -11.278920     3A    -11.230867
       4A    -11.217714     5A     -1.374006     6A     -1.062062
       7A     -0.932227     8A     -0.771488     9A     -0.692735
      10A     -0.661853    11A     -0.618301    12A     -0.574582
      13A     -0.543561    14A     -0.493240    15A     -0.451518
      16A     -0.366221

  @DF-RHF Final Energy:  -191.99091853436204

   => Energetics <=

    Nuclear Repulsion Energy =            119.1602686015205990
    One-Electron Energy =                -496.6556769517748648
    Two-Electron Energy =                 185.5044898158922138
    DFT Exchange-Correlation Energy =       0.0000000000000000
    Empirical Dispersion Energy =           0.0000000000000000
    PCM Polarization Energy =               0.0000000000000000
    EFP Energy =                            0.0000000000000000
    Total Energy =                       -191.9909185343620379
    Molecular point group: c1
  Basis Set: CC-PVTZ
  Basis Set:

  -Total Gradient:
     Atom            X                  Y                   Z
    ------   -----------------  -----------------  -----------------
       1        0.000004924381     0.000008298649    -0.000006823844
       2       -0.000024090637    -0.000008371127     0.000012000225
       3       -0.005981188341     0.006595643517    -0.009083091555
       4        0.010866485888    -0.013042916518     0.022404127768
       5       -0.000005416980     0.000001762802     0.000005612635
       6       -0.000003219748     0.000011443349     0.000011195079
       7       -0.006438207619     0.010883413756    -0.029714600462
       8       -0.000034434566     0.000023298768    -0.000021698111
       9        0.001634376638    -0.004446765013     0.016366826823
      10       -0.000019229018    -0.000025808183     0.000026451441

  **** Optimization is complete! (in 6 steps) ****
    Final optimized geometry and variables:
    Molecular point group: c1

    Geometry (in Angstrom), charge = 0, multiplicity = 1:

    H            1.452902925360    -1.081909873433    -0.075260325375
    O            1.195234491651    -0.458887297881    -0.730490500181
    C            0.654200732805     0.673413687466    -0.120724204032
    C           -0.656780549023     0.446117967178     0.579218705780
    H            0.479027905149     1.394926762616    -0.908935625884
    H            1.371765414272     1.124663869790     0.562055038631
    C           -1.478093991356    -0.566055482887     0.386168053969
    H           -1.038897326169     1.330607456448     1.064845042329
    H           -1.136606149284    -1.539770373613     0.087653709250
    H           -2.467302148912    -0.535789375759     0.805804156363

  Mulliken Charges: (a.u.)
   Center  Symbol    Alpha    Beta     Spin     Total
       1     H     0.39238  0.39238  0.00000  0.21524
       2     O     4.19774  4.19774  0.00000 -0.39548
       3     C     2.95419  2.95419  0.00000  0.09162
       4     C     3.09110  3.09110  0.00000 -0.18220
       5     H     0.45116  0.45116  0.00000  0.09768
       6     H     0.46609  0.46609  0.00000  0.06783
       7     C     3.16132  3.16132  0.00000 -0.32264
       8     H     0.42639  0.42639  0.00000  0.14722
       9     H     0.42946  0.42946  0.00000  0.14108
      10     H     0.43018  0.43018  0.00000  0.13964

   Total alpha = 16.00000, Total beta = 16.00000, Total charge = -0.00000
