  ==> Input File <==

--------------------------------------------------------------------------
set {
	reference rhf
	basis 6-31G*
}

set_num_threads( 4 )
memory 2 gb

molecule MOL {
0 1

H	 -1.358648	 3.836197	 0.781701
O	 -1.265547	 2.894394	 0.776291
C	 -0.084795	 2.539694	 0.101620
C	 0.031547	 1.023609	 0.088541
H	 0.783006	 2.961386	 0.605590
H	 -0.092122	 2.932606	 -0.912613
C	 -1.134819	 0.293262	 -0.585751
H	 0.112615	 0.685175	 1.117705
H	 0.965870	 0.760852	 -0.404632
C	 -1.917817	 -0.639439	 0.339494
H	 -0.758119	 -0.268455	 -1.433105
H	 -1.813832	 1.041889	 -0.986690
H	 -2.777680	 -1.057197	 -0.174994
H	 -1.310268	 -1.471279	 0.680599
H	 -2.283753	 -0.111424	 1.216626

	symmetry c1
}
set optking {
	frozen_dihedral = ("
		8 4 7 11
	")
}

ee = optimize('scf')
oeprop('DIPOLE', 'QUADRUPOLE', 'MULLIKEN_CHARGES')
f=open( 'psi4out.xyz', 'w' )
f.write( "15  " )
f.write( str(ee) + "\n" )
f.write( MOL.save_string_xyz() )
f.close()
--------------------------------------------------------------------------

    Molecular point group: c1
  Charge       = 0
  Multiplicity = 1
  Basis Set: 6-31G*
  Basis Set:
  @DF-RHF Final Energy:  -232.13963493455148
    Total Energy =                       -232.1396349345513954
    Molecular point group: c1
  Basis Set: 6-31G*
  Basis Set:
  Basis Set: 6-31G*
  Basis Set:
  @DF-RHF Final Energy:  -232.14021246809006
    Total Energy =                       -232.1402124680900556
  Basis Set: 6-31G*
  Basis Set:
  Basis Set: 6-31G*
  Basis Set:
  @DF-RHF Final Energy:  -232.14029170882503
    Total Energy =                       -232.1402917088249183
  Basis Set: 6-31G*
  Basis Set:
  Charge       = 0
  Multiplicity = 1
  Basis Set: 6-31G*
  Basis Set:

    Orbital Energies (a.u.)
    -----------------------

    Doubly Occupied:

       1A    -20.553843     2A    -11.268260     3A    -11.211698
       4A    -11.208765     5A    -11.199839     6A     -1.360459
       7A     -1.060532     8A     -0.971880     9A     -0.854844
      10A     -0.785584    11A     -0.705502    12A     -0.638327
      13A     -0.601886    14A     -0.592681    15A     -0.544721
      16A     -0.530886    17A     -0.506732    18A     -0.473492
      19A     -0.462148    20A     -0.453261    21A     -0.430958

  @DF-RHF Final Energy:  -232.14029245893445

   => Energetics <=

    Nuclear Repulsion Energy =            190.7158366093595134
    One-Electron Energy =                -692.8796662875873835
    Two-Electron Energy =                 270.0235372192932459
    DFT Exchange-Correlation Energy =       0.0000000000000000
    Empirical Dispersion Energy =           0.0000000000000000
    PCM Polarization Energy =               0.0000000000000000
    EFP Energy =                            0.0000000000000000
    Total Energy =                       -232.1402924589346526
    Molecular point group: c1
  Basis Set: 6-31G*
  Basis Set:

  -Total Gradient:
     Atom            X                  Y                   Z
    ------   -----------------  -----------------  -----------------
       1        0.000026838519    -0.000009525150    -0.000014779386
       2       -0.000014195932    -0.000118222802    -0.000036252877
       3        0.000057023868     0.000079387429     0.000099089620
       4        0.000284801296    -0.000255284666    -0.000156953002
       5        0.000001934944     0.000027045524     0.000011830877
       6        0.000028264333    -0.000037856759    -0.000041221772
       7       -0.000059674370    -0.000218496571     0.000342816488
       8       -0.000165581538     0.000315125991     0.000101084193
       9       -0.000004557144     0.000053929905     0.000038143161
      10       -0.000066388352    -0.000012143075    -0.000087316834
      11       -0.000091711034     0.000237433492    -0.000213958312
      12       -0.000048811655    -0.000054492029    -0.000036406019
      13       -0.000036931142    -0.000016452967     0.000011141236
      14        0.000023475646    -0.000004908561    -0.000004160487
      15        0.000065512560     0.000014460238    -0.000013056888

  **** Optimization is complete! (in 4 steps) ****
    Final optimized geometry and variables:
    Molecular point group: c1

    Geometry (in Angstrom), charge = 0, multiplicity = 1:

    H           -0.480621729763     2.538069814188     0.627096332123
    O           -0.348668499697     1.601358754299     0.658790255557
    C            0.803776110700     1.258394808125    -0.068876745388
    C            0.927992833438    -0.255301644653    -0.078186240555
    H            1.687847390396     1.700579744263     0.387130052737
    H            0.737030476119     1.633205147538    -1.089484316165
    C           -0.253484162362    -0.965616780066    -0.776067290619
    H            1.006637643556    -0.584930314991     0.953689318197
    H            1.868156766659    -0.512869117735    -0.558628989419
    C           -1.037584795047    -1.889884909340     0.154725514889
    H            0.111088064031    -1.537419972839    -1.625068417600
    H           -0.933633740289    -0.222667801577    -1.179830041435
    H           -1.862903641804    -2.365421212752    -0.367087174352
    H           -0.402323314009    -2.675654929557     0.554894348902
    H           -1.444995045099    -1.331305894172     0.991073315991

  Mulliken Charges: (a.u.)
   Center  Symbol    Alpha    Beta     Spin     Total
       1     H     0.28052  0.28052  0.00000  0.43896
       2     O     4.36946  4.36946  0.00000 -0.73893
       3     C     3.00031  3.00031  0.00000 -0.00063
       4     C     3.16250  3.16250  0.00000 -0.32500
       5     H     0.42966  0.42966  0.00000  0.14069
       6     H     0.43242  0.43242  0.00000  0.13516
       7     C     3.15282  3.15282  0.00000 -0.30563
       8     H     0.41241  0.41241  0.00000  0.17517
       9     H     0.42122  0.42122  0.00000  0.15757
      10     C     3.24108  3.24108  0.00000 -0.48217
      11     H     0.42390  0.42390  0.00000  0.15220
      12     H     0.41365  0.41365  0.00000  0.17271
      13     H     0.42292  0.42292  0.00000  0.15417
      14     H     0.42478  0.42478  0.00000  0.15045
      15     H     0.41235  0.41235  0.00000  0.17529

   Total alpha = 21.00000, Total beta = 21.00000, Total charge = -0.00000
