                              Psi4 1.0.54 Driver

  ==> Input File <==

--------------------------------------------------------------------------
set {
	reference rhf
	basis cc-pvtz
}

set_num_threads( 4 )
memory 2 gb

molecule MOL {
0 1

H	 -2.698924	 1.002588	 -2.097779
C	 -1.955065	 0.380913	 -1.643352
C	 -2.105997	 -0.000418	 -0.398703
H	 -1.103168	 0.084357	 -2.223114
O	 -1.189946	 -0.765863	 0.237511
H	 -2.959886	 0.283922	 0.188793
C	 0.026572	 -0.995256	 -0.379403
C	 1.057223	 0.049888	 -0.004615
H	 -0.054361	 -1.010670	 -1.459674
H	 0.397526	 -1.952058	 -0.044198
F	 2.203233	 -0.234060	 -0.590375
F	 0.698147	 1.254887	 -0.392621
F	 1.266440	 0.094219	 1.288722

	symmetry c1
}
set optking {
	frozen_dihedral = ("
		6 3 5 7
	")
}

ee,wfn = optimize('scf', return_wfn=True)
oeprop( wfn, 'DIPOLE', 'QUADRUPOLE', 'MULLIKEN_CHARGES')
f=open( 'psi4out.xyz', 'w' )
f.write( "13  " )
f.write( str(ee) + "\n" )
f.write( MOL.save_string_xyz() )
f.close()
--------------------------------------------------------------------------

    Molecular point group: c1
  Charge       = 0
  Multiplicity = 1
  Basis Set: CC-PVTZ
  Basis Set:
  @DF-RHF Final Energy:  -527.73294902209000
    Total Energy =                       -527.7329490220898833
    Molecular point group: c1
  Basis Set: CC-PVTZ
  Basis Set:
  Basis Set: CC-PVTZ
  Basis Set:
  @DF-RHF Final Energy:  -527.59289914883834
    Total Energy =                       -527.5928991488383417
  Basis Set: CC-PVTZ
  Basis Set:
  Basis Set: CC-PVTZ
  Basis Set:
  @DF-RHF Final Energy:  -527.69602418030581
    Total Energy =                       -527.6960241803062672
  Basis Set: CC-PVTZ
  Basis Set:
  Basis Set: CC-PVTZ
  Basis Set:
  @DF-RHF Final Energy:  -527.73425256955215
    Total Energy =                       -527.7342525695521545
  Basis Set: CC-PVTZ
  Basis Set:
  @DF-RHF Final Energy:  -527.72244919536138
    Total Energy =                       -527.7224491953613779
  @DF-RHF Final Energy:  -527.73802198597991
    Total Energy =                       -527.7380219859796853
  @DF-RHF Final Energy:  -527.73979362769705
    Total Energy =                       -527.7397936276975088
  @DF-RHF Final Energy:  -527.74035983037663
    Total Energy =                       -527.7403598303767467
  @DF-RHF Final Energy:  -527.74044833739038
    Total Energy =                       -527.7404483373902622
  @DF-RHF Final Energy:  -527.74047369583764
    Total Energy =                       -527.7404736958371814
  @DF-RHF Final Energy:  -527.74048272496736
    Total Energy =                       -527.7404827249677055
  Basis Set: CC-PVTZ
  Basis Set:
  @DF-RHF Final Energy:  -527.74050969687710
    Total Energy =                       -527.7405096968773250
  Basis Set: CC-PVTZ
  Basis Set:
  Basis Set: CC-PVTZ
  Basis Set:
  @DF-RHF Final Energy:  -527.74052051593856
    Total Energy =                       -527.7405205159385559
  Basis Set: CC-PVTZ
  Basis Set:
  Basis Set: CC-PVTZ
  Basis Set:
  @DF-RHF Final Energy:  -527.74052560210794
    Total Energy =                       -527.7405256021082778
  Basis Set: CC-PVTZ
  Basis Set:
  Charge       = 0
  Multiplicity = 1
  Basis Set: CC-PVTZ
  Basis Set:

    Orbital Energies (a.u.)
    -----------------------

    Doubly Occupied:

       1A    -26.339538     2A    -26.337121     3A    -26.335787
       4A    -20.606473     5A    -11.496428     6A    -11.317314
       7A    -11.303252     8A    -11.218180     9A     -1.748150
      10A     -1.644493    11A     -1.642686    12A     -1.444638
      13A     -1.083987    14A     -1.027499    15A     -0.939082
      16A     -0.845246    17A     -0.837622    18A     -0.832794
      19A     -0.770857    20A     -0.734300    21A     -0.716533
      22A     -0.707509    23A     -0.682576    24A     -0.665760
      25A     -0.663340    26A     -0.648278    27A     -0.641160
      28A     -0.598641    29A     -0.552670    30A     -0.529868
      31A     -0.519819    32A     -0.362264

  @DF-RHF Final Energy:  -527.74052599786000

   => Energetics <=

    Nuclear Repulsion Energy =            417.8505707159711733
    One-Electron Energy =               -1559.5944587344592946
    Two-Electron Energy =                 614.0033620206281739
    DFT Exchange-Correlation Energy =       0.0000000000000000
    Empirical Dispersion Energy =           0.0000000000000000
    PCM Polarization Energy =               0.0000000000000000
    EFP Energy =                            0.0000000000000000
    Total Energy =                       -527.7405259978600043
    Molecular point group: c1
  Basis Set: CC-PVTZ
  Basis Set:

  -Total Gradient:
     Atom            X                  Y                   Z
    ------   -----------------  -----------------  -----------------
       1       -0.000001527291     0.000005923825     0.000001777894
       2       -0.000055005747     0.000041233161    -0.000031679377
       3       -0.001625588930    -0.000408244092    -0.000117164225
       4       -0.000003597873     0.000005778542    -0.000002716711
       5       -0.001815968212    -0.000745477858    -0.000680527894
       6        0.001913523757     0.000578100894     0.000295656806
       7        0.001529485550     0.000562420689     0.000487934592
       8        0.000048224764    -0.000038962968    -0.000040940014
       9        0.000011114217    -0.000001273932     0.000009510763
      10       -0.000007629939     0.000002753132     0.000005411944
      11       -0.000019253976     0.000015848452    -0.000004703124
      12        0.000035339400    -0.000007296666     0.000022380969
      13       -0.000009115723    -0.000010803174     0.000055058378

  **** Optimization is complete! (in 15 steps) ****
    Final optimized geometry and variables:
    Molecular point group: c1

    Geometry (in Angstrom), charge = 0, multiplicity = 1:

    H           -1.812497716135     2.902847964491    -1.631466795393
    C           -1.544491365697     1.907142070760    -1.342727608697
    C           -1.650948632489     1.582329797140    -0.073920143759
    H           -1.193275908094     1.251360419443    -2.112611041314
    O           -1.394572502324     0.406565663746     0.536134543126
    H           -1.978478681982     2.296745719183     0.654901992628
    C           -0.763287129664    -0.634814261144    -0.126662185219
    C            0.727747050969    -0.638170214381     0.139353883732
    H           -0.921753123289    -0.620806847755    -1.193766945194
    H           -1.157712207690    -1.559535415233     0.267545631873
    F            1.275717862060    -1.666015941725    -0.478850441662
    F            1.320590727986     0.450820309007    -0.292462861039
    F            0.993299424807    -0.753646741089     1.419729068441

  Mulliken Charges: (a.u.)
   Center  Symbol    Alpha    Beta     Spin     Total
       1     H     0.42380  0.42380  0.00000  0.15241
       2     C     3.20100  3.20100  0.00000 -0.40200
       3     C     2.97573  2.97573  0.00000  0.04854
       4     H     0.43056  0.43056  0.00000  0.13889
       5     O     4.15211  4.15211  0.00000 -0.30423
       6     H     0.41070  0.41070  0.00000  0.17860
       7     C     3.01495  3.01495  0.00000 -0.02990
       8     C     2.67755  2.67755  0.00000  0.64489
       9     H     0.45244  0.45244  0.00000  0.09511
      10     H     0.43276  0.43276  0.00000  0.13447
      11     F     4.61324  4.61324  0.00000 -0.22647
      12     F     4.60674  4.60674  0.00000 -0.21348
      13     F     4.60842  4.60842  0.00000 -0.21685

   Total alpha = 32.00000, Total beta = 32.00000, Total charge =  0.00000

*** Psi4 exiting successfully. Buy a developer a beer!
