  ==> Input File <==

--------------------------------------------------------------------------
set {
	reference rhf
	basis 6-31G*
}

set_num_threads( 4 )
memory 2 gb

molecule MOL {
0 1

H	 -0.821032	 -1.655889	 0.000000
O	 -1.037828	 -0.728600	 0.000000
C	 0.100509	 -0.036935	 0.000000
C	 0.940217	 -0.342326	 -1.207282
O	 0.383340	 0.721524	 0.868314
H	 1.171427	 -1.400928	 -1.232127
H	 1.850862	 0.236036	 -1.170211
H	 0.384415	 -0.105669	 -2.107167

	symmetry c1
}
set optking {
	frozen_dihedral = ("
		4 3 2 1
	")
}

ee = optimize('scf')
oeprop('DIPOLE', 'QUADRUPOLE', 'MULLIKEN_CHARGES')
f=open( 'psi4out.xyz', 'w' )
f.write( "8  " )
f.write( str(ee) + "\n" )
f.write( MOL.save_string_xyz() )
f.close()
--------------------------------------------------------------------------

    Molecular point group: c1
  Charge       = 0
  Multiplicity = 1
  Basis Set: 6-31G*
  Basis Set:
  @DF-RHF Final Energy:  -227.78856682807412
    Total Energy =                       -227.7885668280741243
    Molecular point group: c1
  Basis Set: 6-31G*
  Basis Set:
  Basis Set: 6-31G*
  Basis Set:
  @DF-RHF Final Energy:  -227.78881313969725
    Total Energy =                       -227.7888131396972256
  Basis Set: 6-31G*
  Basis Set:
  Basis Set: 6-31G*
  Basis Set:
  @DF-RHF Final Energy:  -227.79014298635775
    Total Energy =                       -227.7901429863578642
  Basis Set: 6-31G*
  Basis Set:
  Basis Set: 6-31G*
  Basis Set:
  @DF-RHF Final Energy:  -227.79073310516634
    Total Energy =                       -227.7907331051664244
  Basis Set: 6-31G*
  Basis Set:
  @DF-RHF Final Energy:  -227.79079858705541
    Total Energy =                       -227.7907985870554626
  Basis Set: 6-31G*
  Basis Set:
  @DF-RHF Final Energy:  -227.79081875012164
    Total Energy =                       -227.7908187501216730
  Basis Set: 6-31G*
  Basis Set:
  Basis Set: 6-31G*
  Basis Set:
  @DF-RHF Final Energy:  -227.79065668567259
    Total Energy =                       -227.7906566856726727
  Basis Set: 6-31G*
  Basis Set:
  Basis Set: 6-31G*
  Basis Set:
  @DF-RHF Final Energy:  -227.79083102602408
    Total Energy =                       -227.7908310260241080
  Basis Set: 6-31G*
  Basis Set:
  Charge       = 0
  Multiplicity = 1
  Basis Set: 6-31G*
  Basis Set:

    Orbital Energies (a.u.)
    -----------------------

    Doubly Occupied:

       1A    -20.603303     2A    -20.559444     3A    -11.385770
       4A    -11.247156     5A     -1.464493     6A     -1.371871
       7A     -1.024114     8A     -0.831940     9A     -0.714335
      10A     -0.666634    11A     -0.660809    12A     -0.597179
      13A     -0.576437    14A     -0.524627    15A     -0.489850
      16A     -0.448958

  @DF-RHF Final Energy:  -227.79083266063722

   => Energetics <=

    Nuclear Repulsion Energy =            121.8491041854962020
    One-Electron Energy =                -552.9460320584873898
    Two-Electron Energy =                 203.3060952123539380
    DFT Exchange-Correlation Energy =       0.0000000000000000
    Empirical Dispersion Energy =           0.0000000000000000
    PCM Polarization Energy =               0.0000000000000000
    EFP Energy =                            0.0000000000000000
    Total Energy =                       -227.7908326606372214
    Molecular point group: c1
  Basis Set: 6-31G*
  Basis Set:

  -Total Gradient:
     Atom            X                  Y                   Z
    ------   -----------------  -----------------  -----------------
       1        0.000199148655     0.000101344781     0.006055045221
       2       -0.001212549622     0.001117565916    -0.008594417219
       3        0.002942614879    -0.003999358299     0.004519049265
       4       -0.001828855158     0.002778043337    -0.001897408415
       5       -0.000052949168    -0.000022522136    -0.000040813045
       6       -0.000008071546     0.000010736747    -0.000011928706
       7       -0.000016006808     0.000010383339    -0.000016129154
       8       -0.000023331231     0.000003806316    -0.000013397948

  **** Optimization is complete! (in 9 steps) ****
    Final optimized geometry and variables:
    Molecular point group: c1

    Geometry (in Angstrom), charge = 0, multiplicity = 1:

    H           -0.955728041180    -1.578851207853     0.154906968199
    O           -1.112858102297    -0.642984161299     0.141980527258
    C            0.039981485549     0.065470837984     0.093854197918
    C            0.893746258952    -0.216522763150    -1.117070929532
    O            0.266544230616     0.909406445950     0.884961235524
    H            1.098335904440    -1.277484808844    -1.221748284966
    H            1.823363397077     0.328114822816    -1.048314941213
    H            0.347907747104     0.098455593862    -1.999888421032

  Mulliken Charges: (a.u.)
   Center  Symbol    Alpha    Beta     Spin     Total
       1     H     0.26888  0.26888  0.00000  0.46224
       2     O     4.35608  4.35608  0.00000 -0.71216
       3     C     2.63904  2.63904  0.00000  0.72191
       4     C     3.29117  3.29117  0.00000 -0.58234
       5     O     4.24495  4.24495  0.00000 -0.48989
       6     H     0.41297  0.41297  0.00000  0.17406
       7     H     0.39278  0.39278  0.00000  0.21443
       8     H     0.39413  0.39413  0.00000  0.21174

   Total alpha = 16.00000, Total beta = 16.00000, Total charge = -0.00000
