  ==> Input File <==

--------------------------------------------------------------------------
set {
	reference rhf
	basis 6-31G*
}

set_num_threads( 1 )
memory 2 gb

molecule MOL {
0 1

H	 -4.372233	 0.491658	 -1.051670
O	 -3.452007	 0.283848	 -0.965577
C	 -3.181085	 -0.079926	 0.364119
C	 -1.765924	 0.277073	 0.805136
H	 -3.327791	 -1.152017	 0.410903
H	 -3.905698	 0.375695	 1.036898
C	 -0.677594	 -0.417312	 -0.014550
H	 -1.637766	 1.358238	 0.744969
H	 -1.659588	 0.017670	 1.857098
C	 0.738335	 -0.034840	 0.421385
H	 -0.814977	 -0.178223	 -1.064632
H	 -0.802730	 -1.495410	 0.071702
C	 1.822265	 -0.738362	 -0.399735
H	 0.853533	 1.043532	 0.342250
H	 0.871597	 -0.279636	 1.474438
C	 3.258060	 -0.455774	 0.057203
H	 1.718003	 -0.459167	 -1.447053
H	 1.651028	 -1.811884	 -0.354513
C	 3.709143	 0.994797	 -0.123830
H	 3.930637	 -1.101717	 -0.501982
H	 3.365259	 -0.739518	 1.102287
H	 3.601178	 1.310569	 -1.158127
H	 4.753787	 1.110486	 0.148516
H	 3.135362	 1.678896	 0.492569

	symmetry c1
}
set optking {
	frozen_dihedral = ("
		20 16 13 17,
		17 13 10 7,
		13 10 7 11,
		11 7 4 3,
		7 4 3 2
	")
}

ee = energy('scf')
oeprop('DIPOLE', 'QUADRUPOLE', 'MULLIKEN_CHARGES')
f=open( 'psi4out.xyz', 'w' )
f.write( "24  " )
f.write( str(ee) + "\n" )
f.write( MOL.save_string_xyz() )
f.close()
--------------------------------------------------------------------------

    Molecular point group: c1

    Geometry (in Angstrom), charge = 0, multiplicity = 1:

       Center              X                  Y                   Z               Mass
    ------------   -----------------  -----------------  -----------------  -----------------
           H         -4.363974593468     0.498043695518    -1.051605656958     1.007825032070
           O         -3.443748593468     0.290233695518    -0.965512656958    15.994914619560
           C         -3.172826593468    -0.073540304482     0.364183343042    12.000000000000
           C         -1.757665593468     0.283458695518     0.805200343042    12.000000000000
           H         -3.319532593468    -1.145631304482     0.410967343042     1.007825032070
           H         -3.897439593468     0.382080695518     1.036962343042     1.007825032070
           C         -0.669335593468    -0.410926304482    -0.014485656958    12.000000000000
           H         -1.629507593468     1.364623695518     0.745033343042     1.007825032070
           H         -1.651329593468     0.024055695518     1.857162343042     1.007825032070
           C          0.746593406532    -0.028454304482     0.421449343042    12.000000000000
           H         -0.806718593468    -0.171837304482    -1.064567656958     1.007825032070
           H         -0.794471593468    -1.489024304482     0.071766343042     1.007825032070
           C          1.830523406532    -0.731976304482    -0.399670656958    12.000000000000
           H          0.861791406532     1.049917695518     0.342314343042     1.007825032070
           H          0.879855406532    -0.273250304482     1.474502343042     1.007825032070
           C          3.266318406532    -0.449388304482     0.057267343042    12.000000000000
           H          1.726261406532    -0.452781304482    -1.446988656958     1.007825032070
           H          1.659286406532    -1.805498304482    -0.354448656958     1.007825032070
           C          3.717401406532     1.001182695518    -0.123765656958    12.000000000000
           H          3.938895406532    -1.095331304482    -0.501917656958     1.007825032070
           H          3.373517406532    -0.733132304482     1.102351343042     1.007825032070
           H          3.609436406532     1.316954695518    -1.158062656958     1.007825032070
           H          4.762045406532     1.116871695518     0.148580343042     1.007825032070
           H          3.143620406532     1.685281695518     0.492633343042     1.007825032070

  Charge       = 0
  Multiplicity = 1
  Basis Set: 6-31G*
  Basis Set:

    Orbital Energies (a.u.)
    -----------------------

    Doubly Occupied:

       1A    -20.550478     2A    -11.267253     3A    -11.214326
       4A    -11.211624     5A    -11.209048     6A    -11.208467
       7A    -11.207035     8A    -11.204834     9A     -1.358176
      10A     -1.085324    11A     -1.045790    12A     -0.983406
      13A     -0.911738    14A     -0.844167    15A     -0.791092
      16A     -0.773277    17A     -0.699168    18A     -0.648007
      19A     -0.627839    20A     -0.611043    21A     -0.585178
      22A     -0.577061    23A     -0.557419    24A     -0.530325
      25A     -0.525789    26A     -0.503268    27A     -0.487531
      28A     -0.484224    29A     -0.466539    30A     -0.454397
      31A     -0.450104    32A     -0.430228    33A     -0.426968

  @DF-RHF Final Energy:  -349.24509131239830

   => Energetics <=

    Nuclear Repulsion Energy =            383.7162687861311383
    One-Electron Energy =               -1234.0605351815663653
    Two-Electron Energy =                 501.0991750830373803
    DFT Exchange-Correlation Energy =       0.0000000000000000
    Empirical Dispersion Energy =           0.0000000000000000
    PCM Polarization Energy =               0.0000000000000000
    EFP Energy =                            0.0000000000000000
    Total Energy =                       -349.2450913123977898

  Mulliken Charges: (a.u.)
   Center  Symbol    Alpha    Beta     Spin     Total
       1     H     0.27967  0.27967  0.00000  0.44066
       2     O     4.37233  4.37233  0.00000 -0.74467
       3     C     2.99606  2.99606  0.00000  0.00788
       4     C     3.15991  3.15991  0.00000 -0.31982
       5     H     0.42906  0.42906  0.00000  0.14187
       6     H     0.43101  0.43101  0.00000  0.13798
       7     C     3.15484  3.15484  0.00000 -0.30968
       8     H     0.41884  0.41884  0.00000  0.16233
       9     H     0.42352  0.42352  0.00000  0.15296
      10     C     3.15408  3.15408  0.00000 -0.30816
      11     H     0.40791  0.40791  0.00000  0.18418
      12     H     0.42543  0.42543  0.00000  0.14915
      13     C     3.15221  3.15221  0.00000 -0.30442
      14     H     0.42140  0.42140  0.00000  0.15720
      15     H     0.42643  0.42643  0.00000  0.14714
      16     C     3.15217  3.15217  0.00000 -0.30434
      17     H     0.42322  0.42322  0.00000  0.15356
      18     H     0.42282  0.42282  0.00000  0.15436
      19     C     3.24095  3.24095  0.00000 -0.48190
      20     H     0.42158  0.42158  0.00000  0.15684
      21     H     0.42417  0.42417  0.00000  0.15166
      22     H     0.42205  0.42205  0.00000  0.15589
      23     H     0.42010  0.42010  0.00000  0.15980
      24     H     0.42022  0.42022  0.00000  0.15956

   Total alpha = 33.00000, Total beta = 33.00000, Total charge = -0.00000
