                              Psi4 1.0.54 Driver

  ==> Input File <==

--------------------------------------------------------------------------
set {
	reference rhf
	basis cc-pvtz
}

set_num_threads( 4 )
memory 2 gb

molecule MOL {
0 1

H	 -2.149496	 -2.244167	 0.000000
O	 -2.454378	 -1.354528	 0.000000
C	 -1.430628	 -0.482077	 0.000000
C	 -0.544678	 -0.535873	 -1.066240
C	 -1.242153	 0.441743	 1.006109
H	 -0.708517	 -1.261178	 -1.838328
C	 0.521257	 0.332961	 -1.118401
H	 -1.919826	 0.494309	 1.836738
C	 -0.161759	 1.311107	 0.938404
H	 1.201542	 0.284778	 -1.946186
C	 0.726173	 1.266798	 -0.117557
C	 0.027840	 2.274491	 1.995405
H	 1.554855	 1.944156	 -0.155595
N	 0.173120	 3.026565	 2.823633

	symmetry c1
}
set optking {
	frozen_dihedral = ("
		5 3 2 1
	")
}

ee,wfn = optimize('scf', return_wfn=True)
oeprop( wfn, 'DIPOLE', 'QUADRUPOLE', 'MULLIKEN_CHARGES')
f=open( 'psi4out.xyz', 'w' )
f.write( "14  " )
f.write( str(ee) + "\n" )
f.write( MOL.save_string_xyz() )
f.close()
--------------------------------------------------------------------------

    Molecular point group: c1
  Charge       = 0
  Multiplicity = 1
  Basis Set: CC-PVTZ
  Basis Set:
  @DF-RHF Final Energy:  -397.42799348637379
    Total Energy =                       -397.4279934863734525
    Molecular point group: c1
  Basis Set: CC-PVTZ
  Basis Set:
  Basis Set: CC-PVTZ
  Basis Set:
  @DF-RHF Final Energy:  -397.42936458259993
    Total Energy =                       -397.4293645826003285
  Basis Set: CC-PVTZ
  Basis Set:
  Basis Set: CC-PVTZ
  Basis Set:
  @DF-RHF Final Energy:  -397.42946685709751
    Total Energy =                       -397.4294668570978502
  Basis Set: CC-PVTZ
  Basis Set:
  Basis Set: CC-PVTZ
  Basis Set:
  @DF-RHF Final Energy:  -397.42948152833998
    Total Energy =                       -397.4294815283396929
  Basis Set: CC-PVTZ
  Basis Set:
  Charge       = 0
  Multiplicity = 1
  Basis Set: CC-PVTZ
  Basis Set:

    Orbital Energies (a.u.)
    -----------------------

    Doubly Occupied:

       1A    -20.595875     2A    -15.564176     3A    -11.318213
       4A    -11.291165     5A    -11.267678     6A    -11.261467
       7A    -11.260111     8A    -11.259531     9A    -11.257323
      10A     -1.425405    11A     -1.237253    12A     -1.187366
      13A     -1.066508    14A     -1.043251    15A     -0.898021
      16A     -0.862802    17A     -0.791365    18A     -0.714725
      19A     -0.693043    20A     -0.688942    21A     -0.637635
      22A     -0.624198    23A     -0.572136    24A     -0.565119
      25A     -0.551155    26A     -0.548922    27A     -0.509851
      28A     -0.483348    29A     -0.477882    30A     -0.366965
      31A     -0.352999

  @DF-RHF Final Energy:  -397.42948491084940

   => Energetics <=

    Nuclear Repulsion Energy =            380.0486929388282533
    One-Electron Energy =               -1292.2074864474561764
    Two-Electron Energy =                 514.7293085977782994
    DFT Exchange-Correlation Energy =       0.0000000000000000
    Empirical Dispersion Energy =           0.0000000000000000
    PCM Polarization Energy =               0.0000000000000000
    EFP Energy =                            0.0000000000000000
    Total Energy =                       -397.4294849108496237
    Molecular point group: c1
  Basis Set: CC-PVTZ
  Basis Set:

  -Total Gradient:
     Atom            X                  Y                   Z
    ------   -----------------  -----------------  -----------------
       1        0.000024761808     0.000074348104     0.001940690486
       2        0.000227522173    -0.000671934151    -0.002100539949
       3       -0.000965911887     0.001668209382    -0.000426383748
       4       -0.000041710124    -0.000079677817    -0.000061058905
       5        0.000641270220    -0.000992798608     0.000700877566
       6        0.000028844583     0.000049262204     0.000017662413
       7       -0.000020733811    -0.000091059217    -0.000010498951
       8       -0.000039584276    -0.000053071413    -0.000035288676
       9        0.000208852601     0.000031754577    -0.000005242296
      10        0.000033694630     0.000047446977     0.000007105215
      11       -0.000128984816     0.000062440802     0.000108240667
      12        0.000059769610     0.000012232020    -0.000061046607
      13        0.000024877012    -0.000019457703    -0.000073024467
      14       -0.000052667728    -0.000037695160    -0.000001492747

  **** Optimization is complete! (in 5 steps) ****
    Final optimized geometry and variables:
    Molecular point group: c1

    Geometry (in Angstrom), charge = 0, multiplicity = 1:

    H           -1.670411616629    -2.861191855711    -0.412744225329
    O           -1.943602929859    -1.960880474034    -0.436242252319
    C           -0.871714366947    -1.126993095878    -0.494289877389
    C            0.012377217863    -1.168711416949    -1.557382523749
    C           -0.694272436450    -0.208443368271     0.518562579504
    H           -0.145098825801    -1.879433770124    -2.345879871372
    C            1.078636504746    -0.292267860143    -1.604287227673
    H           -1.384731909705    -0.182789146995     1.337083164826
    C            0.372114852327     0.673927820611     0.455346865111
    H            1.761444620514    -0.329102579119    -2.430465843311
    C            1.265923288320     0.636916604367    -0.601565081991
    C            0.555531432933     1.638149105940     1.512319313558
    H            2.087522566056     1.323653328896    -0.635577259341
    N            0.700617869584     2.391816952750     2.339194131457

  Mulliken Charges: (a.u.)
   Center  Symbol    Alpha    Beta     Spin     Total
       1     H     0.38415  0.38415  0.00000  0.23170
       2     O     4.18303  4.18303  0.00000 -0.36607
       3     C     2.85869  2.85869  0.00000  0.28263
       4     C     3.11625  3.11625  0.00000 -0.23250
       5     C     3.12125  3.12125  0.00000 -0.24250
       6     H     0.41628  0.41628  0.00000  0.16743
       7     C     3.05993  3.05993  0.00000 -0.11986
       8     H     0.40673  0.40673  0.00000  0.18653
       9     C     2.92815  2.92815  0.00000  0.14371
      10     H     0.41635  0.41635  0.00000  0.16729
      11     C     3.09687  3.09687  0.00000 -0.19374
      12     C     3.02387  3.02387  0.00000 -0.04775
      13     H     0.41380  0.41380  0.00000  0.17240
      14     N     3.57464  3.57464  0.00000 -0.14928

   Total alpha = 31.00000, Total beta = 31.00000, Total charge = -0.00000

*** Psi4 exiting successfully. Buy a developer a beer!
