                              Psi4 1.0.54 Driver

  ==> Input File <==

--------------------------------------------------------------------------
set {
	reference rhf
	basis cc-pvtz
}

set_num_threads( 4 )
memory 2 gb

molecule MOL {
0 1

H	 1.482612	 1.219582	 -0.439866
C	 0.848385	 0.440008	 0.000011
C	 -0.623497	 0.751021	 0.000090
O	 1.333591	 -0.549653	 0.427084
C	 -1.523725	 -0.474323	 -0.000013
H	 -0.813143	 1.382932	 -0.864897
H	 -0.813071	 1.382716	 0.865253
H	 -1.342980	 -1.087348	 -0.873016
H	 -2.565269	 -0.177464	 0.000070
H	 -1.342898	 -1.087564	 0.872820

	symmetry c1
}
set optking {
	frozen_dihedral = ("
		4 2 3 6
	")
}

ee,wfn = optimize('scf', return_wfn=True)
oeprop( wfn, 'DIPOLE', 'QUADRUPOLE', 'MULLIKEN_CHARGES')
f=open( 'psi4out.xyz', 'w' )
f.write( "10  " )
f.write( str(ee) + "\n" )
f.write( MOL.save_string_xyz() )
f.close()
--------------------------------------------------------------------------

    Molecular point group: c1
  Charge       = 0
  Multiplicity = 1
  Basis Set: CC-PVTZ
  Basis Set:
  @DF-RHF Final Energy:  -192.02336682876216
    Total Energy =                       -192.0233668287620503
    Molecular point group: c1
  Basis Set: CC-PVTZ
  Basis Set:
  Basis Set: CC-PVTZ
  Basis Set:
  @DF-RHF Final Energy:  -192.02178046447858
    Total Energy =                       -192.0217804644785247
  Basis Set: CC-PVTZ
  Basis Set:
  Basis Set: CC-PVTZ
  Basis Set:
  @DF-RHF Final Energy:  -192.02354492465690
    Total Energy =                       -192.0235449246569317
  Basis Set: CC-PVTZ
  Basis Set:
  Basis Set: CC-PVTZ
  Basis Set:
  @DF-RHF Final Energy:  -192.02367094502208
    Total Energy =                       -192.0236709450221326
  Basis Set: CC-PVTZ
  Basis Set:
  Charge       = 0
  Multiplicity = 1
  Basis Set: CC-PVTZ
  Basis Set:

    Orbital Energies (a.u.)
    -----------------------

    Doubly Occupied:

       1A    -20.553361     2A    -11.323640     3A    -11.239457
       4A    -11.219484     5A     -1.409058     6A     -1.061461
       7A     -0.911090     8A     -0.775822     9A     -0.686192
      10A     -0.638759    11A     -0.627790    12A     -0.549884
      13A     -0.536400    14A     -0.518983    15A     -0.493997
      16A     -0.416014

  @DF-RHF Final Energy:  -192.02367866771937

   => Energetics <=

    Nuclear Repulsion Energy =            119.2081164355881384
    One-Electron Energy =                -496.5408068474263246
    Two-Electron Energy =                 185.3090117441187203
    DFT Exchange-Correlation Energy =       0.0000000000000000
    Empirical Dispersion Energy =           0.0000000000000000
    PCM Polarization Energy =               0.0000000000000000
    EFP Energy =                            0.0000000000000000
    Total Energy =                       -192.0236786677194800
    Molecular point group: c1
  Basis Set: CC-PVTZ
  Basis Set:

  -Total Gradient:
     Atom            X                  Y                   Z
    ------   -----------------  -----------------  -----------------
       1        0.000088432438     0.000179872859    -0.000080017383
       2       -0.000032509875    -0.001208352871    -0.002960688149
       3       -0.000256464708    -0.001963666190    -0.000612445001
       4        0.000057154275     0.001041069840     0.002294724192
       5       -0.000058133024     0.000042975814    -0.000071859055
       6        0.000280747221     0.001887458941     0.001386380070
       7       -0.000029253459     0.000069796166     0.000048096336
       8        0.000006156592    -0.000042646956    -0.000029922660
       9       -0.000072913075    -0.000024180437     0.000011020629
      10        0.000016783616     0.000017672835     0.000014711020

  **** Optimization is complete! (in 5 steps) ****
    Final optimized geometry and variables:
    Molecular point group: c1

    Geometry (in Angstrom), charge = 0, multiplicity = 1:

    H            1.451240246649     1.290739804478    -0.435798893406
    C            0.830057260906     0.456648288577    -0.086566665077
    C           -0.656210460707     0.700092906776    -0.133259232717
    O            1.337888572705    -0.524201416329     0.334798521962
    C           -1.500401842515    -0.565851828888    -0.135613008583
    H           -0.874421619732     1.343674855676    -0.979555721023
    H           -0.876877740248     1.304479117172     0.746139499685
    H           -1.302613437409    -1.162441183615    -1.017749775397
    H           -2.554463635858    -0.317588705166    -0.124254184637
    H           -1.281062715711    -1.175025465325     0.729873739683

  Mulliken Charges: (a.u.)
   Center  Symbol    Alpha    Beta     Spin     Total
       1     H     0.45392  0.45392  0.00000  0.09215
       2     C     2.91597  2.91597  0.00000  0.16806
       3     C     3.08324  3.08324  0.00000 -0.16648
       4     O     4.16558  4.16558  0.00000 -0.33116
       5     C     3.14126  3.14126  0.00000 -0.28251
       6     H     0.44855  0.44855  0.00000  0.10291
       7     H     0.44795  0.44795  0.00000  0.10410
       8     H     0.45107  0.45107  0.00000  0.09786
       9     H     0.44921  0.44921  0.00000  0.10159
      10     H     0.44326  0.44326  0.00000  0.11348

   Total alpha = 16.00000, Total beta = 16.00000, Total charge =  0.00000

*** Psi4 exiting successfully. Buy a developer a beer!
