  ==> Input File <==

--------------------------------------------------------------------------
set {
	reference rhf
	basis cc-pvtz
}

set_num_threads( 4 )
memory 2 gb

molecule MOL {
0 1

H	 -2.816458	 -0.841657	 -0.064679
N	 -1.878861	 -0.711874	 0.250184
C	 -1.341419	 0.551458	 -0.220231
H	 -1.333674	 -1.468530	 -0.105118
C	 -1.947053	 0.920966	 -1.554892
H	 -1.505390	 1.376645	 0.471669
H	 -0.270216	 0.445499	 -0.351940
O	 -3.313411	 1.146666	 -1.382169
H	 -1.466043	 1.817517	 -1.943477
H	 -1.786835	 0.113022	 -2.265163
C	 -4.003302	 1.429346	 -2.554074
H	 -5.041243	 1.587369	 -2.298941
H	 -3.620998	 2.327941	 -3.033726
H	 -3.937730	 0.606988	 -3.262587

	symmetry c1
}
set optking {
	frozen_dihedral = ("
		6 3 2 4
	")
}

ee = optimize('scf')
oeprop('DIPOLE', 'QUADRUPOLE', 'MULLIKEN_CHARGES')
f=open( 'psi4out.xyz', 'w' )
f.write( "14  " )
f.write( str(ee) + "\n" )
f.write( MOL.save_string_xyz() )
f.close()
--------------------------------------------------------------------------

    Molecular point group: c1
  Charge       = 0
  Multiplicity = 1
  Basis Set: CC-PVTZ
  Basis Set:
  @DF-RHF Final Energy:  -248.22227107301484
    Total Energy =                       -248.2222710730148378
    Molecular point group: c1
  Basis Set: CC-PVTZ
  Basis Set:
  Basis Set: CC-PVTZ
  Basis Set:
  @DF-RHF Final Energy:  -248.22412870693421
    Total Energy =                       -248.2241287069343230
  Basis Set: CC-PVTZ
  Basis Set:
  Basis Set: CC-PVTZ
  Basis Set:
  @DF-RHF Final Energy:  -248.22435719884777
    Total Energy =                       -248.2243571988475992
  Basis Set: CC-PVTZ
  Basis Set:
  Basis Set: CC-PVTZ
  Basis Set:
  @DF-RHF Final Energy:  -248.22436401913939
    Total Energy =                       -248.2243640191393297
  Basis Set: CC-PVTZ
  Basis Set:
  Charge       = 0
  Multiplicity = 1
  Basis Set: CC-PVTZ
  Basis Set:

    Orbital Energies (a.u.)
    -----------------------

    Doubly Occupied:

       1A    -20.553847     2A    -15.521394     3A    -11.266752
       4A    -11.266557     5A    -11.240071     6A     -1.387910
       7A     -1.174324     8A     -1.000990     9A     -0.909980
      10A     -0.822623    11A     -0.686668    12A     -0.676042
      13A     -0.649149    14A     -0.630855    15A     -0.588482
      16A     -0.556588    17A     -0.518905    18A     -0.503547
      19A     -0.483096    20A     -0.423148    21A     -0.378087

  @DF-RHF Final Energy:  -248.22436460838338

   => Energetics <=

    Nuclear Repulsion Energy =            194.3754133332876677
    One-Electron Energy =                -722.7215308789607207
    Two-Electron Energy =                 280.1217529372897275
    DFT Exchange-Correlation Energy =       0.0000000000000000
    Empirical Dispersion Energy =           0.0000000000000000
    PCM Polarization Energy =               0.0000000000000000
    EFP Energy =                            0.0000000000000000
    Total Energy =                       -248.2243646083832687
    Molecular point group: c1
  Basis Set: CC-PVTZ
  Basis Set:

  -Total Gradient:
     Atom            X                  Y                   Z
    ------   -----------------  -----------------  -----------------
       1        0.000004330421    -0.000018471951    -0.000001099944
       2       -0.002160319480    -0.000498036824    -0.002944294733
       3       -0.002902676556     0.000812560337    -0.000896143268
       4        0.002216676323     0.000290739271     0.002586155764
       5        0.000007998044    -0.000039068973     0.000065254930
       6        0.002772779726    -0.000593959424     0.001198051313
       7        0.000024074296     0.000019961127    -0.000029767573
       8        0.000004423117     0.000004959872    -0.000000998707
       9        0.000011392036     0.000019960428    -0.000011907264
      10        0.000014085573     0.000004122676     0.000022631290
      11       -0.000003246182     0.000010850691    -0.000001562365
      12        0.000000324116    -0.000003646751     0.000000675232
      13        0.000004380205    -0.000005849253     0.000007902924
      14        0.000005778360    -0.000004121226     0.000005102400

  **** Optimization is complete! (in 5 steps) ****
    Final optimized geometry and variables:
    Molecular point group: c1

    Geometry (in Angstrom), charge = 0, multiplicity = 1:

    H           -0.311650297740    -1.464322752591     1.252402784758
    N            0.663537829293    -1.356360165135     1.425256156437
    C            1.172289897485    -0.119369633010     0.867486839644
    H            1.153227278254    -2.152601404832     1.082427805634
    C            0.562924654129     0.285934771147    -0.460078535593
    H            1.032450568124     0.680610074306     1.586259293131
    H            2.244342608817    -0.216427020234     0.732839222079
    O           -0.811441812152     0.451066032004    -0.295554802006
    H            1.015252742184     1.214480493016    -0.807779292742
    H            0.758645890243    -0.480083054829    -1.210946815182
    C           -1.496507041779     0.794405536318    -1.454074071910
    H           -2.543043086295     0.892244884382    -1.204445150768
    H           -1.143742959474     1.740177923050    -1.859217771637
    H           -1.388988778057     0.030805632889    -2.221409161252

  Mulliken Charges: (a.u.)
   Center  Symbol    Alpha    Beta     Spin     Total
       1     H     0.42047  0.42047  0.00000  0.15905
       2     N     3.69784  3.69784  0.00000 -0.39567
       3     C     3.02170  3.02170  0.00000 -0.04341
       4     H     0.43009  0.43009  0.00000  0.13983
       5     C     2.97001  2.97001  0.00000  0.05997
       6     H     0.45623  0.45623  0.00000  0.08754
       7     H     0.45837  0.45837  0.00000  0.08325
       8     O     4.17679  4.17679  0.00000 -0.35359
       9     H     0.47095  0.47095  0.00000  0.05811
      10     H     0.47765  0.47765  0.00000  0.04470
      11     C     3.03170  3.03170  0.00000 -0.06340
      12     H     0.44687  0.44687  0.00000  0.10626
      13     H     0.47007  0.47007  0.00000  0.05986
      14     H     0.47125  0.47125  0.00000  0.05751

   Total alpha = 21.00000, Total beta = 21.00000, Total charge = -0.00000
