                              Psi4 1.0.54 Driver

  ==> Input File <==

--------------------------------------------------------------------------
set {
	reference rhf
	basis cc-pvtz
}

set_num_threads( 4 )
memory 2 gb

molecule MOL {
0 1

H	 2.999329	 -2.773721	 2.586965
O	 3.727702	 -2.729807	 1.995885
C	 3.384005	 -3.296084	 0.758761
C	 2.433691	 -2.434648	 -0.059478
H	 4.314655	 -3.418886	 0.221368
H	 2.960421	 -4.288553	 0.900296
C	 1.049587	 -2.263145	 0.562369
H	 2.891156	 -1.461092	 -0.208041
H	 2.332702	 -2.889334	 -1.042056
C	 0.113298	 -1.420414	 -0.302504
H	 1.150097	 -1.803394	 1.539881
H	 0.602453	 -3.242917	 0.721751
C	 -1.311023	 -1.277304	 0.237018
H	 0.546218	 -0.432400	 -0.439011
H	 0.062306	 -1.866797	 -1.291751
C	 -2.041121	 -0.006551	 -0.194127
H	 -1.888548	 -2.136293	 -0.093331
H	 -1.289731	 -1.328757	 1.323321
C	 -3.489218	 0.042606	 0.286507
H	 -2.022185	 0.066287	 -1.279394
H	 -1.518764	 0.869305	 0.178730
C	 -4.219984	 1.311773	 -0.139038
H	 -4.022855	 -0.824300	 -0.093339
H	 -3.510372	 -0.038577	 1.370031
H	 -4.244251	 1.405725	 -1.219696
H	 -5.244345	 1.313233	 0.215630
H	 -3.732090	 2.196311	 0.257073

	symmetry c1
}
set optking {
	frozen_dihedral = ("
		14 10 13 16
	")
}

ee,wfn = optimize('scf', return_wfn=True)
oeprop( wfn, 'DIPOLE', 'QUADRUPOLE', 'MULLIKEN_CHARGES')
f=open( 'psi4out.xyz', 'w' )
f.write( "27  " )
f.write( str(ee) + "\n" )
f.write( MOL.save_string_xyz() )
f.close()
--------------------------------------------------------------------------

    Molecular point group: c1
  Charge       = 0
  Multiplicity = 1
  Basis Set: CC-PVTZ
  Basis Set:
  @DF-RHF Final Energy:  -388.42689421856528
    Total Energy =                       -388.4268942185655078
    Molecular point group: c1
  Basis Set: CC-PVTZ
  Basis Set:
  Basis Set: CC-PVTZ
  Basis Set:
  @DF-RHF Final Energy:  -388.42733982030626
    Total Energy =                       -388.4273398203055194
  Basis Set: CC-PVTZ
  Basis Set:
  Basis Set: CC-PVTZ
  Basis Set:
  @DF-RHF Final Energy:  -388.42737425821861
    Total Energy =                       -388.4273742582192881
  Basis Set: CC-PVTZ
  Basis Set:
  Basis Set: CC-PVTZ
  Basis Set:
  @DF-RHF Final Energy:  -388.42737835722625
    Total Energy =                       -388.4273783572265302
  Basis Set: CC-PVTZ
  Basis Set:
  Basis Set: CC-PVTZ
  Basis Set:
  @DF-RHF Final Energy:  -388.42738091853903
    Total Energy =                       -388.4273809185392565
  Basis Set: CC-PVTZ
  Basis Set:
  Charge       = 0
  Multiplicity = 1
  Basis Set: CC-PVTZ
  Basis Set:

    Orbital Energies (a.u.)
    -----------------------

    Doubly Occupied:

       1A    -20.545292     2A    -11.265068     3A    -11.217770
       4A    -11.214113     5A    -11.213447     6A    -11.213347
       7A    -11.212810     8A    -11.211836     9A    -11.206854
      10A     -1.363242    11A     -1.095506    12A     -1.063646
      13A     -1.012576    14A     -0.951418    15A     -0.883320
      16A     -0.820874    17A     -0.792806    18A     -0.790025
      19A     -0.696735    20A     -0.657136    21A     -0.637492
      22A     -0.614255    23A     -0.600743    24A     -0.588902
      25A     -0.575133    26A     -0.554804    27A     -0.541434
      28A     -0.520384    29A     -0.513341    30A     -0.488003
      31A     -0.486085    32A     -0.475793    33A     -0.468111
      34A     -0.462430    35A     -0.458815    36A     -0.444596
      37A     -0.422733

  @DF-RHF Final Energy:  -388.42738098674818

   => Energetics <=

    Nuclear Repulsion Energy =            452.1567343232632084
    One-Electron Energy =               -1422.6064788597609549
    Two-Electron Energy =                 582.0223635497488885
    DFT Exchange-Correlation Energy =       0.0000000000000000
    Empirical Dispersion Energy =           0.0000000000000000
    PCM Polarization Energy =               0.0000000000000000
    EFP Energy =                            0.0000000000000000
    Total Energy =                       -388.4273809867488580
    Molecular point group: c1
  Basis Set: CC-PVTZ
  Basis Set:

  -Total Gradient:
     Atom            X                  Y                   Z
    ------   -----------------  -----------------  -----------------
       1        0.000002522318    -0.000000386650     0.000002149639
       2       -0.000010064702     0.000004444858     0.000007708980
       3        0.000006082140    -0.000001839625    -0.000016046672
       4       -0.000001944850    -0.000004462333    -0.000003361287
       5       -0.000000604028    -0.000003302473    -0.000001991835
       6        0.000000379693     0.000004340449     0.000002273923
       7       -0.000001834950     0.000006473404     0.000006600300
       8       -0.000000144681    -0.000004074521     0.000002512925
       9        0.000002529722     0.000001129659    -0.000000563404
      10        0.002183498739     0.000491645581     0.005654608401
      11       -0.000000193521    -0.000000459975    -0.000001119405
      12        0.000000947172     0.000001714857     0.000000019860
      13       -0.001767866954    -0.001986757587    -0.004243860362
      14       -0.001429156472     0.000064702491    -0.003798660899
      15        0.000003704343    -0.000001165024    -0.000000661733
      16        0.001027066690     0.001437196228     0.002384757957
      17       -0.000005710873     0.000004126738    -0.000000738474
      18       -0.000003350349     0.000001514570     0.000002078522
      19       -0.000009220089    -0.000006251545    -0.000003161579
      20        0.000003089525    -0.000002805220     0.000005825225
      21        0.000000282218    -0.000005890188    -0.000003546020
      22        0.000002986122    -0.000001017632     0.000007375954
      23       -0.000000862733     0.000004243847     0.000001443262
      24       -0.000003843082     0.000000258685    -0.000006489418
      25        0.000000241331    -0.000002744933     0.000006202844
      26        0.000003678806     0.000002115511     0.000000159322
      27       -0.000002211531    -0.000002749177    -0.000003516026

  **** Optimization is complete! (in 6 steps) ****
    Final optimized geometry and variables:
    Molecular point group: c1

    Geometry (in Angstrom), charge = 0, multiplicity = 1:

    H            2.926149168928    -1.420496435099     2.243554352033
    O            3.672087419985    -1.369165105923     1.675593774129
    C            3.368636752296    -1.925407761343     0.423616387508
    C            2.435583271115    -1.062884222752    -0.413063812180
    H            4.315294037321    -2.035996277865    -0.087767510276
    H            2.948643385623    -2.922253359958     0.543127351915
    C            1.034701485282    -0.904840649776     0.172039933354
    H            2.890636594949    -0.085387724847    -0.541373119482
    H            2.363705396621    -1.510062739216    -1.401566740410
    C            0.109659350169    -0.062222905472    -0.699792873519
    H            1.097486747389    -0.445689788554     1.155016416985
    H            0.591044267960    -1.888256698694     0.317062690934
    C           -1.319303755245     0.052017754928    -0.158684485200
    H            0.528435458055     0.930457237770    -0.840606228638
    H            0.074396046142    -0.494233219145    -1.697275569011
    C           -2.042600676929     1.317248699056    -0.611907041000
    H           -1.890615453427    -0.825615529987    -0.447255519269
    H           -1.291821112595     0.047679120342     0.928626027997
    C           -3.482403106686     1.406221097545    -0.114785999558
    H           -2.036024133922     1.370845206903    -1.698674358578
    H           -1.487785214196     2.184443034777    -0.262800546362
    C           -4.191080469716     2.683175964173    -0.554108068051
    H           -4.039387232969     0.544465374890    -0.472293717626
    H           -3.491455058303     1.344858732782     0.970198451918
    H           -4.229195710059     2.757147577145    -1.635886705190
    H           -5.209754707830     2.714535532785    -0.184871033321
    H           -3.677532008088     3.563573232268    -0.182178890111

  Mulliken Charges: (a.u.)
   Center  Symbol    Alpha    Beta     Spin     Total
       1     H     0.39222  0.39222  0.00000  0.21555
       2     O     4.20582  4.20582  0.00000 -0.41164
       3     C     2.98014  2.98014  0.00000  0.03972
       4     C     3.08921  3.08921  0.00000 -0.17843
       5     H     0.44846  0.44846  0.00000  0.10308
       6     H     0.46990  0.46990  0.00000  0.06020
       7     C     3.10159  3.10159  0.00000 -0.20318
       8     H     0.45070  0.45070  0.00000  0.09860
       9     H     0.45569  0.45569  0.00000  0.08862
      10     C     3.09213  3.09213  0.00000 -0.18427
      11     H     0.45721  0.45721  0.00000  0.08559
      12     H     0.45300  0.45300  0.00000  0.09401
      13     C     3.08997  3.08997  0.00000 -0.17995
      14     H     0.45200  0.45200  0.00000  0.09600
      15     H     0.45361  0.45361  0.00000  0.09279
      16     C     3.08677  3.08677  0.00000 -0.17355
      17     H     0.45254  0.45254  0.00000  0.09492
      18     H     0.45691  0.45691  0.00000  0.08618
      19     C     3.08470  3.08470  0.00000 -0.16941
      20     H     0.45461  0.45461  0.00000  0.09077
      21     H     0.45445  0.45445  0.00000  0.09110
      22     C     3.15015  3.15015  0.00000 -0.30030
      23     H     0.45472  0.45472  0.00000  0.09057
      24     H     0.45468  0.45468  0.00000  0.09063
      25     H     0.45515  0.45515  0.00000  0.08969
      26     H     0.44850  0.44850  0.00000  0.10299
      27     H     0.45515  0.45515  0.00000  0.08970

   Total alpha = 37.00000, Total beta = 37.00000, Total charge = -0.00000

*** Psi4 exiting successfully. Buy a developer a beer!
