                              Psi4 1.0.54 Driver

  ==> Input File <==

--------------------------------------------------------------------------
set {
	reference rhf
	basis cc-pvtz
}

set_num_threads( 4 )
memory 2 gb

molecule MOL {
0 1

H	 2.828711	 -0.346904	 0.001083
C	 1.876752	 0.015931	 -0.363450
C	 0.776285	 -0.474665	 0.563092
H	 1.728113	 -0.357244	 -1.367440
H	 1.906171	 1.096574	 -0.386153
N	 -0.540022	 0.017605	 0.071630
H	 0.707111	 -1.548969	 0.573035
H	 0.886169	 -0.084184	 1.560432
O	 -1.351773	 -0.797287	 -0.213339
O	 -0.676689	 1.190523	 -0.028277

	symmetry c1
}
set optking {
	frozen_dihedral = ("
		9 6 3 2
	")
}

ee,wfn = optimize('scf', return_wfn=True)
oeprop( wfn, 'DIPOLE', 'QUADRUPOLE', 'MULLIKEN_CHARGES')
f=open( 'psi4out.xyz', 'w' )
f.write( "10  " )
f.write( str(ee) + "\n" )
f.write( MOL.save_string_xyz() )
f.close()
--------------------------------------------------------------------------

    Molecular point group: c1
  Charge       = 0
  Multiplicity = 1
  Basis Set: CC-PVTZ
  Basis Set:
  @DF-RHF Final Energy:  -282.81297846748259
    Total Energy =                       -282.8129784674825373
    Molecular point group: c1
  Basis Set: CC-PVTZ
  Basis Set:
  Basis Set: CC-PVTZ
  Basis Set:
  @DF-RHF Final Energy:  -282.78355379047491
    Total Energy =                       -282.7835537904747980
  Basis Set: CC-PVTZ
  Basis Set:
  Basis Set: CC-PVTZ
  Basis Set:
  @DF-RHF Final Energy:  -282.80837798904031
    Total Energy =                       -282.8083779890404230
  Basis Set: CC-PVTZ
  Basis Set:
  Basis Set: CC-PVTZ
  Basis Set:
  @DF-RHF Final Energy:  -282.79009963679061
    Total Energy =                       -282.7900996367905009
  Basis Set: CC-PVTZ
  Basis Set:
  Basis Set: CC-PVTZ
  Basis Set:
  @DF-RHF Final Energy:  -282.81272195385458
    Total Energy =                       -282.8127219538544068
  Basis Set: CC-PVTZ
  Basis Set:
  Basis Set: CC-PVTZ
  Basis Set:
  @DF-RHF Final Energy:  -282.81314674850694
    Total Energy =                       -282.8131467485069379
  Basis Set: CC-PVTZ
  Basis Set:
  Basis Set: CC-PVTZ
  Basis Set:
  @DF-RHF Final Energy:  -282.81321317713309
    Total Energy =                       -282.8132131771331501
  Basis Set: CC-PVTZ
  Basis Set:
  Charge       = 0
  Multiplicity = 1
  Basis Set: CC-PVTZ
  Basis Set:

    Orbital Energies (a.u.)
    -----------------------

    Doubly Occupied:

       1A    -20.594077     2A    -20.590368     3A    -15.838760
       4A    -11.302105     5A    -11.248567     6A     -1.637976
       7A     -1.422384     8A     -1.125619     9A     -0.966963
      10A     -0.838566    11A     -0.764345    12A     -0.742001
      13A     -0.730715    14A     -0.655637    15A     -0.590919
      16A     -0.562261    17A     -0.544753    18A     -0.489337
      19A     -0.479369    20A     -0.455460

  @DF-RHF Final Energy:  -282.81322636624748

   => Energetics <=

    Nuclear Repulsion Energy =            186.6664339579136538
    One-Electron Energy =                -755.7989551605678571
    Two-Electron Energy =                 286.3192948364065842
    DFT Exchange-Correlation Energy =       0.0000000000000000
    Empirical Dispersion Energy =           0.0000000000000000
    PCM Polarization Energy =               0.0000000000000000
    EFP Energy =                            0.0000000000000000
    Total Energy =                       -282.8132263662475907
    Molecular point group: c1
  Basis Set: CC-PVTZ
  Basis Set:

  -Total Gradient:
     Atom            X                  Y                   Z
    ------   -----------------  -----------------  -----------------
       1       -0.000030133182     0.000050145942    -0.000007334964
       2        0.000154604711     0.000089842364     0.000194979551
       3       -0.000117022573    -0.000160062873    -0.000259300859
       4       -0.000026911030    -0.000017212654     0.000107591174
       5        0.000014657071    -0.000025357602    -0.000056272465
       6        0.000210180006     0.000218083579    -0.000123526199
       7       -0.000041277877     0.000061840125     0.000072202837
       8       -0.000049267759     0.000053285959    -0.000080118978
       9       -0.000229611088    -0.000214433052     0.000112770079
      10        0.000114781720    -0.000056131788     0.000039009822

  **** Optimization is complete! (in 8 steps) ****
    Final optimized geometry and variables:
    Molecular point group: c1

    Geometry (in Angstrom), charge = 0, multiplicity = 1:

    H            2.373649568767    -1.501484244749    -0.549794229310
    C            1.714679291953    -0.645220640274    -0.611416607962
    C            0.470270695296    -0.929409005720     0.209029716419
    H            1.462978554731    -0.484621598970    -1.651754208994
    H            2.235001271935     0.223106346886    -0.236891476892
    N           -0.477745499459     0.219570514345     0.147090944877
    H           -0.078808456333    -1.782704618132    -0.147129409217
    H            0.704437806777    -1.045299019946     1.256239137133
    O           -1.557563886300     0.015577589639    -0.294272608571
    O           -0.085405763617     1.262817572719     0.551144848800

  Mulliken Charges: (a.u.)
   Center  Symbol    Alpha    Beta     Spin     Total
       1     H     0.44851  0.44851  0.00000  0.10297
       2     C     3.14141  3.14141  0.00000 -0.28281
       3     C     3.03822  3.03822  0.00000 -0.07643
       4     H     0.44474  0.44474  0.00000  0.11051
       5     H     0.43687  0.43687  0.00000  0.12626
       6     N     3.27785  3.27785  0.00000  0.44431
       7     H     0.43232  0.43232  0.00000  0.13536
       8     H     0.43724  0.43724  0.00000  0.12551
       9     O     4.16842  4.16842  0.00000 -0.33683
      10     O     4.17442  4.17442  0.00000 -0.34884

   Total alpha = 20.00000, Total beta = 20.00000, Total charge =  0.00000

*** Psi4 exiting successfully. Buy a developer a beer!
