                              Psi4 1.0.54 Driver

  ==> Input File <==

--------------------------------------------------------------------------
set {
	reference rhf
	basis cc-pvtz
}

set_num_threads( 4 )
memory 2 gb

molecule MOL {
0 1

O	 3.219313	 0.959291	 -0.614106
C	 2.698710	 0.058177	 -0.050237
C	 1.246364	 -0.005813	 0.348416
O	 3.344101	 -1.038700	 0.312317
C	 0.453207	 1.232821	 -0.049003
H	 0.839270	 -0.907818	 -0.092281
H	 1.216683	 -0.160521	 1.422434
C	 -0.998367	 1.217982	 0.432195
H	 0.481498	 1.345443	 -1.127236
H	 0.951413	 2.105557	 0.354893
C	 -1.882951	 0.151251	 -0.211235
H	 -1.429490	 2.193659	 0.228843
H	 -1.019755	 1.099323	 1.513279
C	 -3.354279	 0.552979	 -0.271191
H	 -1.524630	 -0.048562	 -1.218485
H	 -1.797704	 -0.784177	 0.333965
C	 -4.248512	 -0.507796	 -0.906705
H	 -3.450220	 1.481935	 -0.828125
H	 -3.710081	 0.764486	 0.734560
C	 -5.716452	 -0.098437	 -0.964636
H	 -3.894347	 -0.720049	 -1.911810
H	 -4.155911	 -1.436155	 -0.349544
H	 -6.322812	 -0.872709	 -1.420503
H	 -5.847095	 0.808560	 -1.545496
H	 -6.110365	 0.087752	 0.029031
C	 4.720529	 -1.114346	 0.001449
H	 4.874321	 -1.055557	 -1.065852
H	 5.057824	 -2.067950	 0.373977
H	 5.264321	 -0.313596	 0.480350

	symmetry c1
}
set optking {
	frozen_dihedral = ("
		15 11 8 5
	")
}

ee,wfn = optimize('scf', return_wfn=True)
oeprop( wfn, 'DIPOLE', 'QUADRUPOLE', 'MULLIKEN_CHARGES')
f=open( 'psi4out.xyz', 'w' )
f.write( "29  " )
f.write( str(ee) + "\n" )
f.write( MOL.save_string_xyz() )
f.close()
--------------------------------------------------------------------------

    Molecular point group: c1
  Charge       = 0
  Multiplicity = 1
  Basis Set: CC-PVTZ
  Basis Set:
  @DF-RHF Final Energy:  -501.22309166174387
    Total Energy =                       -501.2230916617438652
    Molecular point group: c1
  Basis Set: CC-PVTZ
  Basis Set:
  Basis Set: CC-PVTZ
  Basis Set:
  @DF-RHF Final Energy:  -501.22322845989606
    Total Energy =                       -501.2232284598958358
  Basis Set: CC-PVTZ
  Basis Set:
  Basis Set: CC-PVTZ
  Basis Set:
  @DF-RHF Final Energy:  -501.22333281656677
    Total Energy =                       -501.2233328165661987
  Basis Set: CC-PVTZ
  Basis Set:
  Basis Set: CC-PVTZ
  Basis Set:
  @DF-RHF Final Energy:  -501.22333814181741
    Total Energy =                       -501.2233381418179761
  Basis Set: CC-PVTZ
  Basis Set:
  Basis Set: CC-PVTZ
  Basis Set:
  @DF-RHF Final Energy:  -501.22334142183581
    Total Energy =                       -501.2233414218362668
  Basis Set: CC-PVTZ
  Basis Set:
  Basis Set: CC-PVTZ
  Basis Set:
  @DF-RHF Final Energy:  -501.22334445271679
    Total Energy =                       -501.2233444527166739
  Basis Set: CC-PVTZ
  Basis Set:
  Charge       = 0
  Multiplicity = 1
  Basis Set: CC-PVTZ
  Basis Set:

    Orbital Energies (a.u.)
    -----------------------

    Doubly Occupied:

       1A    -20.595919     2A    -20.533756     3A    -11.364125
       4A    -11.278194     5A    -11.232760     6A    -11.217135
       7A    -11.215311     8A    -11.213990     9A    -11.213842
      10A    -11.212645    11A    -11.207116    12A     -1.471793
      13A     -1.365372    14A     -1.099151    15A     -1.068044
      16A     -1.020044    17A     -0.978002    18A     -0.929152
      19A     -0.862515    20A     -0.800409    21A     -0.791334
      22A     -0.765250    23A     -0.702176    24A     -0.685545
      25A     -0.675764    26A     -0.652092    27A     -0.629251
      28A     -0.606366    29A     -0.593912    30A     -0.581959
      31A     -0.567799    32A     -0.551314    33A     -0.533143
      34A     -0.530338    35A     -0.518806    36A     -0.513379
      37A     -0.494771    38A     -0.478603    39A     -0.471589
      40A     -0.461847    41A     -0.459557    42A     -0.458201
      43A     -0.444024    44A     -0.437051

  @DF-RHF Final Energy:  -501.22334526190946

   => Energetics <=

    Nuclear Repulsion Energy =            611.4573106843162122
    One-Electron Energy =               -1894.3946153101314849
    Two-Electron Energy =                 781.7139593639058148
    DFT Exchange-Correlation Energy =       0.0000000000000000
    Empirical Dispersion Energy =           0.0000000000000000
    PCM Polarization Energy =               0.0000000000000000
    EFP Energy =                            0.0000000000000000
    Total Energy =                       -501.2233452619093441
    Molecular point group: c1
  Basis Set: CC-PVTZ
  Basis Set:

  -Total Gradient:
     Atom            X                  Y                   Z
    ------   -----------------  -----------------  -----------------
       1        0.000009139695     0.000009028750     0.000001384300
       2       -0.000022890885    -0.000018347215     0.000016805817
       3        0.000026432967     0.000005684803    -0.000029662317
       4        0.000029508822    -0.000005252590    -0.000010490095
       5       -0.000621937053     0.001680502875    -0.001990213583
       6        0.000002902347     0.000012555149     0.000009317057
       7       -0.000001613854     0.000007109793     0.000009501095
       8        0.001360595727    -0.003030651952     0.003083476420
       9        0.000014143142     0.000012532484    -0.000009960042
      10       -0.000004989209    -0.000016532800     0.000006646650
      11       -0.002933056058     0.003916248774    -0.002442535057
      12       -0.000032741869     0.000000962680    -0.000002838894
      13       -0.000031290107    -0.000011230099     0.000001141217
      14        0.000030168070     0.000005112580    -0.000001686651
      15        0.002163794679    -0.002580635268     0.001351170688
      16        0.000017440968    -0.000008508559     0.000011390959
      17       -0.000005173112     0.000022236007    -0.000018333598
      18       -0.000008317961     0.000023033973    -0.000004011822
      19       -0.000005508308    -0.000003330087     0.000009767427
      20        0.000018214494    -0.000004733043     0.000011693733
      21        0.000009968946    -0.000006862776    -0.000016608767
      22        0.000001207212    -0.000008683377     0.000007806271
      23       -0.000002917071    -0.000005256364     0.000000932540
      24        0.000001263479     0.000004821919    -0.000004886598
      25       -0.000012286245     0.000005707842     0.000009474946
      26       -0.000027565171    -0.000000786358     0.000002108174
      27        0.000011156639    -0.000001113042    -0.000006092218
      28        0.000006700035    -0.000006323231     0.000002179444
      29        0.000007649682     0.000002709137     0.000002522903

  **** Optimization is complete! (in 7 steps) ****
    Final optimized geometry and variables:
    Molecular point group: c1

    Geometry (in Angstrom), charge = 0, multiplicity = 1:

    O            3.231130720144     0.826838834367    -0.406704401517
    C            2.686611718181    -0.067256532525     0.145770898550
    C            1.233405986692    -0.095875234499     0.544651852401
    O            3.302140451383    -1.186168640576     0.492429973391
    C            0.474408324957     1.171610774468     0.172475401251
    H            0.796836880616    -0.975884098243     0.086554680363
    H            1.198492547930    -0.271352419209     1.615288325249
    C           -0.987838557632     1.158793810098     0.617805735309
    H            0.525250348031     1.318168486952    -0.900453770354
    H            0.977403765659     2.022047971198     0.616465474588
    C           -1.855014488439     0.086677659686    -0.053581825594
    H           -1.403610928513     2.135820836156     0.390025987456
    H           -1.047123883954     1.053972031020     1.697864506417
    C           -3.333146502832     0.455985708777    -0.120065586480
    H           -1.475623582125    -0.117767440805    -1.051920845626
    H           -1.753521012036    -0.851727652559     0.485887725768
    C           -4.207730514984    -0.637587770888    -0.726010368228
    H           -3.447638629249     1.369038823552    -0.699199589299
    H           -3.689706850030     0.686118888028     0.881589387377
    C           -5.681973039569    -0.254197223852    -0.799637507095
    H           -3.846904025734    -0.873340721649    -1.723609437102
    H           -4.101451194962    -1.547419440207    -0.141499955551
    H           -6.274402176088    -1.051853700085    -1.232949918552
    H           -5.825875643261     0.632389682955    -1.408216401862
    H           -6.081516823396    -0.044289940592     0.187056230115
    C            4.675552383668    -1.295379481336     0.178319465212
    H            4.829657916917    -1.226372688493    -0.888345722452
    H            4.987083844558    -2.262848048791     0.537349405979
    H            5.241790277064    -0.516428976298     0.667097909276

  Mulliken Charges: (a.u.)
   Center  Symbol    Alpha    Beta     Spin     Total
       1     O     4.19700  4.19700  0.00000 -0.39400
       2     C     2.80564  2.80564  0.00000  0.38871
       3     C     3.09980  3.09980  0.00000 -0.19960
       4     O     4.14720  4.14720  0.00000 -0.29439
       5     C     3.09269  3.09269  0.00000 -0.18538
       6     H     0.43818  0.43818  0.00000  0.12364
       7     H     0.44003  0.44003  0.00000  0.11993
       8     C     3.10373  3.10373  0.00000 -0.20746
       9     H     0.44604  0.44604  0.00000  0.10791
      10     H     0.44048  0.44048  0.00000  0.11904
      11     C     3.09800  3.09800  0.00000 -0.19601
      12     H     0.44673  0.44673  0.00000  0.10654
      13     H     0.45152  0.45152  0.00000  0.09695
      14     C     3.08495  3.08495  0.00000 -0.16990
      15     H     0.45236  0.45236  0.00000  0.09528
      16     H     0.45297  0.45297  0.00000  0.09407
      17     C     3.08395  3.08395  0.00000 -0.16791
      18     H     0.45401  0.45401  0.00000  0.09199
      19     H     0.45432  0.45432  0.00000  0.09137
      20     C     3.15066  3.15066  0.00000 -0.30132
      21     H     0.45446  0.45446  0.00000  0.09108
      22     H     0.45484  0.45484  0.00000  0.09032
      23     H     0.44835  0.44835  0.00000  0.10330
      24     H     0.45493  0.45493  0.00000  0.09015
      25     H     0.45521  0.45521  0.00000  0.08958
      26     C     3.03800  3.03800  0.00000 -0.07599
      27     H     0.45439  0.45439  0.00000  0.09122
      28     H     0.44528  0.44528  0.00000  0.10944
      29     H     0.45428  0.45428  0.00000  0.09145

   Total alpha = 44.00000, Total beta = 44.00000, Total charge = -0.00000

*** Psi4 exiting successfully. Buy a developer a beer!
