  ==> Input File <==

--------------------------------------------------------------------------
set {
	reference rhf
	basis 6-31G*
}

set_num_threads( 4 )
memory 2 gb

molecule MOL {
0 1

O	 1.292542	 0.249530	 -0.941443
C	 0.576249	 0.131685	 -0.000108
C	 -0.766779	 -0.556801	 -0.000461
O	 0.874697	 0.603327	 1.203697
C	 -1.945214	 0.412366	 0.000161
H	 -0.796911	 -1.211249	 -0.867467
H	 -0.796854	 -1.212390	 0.865687
C	 -3.287791	 -0.317055	 0.000105
H	 -1.876087	 1.060580	 -0.866812
H	 -1.875822	 1.059691	 0.867761
H	 -3.394745	 -0.949193	 -0.877058
H	 -4.111778	 0.388953	 0.000015
H	 -3.394954	 -0.949187	 0.877259
C	 2.113678	 1.274941	 1.341785
H	 2.933259	 0.614046	 1.098786
H	 2.171408	 1.577844	 2.375604
H	 2.151189	 2.139954	 0.695367

	symmetry c1
}
set optking {
	frozen_dihedral = ("
		1 2 3 6
	")
}

ee = optimize('scf')
oeprop('DIPOLE', 'QUADRUPOLE', 'MULLIKEN_CHARGES')
f=open( 'psi4out.xyz', 'w' )
f.write( "17  " )
f.write( str(ee) + "\n" )
f.write( MOL.save_string_xyz() )
f.close()
--------------------------------------------------------------------------

    Molecular point group: c1
  Charge       = 0
  Multiplicity = 1
  Basis Set: 6-31G*
  Basis Set:
  @DF-RHF Final Energy:  -344.90505324920758
    Total Energy =                       -344.9050532492076400
    Molecular point group: c1
  Basis Set: 6-31G*
  Basis Set:
  Basis Set: 6-31G*
  Basis Set:
  @DF-RHF Final Energy:  -344.90464977327849
    Total Energy =                       -344.9046497732787770
  Basis Set: 6-31G*
  Basis Set:
  Basis Set: 6-31G*
  Basis Set:
  @DF-RHF Final Energy:  -344.90535748403818
    Total Energy =                       -344.9053574840382339
  Basis Set: 6-31G*
  Basis Set:
  Basis Set: 6-31G*
  Basis Set:
  @DF-RHF Final Energy:  -344.90554442046454
    Total Energy =                       -344.9055444204647074
  Basis Set: 6-31G*
  Basis Set:
  Basis Set: 6-31G*
  Basis Set:
  @DF-RHF Final Energy:  -344.90554574295862
    Total Energy =                       -344.9055457429583385
  Basis Set: 6-31G*
  Basis Set:
  Charge       = 0
  Multiplicity = 1
  Basis Set: 6-31G*
  Basis Set:

    Orbital Energies (a.u.)
    -----------------------

    Doubly Occupied:

       1A    -20.604564     2A    -20.543698     3A    -11.371049
       4A    -11.280890     5A    -11.234330     6A    -11.232494
       7A    -11.218961     8A     -1.468894     9A     -1.361541
      10A     -1.084653    11A     -0.999467    12A     -0.941668
      13A     -0.830867    14A     -0.774072    15A     -0.697143
      16A     -0.679651    17A     -0.673128    18A     -0.636475
      19A     -0.595594    20A     -0.581211    21A     -0.550539
      22A     -0.545507    23A     -0.525912    24A     -0.507647
      25A     -0.488994    26A     -0.484474    27A     -0.454231
      28A     -0.431943

  @DF-RHF Final Energy:  -344.90554622982603

   => Energetics <=

    Nuclear Repulsion Energy =            314.0912281493609157
    One-Electron Energy =               -1092.3943455901694506
    Two-Electron Energy =                 433.3975712109820506
    DFT Exchange-Correlation Energy =       0.0000000000000000
    Empirical Dispersion Energy =           0.0000000000000000
    PCM Polarization Energy =               0.0000000000000000
    EFP Energy =                            0.0000000000000000
    Total Energy =                       -344.9055462298265411
    Molecular point group: c1
  Basis Set: 6-31G*
  Basis Set:

  -Total Gradient:
     Atom            X                  Y                   Z
    ------   -----------------  -----------------  -----------------
       1       -0.000143424823     0.000250057676    -0.000014964186
       2        0.000207404900    -0.000415464271     0.000075535416
       3       -0.000200278391     0.000361618599    -0.000210518952
       4        0.000011544307     0.000012083718    -0.000005930503
       5        0.000011010699    -0.000002671759     0.000017644981
       6        0.000115264208    -0.000224552235     0.000140599878
       7       -0.000002031784     0.000008643689    -0.000020727601
       8        0.000003339606     0.000003946762     0.000002570391
       9       -0.000005128707    -0.000025603495     0.000009486756
      10       -0.000016245948     0.000022430929    -0.000000193698
      11        0.000005405099     0.000005653595    -0.000004480831
      12       -0.000002137305     0.000006186450     0.000005994846
      13        0.000013517691    -0.000000272960    -0.000005371398
      14       -0.000009800736    -0.000011753217     0.000009572503
      15        0.000003675910     0.000001836510    -0.000000246289
      16        0.000009022662     0.000007241029     0.000002015353
      17       -0.000001137390     0.000000618978    -0.000000986668

  **** Optimization is complete! (in 6 steps) ****
    Final optimized geometry and variables:
    Molecular point group: c1

    Geometry (in Angstrom), charge = 0, multiplicity = 1:

    O            1.403501387125    -0.006466409669    -1.185981080749
    C            0.713038989805    -0.157998891553    -0.229824333309
    C           -0.620934531070    -0.860707838143    -0.229724306224
    O            1.024355777637     0.311078049829     0.972153765658
    C           -1.785525889389     0.141199666084    -0.227426800575
    H           -0.659682822465    -1.484192973838    -1.113903709330
    H           -0.682728624157    -1.496649167253     0.646731199224
    C           -3.143073137148    -0.558261423706    -0.256316122219
    H           -1.693420733418     0.794528286346    -1.090499028327
    H           -1.714840682736     0.769664715190     0.654532774071
    H           -3.249203438327    -1.172820114482    -1.145259792462
    H           -3.951522298252     0.165521398631    -0.255058605208
    H           -3.271619098724    -1.200913313838     0.609734427239
    C            2.239295560784     1.029415728272     1.086271745623
    H            3.076990819562     0.403349537964     0.814879343773
    H            2.312256462683     1.323994752928     2.121586481772
    H            2.226318992555     1.901481784910     0.448411022740

  Mulliken Charges: (a.u.)
   Center  Symbol    Alpha    Beta     Spin     Total
       1     O     4.28474  4.28474  0.00000 -0.56948
       2     C     2.61748  2.61748  0.00000  0.76503
       3     C     3.19276  3.19276  0.00000 -0.38552
       4     O     4.30288  4.30288  0.00000 -0.60577
       5     C     3.16525  3.16525  0.00000 -0.33050
       6     H     0.39985  0.39985  0.00000  0.20031
       7     H     0.40471  0.40471  0.00000  0.19058
       8     C     3.24085  3.24085  0.00000 -0.48171
       9     H     0.41077  0.41077  0.00000  0.17845
      10     H     0.40934  0.40934  0.00000  0.18132
      11     H     0.41812  0.41812  0.00000  0.16377
      12     H     0.41516  0.41516  0.00000  0.16967
      13     H     0.41920  0.41920  0.00000  0.16159
      14     C     3.09250  3.09250  0.00000 -0.18500
      15     H     0.40850  0.40850  0.00000  0.18300
      16     H     0.40877  0.40877  0.00000  0.18245
      17     H     0.40910  0.40910  0.00000  0.18179

   Total alpha = 28.00000, Total beta = 28.00000, Total charge = -0.00000
