  ==> Input File <==

--------------------------------------------------------------------------
set {
	reference rhf
	basis 6-31G*
}

set_num_threads( 1 )
memory 2 gb

molecule MOL {
0 1

H	 -3.538910	 -0.568819	 -0.465438
O	 -2.707301	 -0.219861	 -0.752547
C	 -2.026376	 0.340750	 0.341611
C	 -0.673256	 0.843270	 -0.132153
H	 -2.598109	 1.166494	 0.761379
H	 -1.893022	 -0.400050	 1.129066
C	 0.486613	 -0.083066	 0.235839
H	 -0.715586	 0.970948	 -1.210718
H	 -0.508072	 1.829858	 0.297090
C	 1.840406	 0.433480	 -0.254303
H	 0.300215	 -1.068318	 -0.178947
H	 0.519509	 -0.203625	 1.318070
C	 3.000220	 -0.489290	 0.118523
H	 1.809207	 0.553576	 -1.335192
H	 2.021860	 1.424500	 0.157276
H	 2.864959	 -1.479103	 -0.307933
H	 3.946603	 -0.099227	 -0.243630
H	 3.080049	 -0.602997	 1.196117

	symmetry c1
}
set optking {
	frozen_dihedral = ("
		14 10 7 11,
		10 7 4 8,
		1 2 3 4
	")
}

ee = energy('scf')
oeprop('DIPOLE', 'QUADRUPOLE', 'MULLIKEN_CHARGES')
f=open( 'psi4out.xyz', 'w' )
f.write( "18  " )
f.write( str(ee) + "\n" )
f.write( MOL.save_string_xyz() )
f.close()
--------------------------------------------------------------------------

    Molecular point group: c1

    Geometry (in Angstrom), charge = 0, multiplicity = 1:

       Center              X                  Y                   Z               Mass
    ------------   -----------------  -----------------  -----------------  -----------------
           H         -3.465782928492    -0.688700581500    -0.383738191057     1.007825032070
           O         -2.634173928492    -0.339742581500    -0.670847191057    15.994914619560
           C         -1.953248928492     0.220868418500     0.423310808943    12.000000000000
           C         -0.600128928492     0.723388418500    -0.050453191057    12.000000000000
           H         -2.524981928492     1.046612418500     0.843078808943     1.007825032070
           H         -1.819894928492    -0.519931581500     1.210765808943     1.007825032070
           C          0.559740071508    -0.202947581500     0.317538808943    12.000000000000
           H         -0.642458928492     0.851066418500    -1.129018191057     1.007825032070
           H         -0.434944928492     1.709976418500     0.378789808943     1.007825032070
           C          1.913533071508     0.313598418500    -0.172603191057    12.000000000000
           H          0.373342071508    -1.188199581500    -0.097247191057     1.007825032070
           H          0.592636071508    -0.323506581500     1.399769808943     1.007825032070
           C          3.073347071508    -0.609171581500     0.200222808943    12.000000000000
           H          1.882334071508     0.433694418500    -1.253492191057     1.007825032070
           H          2.094987071508     1.304618418500     0.238975808943     1.007825032070
           H          2.938086071508    -1.598984581500    -0.226233191057     1.007825032070
           H          4.019730071508    -0.219108581500    -0.161930191057     1.007825032070
           H          3.153176071508    -0.722878581500     1.277816808943     1.007825032070

  Charge       = 0
  Multiplicity = 1
  Basis Set: 6-31G*
  Basis Set:

    Orbital Energies (a.u.)
    -----------------------

    Doubly Occupied:

       1A    -20.551576     2A    -11.266367     3A    -11.213168
       4A    -11.211847     5A    -11.209902     6A    -11.206780
       7A     -1.358306     8A     -1.077862     9A     -1.009807
      10A     -0.913222    11A     -0.818506    12A     -0.789302
      13A     -0.703557    14A     -0.638277    15A     -0.631074
      16A     -0.579490    17A     -0.571197    18A     -0.560448
      19A     -0.525110    20A     -0.497406    21A     -0.489348
      22A     -0.469314    23A     -0.462654    24A     -0.452505
      25A     -0.424808

  @DF-RHF Final Energy:  -271.17492841589262

   => Energetics <=

    Nuclear Repulsion Energy =            246.9817371172650837
    One-Electron Energy =                -857.0496870991362357
    Two-Electron Energy =                 338.8930215659781879
    DFT Exchange-Correlation Energy =       0.0000000000000000
    Empirical Dispersion Energy =           0.0000000000000000
    PCM Polarization Energy =               0.0000000000000000
    EFP Energy =                            0.0000000000000000
    Total Energy =                       -271.1749284158929640

  Mulliken Charges: (a.u.)
   Center  Symbol    Alpha    Beta     Spin     Total
       1     H     0.28183  0.28183  0.00000  0.43633
       2     O     4.37071  4.37071  0.00000 -0.74141
       3     C     2.99596  2.99596  0.00000  0.00807
       4     C     3.16299  3.16299  0.00000 -0.32597
       5     H     0.43044  0.43044  0.00000  0.13912
       6     H     0.43059  0.43059  0.00000  0.13882
       7     C     3.15643  3.15643  0.00000 -0.31286
       8     H     0.40523  0.40523  0.00000  0.18954
       9     H     0.42288  0.42288  0.00000  0.15423
      10     C     3.15230  3.15230  0.00000 -0.30460
      11     H     0.41681  0.41681  0.00000  0.16637
      12     H     0.42619  0.42619  0.00000  0.14763
      13     C     3.23922  3.23922  0.00000 -0.47844
      14     H     0.42128  0.42128  0.00000  0.15743
      15     H     0.42371  0.42371  0.00000  0.15258
      16     H     0.42123  0.42123  0.00000  0.15754
      17     H     0.41958  0.41958  0.00000  0.16084
      18     H     0.42262  0.42262  0.00000  0.15476

   Total alpha = 25.00000, Total beta = 25.00000, Total charge =  0.00000
