  ==> Input File <==

--------------------------------------------------------------------------
set {
	reference rhf
	basis 6-31G*
}

set_num_threads( 1 )
memory 2 gb

molecule MOL {
0 1

O	 0.749854	 1.307668	 -0.000040
C	 0.576249	 0.131685	 -0.000108
C	 -0.766779	 -0.556801	 -0.000461
O	 1.568443	 -0.749345	 -0.000005
C	 -1.945214	 0.412366	 0.000161
H	 -0.796911	 -1.211249	 -0.867467
H	 -0.796854	 -1.212390	 0.865687
C	 -3.281698	 -0.309541	 -0.164851
H	 -1.814263	 1.135709	 -0.797479
H	 -1.942338	 0.978776	 0.925227
H	 -3.321375	 -0.859837	 -1.100827
H	 -4.105740	 0.396400	 -0.162387
H	 -3.451387	 -1.017654	 0.641533
C	 2.886820	 -0.232538	 0.000322
H	 3.059106	 0.369571	 -0.880203
H	 3.540187	 -1.091012	 0.000050
H	 3.059019	 0.368956	 0.881266

	symmetry c1
}
set optking {
	frozen_dihedral = ("
		1 2 3 6,
		14 4 2 1
	")
}

ee = energy('scf')
oeprop('DIPOLE', 'QUADRUPOLE', 'MULLIKEN_CHARGES')
f=open( 'psi4out.xyz', 'w' )
f.write( "17  " )
f.write( str(ee) + "\n" )
f.write( MOL.save_string_xyz() )
f.close()
--------------------------------------------------------------------------

    Molecular point group: c1

    Geometry (in Angstrom), charge = 0, multiplicity = 1:

       Center              X                  Y                   Z               Mass
    ------------   -----------------  -----------------  -----------------  -----------------
           O          0.748957267478     1.306562034407     0.024242165812    15.994914619560
           C          0.575352267478     0.130579034407     0.024174165812    12.000000000000
           C         -0.767675732522    -0.557906965593     0.023821165812    12.000000000000
           O          1.567546267478    -0.750450965593     0.024277165812    15.994914619560
           C         -1.946110732522     0.411260034407     0.024443165812    12.000000000000
           H         -0.797807732522    -1.212354965593    -0.843184834188     1.007825032070
           H         -0.797750732522    -1.213495965593     0.889969165812     1.007825032070
           C         -3.282594732522    -0.310646965593    -0.140568834188    12.000000000000
           H         -1.815159732522     1.134603034407    -0.773196834188     1.007825032070
           H         -1.943234732522     0.977670034407     0.949509165812     1.007825032070
           H         -3.322271732522    -0.860942965593    -1.076544834188     1.007825032070
           H         -4.106636732522     0.395294034407    -0.138104834188     1.007825032070
           H         -3.452283732522    -1.018759965593     0.665815165812     1.007825032070
           C          2.885923267478    -0.233643965593     0.024604165812    12.000000000000
           H          3.058209267478     0.368465034407    -0.855920834188     1.007825032070
           H          3.539290267478    -1.092117965593     0.024332165812     1.007825032070
           H          3.058122267478     0.367850034407     0.905548165812     1.007825032070

  Charge       = 0
  Multiplicity = 1
  Basis Set: 6-31G*
  Basis Set:

    Orbital Energies (a.u.)
    -----------------------

    Doubly Occupied:

       1A    -20.604070     2A    -20.545909     3A    -11.372729
       4A    -11.281148     5A    -11.236025     6A    -11.221846
       7A    -11.214556     8A     -1.469791     9A     -1.363269
      10A     -1.080607    11A     -1.001499    12A     -0.939791
      13A     -0.827285    14A     -0.767373    15A     -0.700509
      16A     -0.683585    17A     -0.672370    18A     -0.636903
      19A     -0.595344    20A     -0.574673    21A     -0.569014
      22A     -0.527484    23A     -0.522042    24A     -0.498379
      25A     -0.487134    26A     -0.478695    27A     -0.456405
      28A     -0.438339

  @DF-RHF Final Energy:  -344.90670254630226

   => Energetics <=

    Nuclear Repulsion Energy =            312.5029854834133971
    One-Electron Energy =               -1089.2856410478393627
    Two-Electron Energy =                 431.8759530181246760
    DFT Exchange-Correlation Energy =       0.0000000000000000
    Empirical Dispersion Energy =           0.0000000000000000
    PCM Polarization Energy =               0.0000000000000000
    EFP Energy =                            0.0000000000000000
    Total Energy =                       -344.9067025463013465

  Mulliken Charges: (a.u.)
   Center  Symbol    Alpha    Beta     Spin     Total
       1     O     4.28578  4.28578  0.00000 -0.57155
       2     C     2.60633  2.60633  0.00000  0.78735
       3     C     3.20612  3.20612  0.00000 -0.41224
       4     O     4.30692  4.30692  0.00000 -0.61383
       5     C     3.15219  3.15219  0.00000 -0.30438
       6     H     0.40109  0.40109  0.00000  0.19782
       7     H     0.40063  0.40063  0.00000  0.19875
       8     C     3.24282  3.24282  0.00000 -0.48565
       9     H     0.40887  0.40887  0.00000  0.18226
      10     H     0.41253  0.41253  0.00000  0.17494
      11     H     0.42117  0.42117  0.00000  0.15767
      12     H     0.41517  0.41517  0.00000  0.16965
      13     H     0.42152  0.42152  0.00000  0.15696
      14     C     3.09248  3.09248  0.00000 -0.18495
      15     H     0.40901  0.40901  0.00000  0.18197
      16     H     0.40837  0.40837  0.00000  0.18326
      17     H     0.40901  0.40901  0.00000  0.18199

   Total alpha = 28.00000, Total beta = 28.00000, Total charge = -0.00000
