                              Psi4 1.0.54 Driver

  ==> Input File <==

--------------------------------------------------------------------------
set {
	reference rhf
	basis cc-pvtz
}

set_num_threads( 4 )
memory 2 gb

molecule MOL {
0 1

H	 2.730435	 -0.012740	 0.503488
N	 1.755882	 0.194841	 0.511563
C	 1.030757	 -0.782168	 1.298639
C	 1.239250	 0.279842	 -0.839625
H	 1.430425	 -0.793111	 2.305365
H	 1.119811	 -1.790948	 0.891146
C	 -0.438757	 -0.404296	 1.341271
H	 1.789996	 1.038456	 -1.382335
H	 1.341477	 -0.661840	 -1.382215
C	 -0.230537	 0.656322	 -0.794192
H	 -0.548312	 0.535720	 1.889868
H	 -0.992112	 -1.164746	 1.879447
N	 -0.976577	 -0.298712	 -0.000000
H	 -0.633336	 0.662766	 -1.800090
H	 -0.325747	 1.669405	 -0.392710
C	 -2.391156	 -0.021003	 -0.000000
H	 -2.853954	 -0.458728	 -0.875714
H	 -2.853954	 -0.458728	 0.875714
H	 -2.614037	 1.049773	 -0.000000

	symmetry c1
}
set optking {
	frozen_dihedral = ("
		7 13 16 19
	")
}

ee,wfn = optimize('scf', return_wfn=True)
oeprop( wfn, 'DIPOLE', 'QUADRUPOLE', 'MULLIKEN_CHARGES')
f=open( 'psi4out.xyz', 'w' )
f.write( "19  " )
f.write( str(ee) + "\n" )
f.write( MOL.save_string_xyz() )
f.close()
--------------------------------------------------------------------------

    Molecular point group: c1
  Charge       = 0
  Multiplicity = 1
  Basis Set: CC-PVTZ
  Basis Set:
  @DF-RHF Final Energy:  -305.30635085640165
    Total Energy =                       -305.3063508564016502
    Molecular point group: c1
  Basis Set: CC-PVTZ
  Basis Set:
  Basis Set: CC-PVTZ
  Basis Set:
  @DF-RHF Final Energy:  -305.30670303813315
    Total Energy =                       -305.3067030381331506
  Basis Set: CC-PVTZ
  Basis Set:
  Basis Set: CC-PVTZ
  Basis Set:
  @DF-RHF Final Energy:  -305.30675865333058
    Total Energy =                       -305.3067586533306894
  Basis Set: CC-PVTZ
  Basis Set:
  Charge       = 0
  Multiplicity = 1
  Basis Set: CC-PVTZ
  Basis Set:

    Orbital Energies (a.u.)
    -----------------------

    Doubly Occupied:

       1A    -15.534026     2A    -15.531105     3A    -11.237066
       4A    -11.236948     5A    -11.235925     6A    -11.235866
       7A    -11.233171     8A     -1.248016     9A     -1.186628
      10A     -1.024250    11A     -0.965681    12A     -0.862174
      13A     -0.858440    14A     -0.756331    15A     -0.692393
      16A     -0.634457    17A     -0.627028    18A     -0.607906
      19A     -0.605024    20A     -0.582125    21A     -0.544716
      22A     -0.530031    23A     -0.513396    24A     -0.489707
      25A     -0.469153    26A     -0.458292    27A     -0.365947
      28A     -0.342165

  @DF-RHF Final Energy:  -305.30676121023004

   => Energetics <=

    Nuclear Repulsion Energy =            340.0200623006863339
    One-Electron Energy =               -1087.4377150589023131
    Two-Electron Energy =                 442.1108915479862844
    DFT Exchange-Correlation Energy =       0.0000000000000000
    Empirical Dispersion Energy =           0.0000000000000000
    PCM Polarization Energy =               0.0000000000000000
    EFP Energy =                            0.0000000000000000
    Total Energy =                       -305.3067612102297517
    Molecular point group: c1
  Basis Set: CC-PVTZ
  Basis Set:

  -Total Gradient:
     Atom            X                  Y                   Z
    ------   -----------------  -----------------  -----------------
       1       -0.000016490524    -0.000012704966    -0.000008293257
       2       -0.000038271315     0.000015020124     0.000000831415
       3        0.000017870900     0.000034194165     0.000023096342
       4       -0.000003443467    -0.000022483030    -0.000028800712
       5        0.000059440968    -0.000010843157     0.000027976420
       6       -0.000035720028     0.000031189883     0.000007096013
       7       -0.000553531445    -0.003376810695    -0.000008500307
       8        0.000034445375     0.000006329960    -0.000004998200
       9        0.000001828958     0.000006704714     0.000002640015
      10        0.000049461449     0.000091685650     0.000009001637
      11        0.000017888906    -0.000047186145    -0.000049693402
      12       -0.000010304407     0.000005671307    -0.000028665456
      13        0.000805321192     0.004666814212    -0.001236111996
      14        0.000003141219    -0.000022811387     0.000025391269
      15       -0.000012440965    -0.000025442799    -0.000006937621
      16       -0.000518548997    -0.001339543825     0.005826443117
      17        0.000023713561    -0.000006961527    -0.000022373971
      18        0.000058867539    -0.000033712293    -0.000009737811
      19        0.000116771084     0.000040889811    -0.004518363496

  **** Optimization is complete! (in 4 steps) ****
    Final optimized geometry and variables:
    Molecular point group: c1

    Geometry (in Angstrom), charge = 0, multiplicity = 1:

    H            2.743569539555     0.025565111977     0.255296963262
    N            1.769949728417     0.237201997084     0.272060911598
    C            1.050195375360    -0.730536588004     1.075330235662
    C            1.239427826981     0.312460400935    -1.074206698511
    H            1.469319816932    -0.743978258328     2.074229730483
    H            1.121833322526    -1.740701926363     0.667382335548
    C           -0.415619804378    -0.340455256078     1.145329651565
    H            1.791626894969     1.059239778909    -1.631874706057
    H            1.326382563163    -0.636559735460    -1.606783576333
    C           -0.225876459418     0.704247864342    -1.014680217236
    H           -0.505621339507     0.592600489569     1.709956405531
    H           -0.965066457471    -1.103989445022     1.681957121310
    N           -0.967855615278    -0.219886742234    -0.187151915335
    H           -0.645603457279     0.690549274437    -2.014230111908
    H           -0.305847488228     1.728278902738    -0.637935639648
    C           -2.390799181484     0.024134846997    -0.213925809576
    H           -2.820522187529    -0.384537086883    -1.122816245277
    H           -2.874182324853    -0.455930338084     0.625593508570
    H           -2.637594273589     1.087854801319    -0.202351351403

  Mulliken Charges: (a.u.)
   Center  Symbol    Alpha    Beta     Spin     Total
       1     H     0.43994  0.43994  0.00000  0.12013
       2     N     3.64278  3.64278  0.00000 -0.28556
       3     C     3.04168  3.04168  0.00000 -0.08336
       4     C     3.04100  3.04100  0.00000 -0.08201
       5     H     0.45259  0.45259  0.00000  0.09483
       6     H     0.46596  0.46596  0.00000  0.06808
       7     C     3.03189  3.03189  0.00000 -0.06377
       8     H     0.45257  0.45257  0.00000  0.09487
       9     H     0.46580  0.46580  0.00000  0.06840
      10     C     3.03405  3.03405  0.00000 -0.06811
      11     H     0.47026  0.47026  0.00000  0.05947
      12     H     0.45434  0.45434  0.00000  0.09131
      13     N     3.61490  3.61490  0.00000 -0.22980
      14     H     0.45451  0.45451  0.00000  0.09099
      15     H     0.46833  0.46833  0.00000  0.06335
      16     C     3.09557  3.09557  0.00000 -0.19115
      17     H     0.45145  0.45145  0.00000  0.09710
      18     H     0.45416  0.45416  0.00000  0.09168
      19     H     0.46822  0.46822  0.00000  0.06356

   Total alpha = 28.00000, Total beta = 28.00000, Total charge =  0.00000

*** Psi4 exiting successfully. Buy a developer a beer!
