  ==> Input File <==

--------------------------------------------------------------------------
set {
	reference rhf
	basis 6-31G*
}

set_num_threads( 1 )
memory 2 gb

molecule MOL {
0 1

H	 3.178437	 -0.841916	 2.641256
O	 3.898617	 -0.935060	 2.034844
C	 3.681349	 -2.051094	 1.209425
C	 2.589221	 -1.826145	 0.169530
H	 4.625101	 -2.238620	 0.713602
H	 3.451631	 -2.930386	 1.810138
C	 1.198617	 -1.597615	 0.766908
H	 2.867591	 -0.973166	 -0.443906
H	 2.562507	 -2.694059	 -0.487265
C	 0.115918	 -1.429151	 -0.302766
H	 1.222818	 -0.715543	 1.400728
H	 0.937932	 -2.438663	 1.409577
C	 -1.309753	 -1.282496	 0.241564
H	 0.355324	 -0.566311	 -0.921667
H	 0.144909	 -2.292979	 -0.963570
C	 -2.037799	 -0.007733	 -0.193645
H	 -1.890610	 -2.142323	 -0.085726
H	 -1.285946	 -1.330893	 1.329189
C	 -3.489788	 0.042957	 0.286558
H	 -2.017067	 0.064384	 -1.280144
H	 -1.513726	 0.868678	 0.179924
C	 -4.216917	 1.317354	 -0.141063
H	 -4.025645	 -0.823308	 -0.095450
H	 -3.513059	 -0.038752	 1.371301
H	 -4.239342	 1.411634	 -1.223113
H	 -5.243387	 1.322503	 0.212445
H	 -3.726170	 2.201406	 0.256408

	symmetry c1
}
set optking {
	frozen_dihedral = ("
		14 10 7 4,
		10 7 4 8,
		8 4 3 2,
		10 13 16 20,
		20 16 19 22,
		4 3 2 1
	")
}

ee = energy('scf')
oeprop('DIPOLE', 'QUADRUPOLE', 'MULLIKEN_CHARGES')
f=open( 'psi4out.xyz', 'w' )
f.write( "27  " )
f.write( str(ee) + "\n" )
f.write( MOL.save_string_xyz() )
f.close()
--------------------------------------------------------------------------

    Molecular point group: c1

    Geometry (in Angstrom), charge = 0, multiplicity = 1:

       Center              X                  Y                   Z               Mass
    ------------   -----------------  -----------------  -----------------  -----------------
           H          3.081952615579     0.012825077190     2.158263597415     1.007825032070
           O          3.802132615579    -0.080318922810     1.551851597415    15.994914619560
           C          3.584864615579    -1.196352922810     0.726432597415    12.000000000000
           C          2.492736615579    -0.971403922810    -0.313462402585    12.000000000000
           H          4.528616615579    -1.383878922810     0.230609597415     1.007825032070
           H          3.355146615579    -2.075644922810     1.327145597415     1.007825032070
           C          1.102132615579    -0.742873922810     0.283915597415    12.000000000000
           H          2.771106615579    -0.118424922810    -0.926898402585     1.007825032070
           H          2.466022615579    -1.839317922810    -0.970257402585     1.007825032070
           C          0.019433615579    -0.574409922810    -0.785758402585    12.000000000000
           H          1.126333615579     0.139198077190     0.917735597415     1.007825032070
           H          0.841447615579    -1.583921922810     0.926584597415     1.007825032070
           C         -1.406237384421    -0.427754922810    -0.241428402585    12.000000000000
           H          0.258839615579     0.288430077190    -1.404659402585     1.007825032070
           H          0.048424615579    -1.438237922810    -1.446562402585     1.007825032070
           C         -2.134283384421     0.847008077190    -0.676637402585    12.000000000000
           H         -1.987094384421    -1.287581922810    -0.568718402585     1.007825032070
           H         -1.382430384421    -0.476151922810     0.846196597415     1.007825032070
           C         -3.586272384421     0.897698077190    -0.196434402585    12.000000000000
           H         -2.113551384421     0.919125077190    -1.763136402585     1.007825032070
           H         -1.610210384421     1.723419077190    -0.303068402585     1.007825032070
           C         -4.313401384421     2.172095077190    -0.624055402585    12.000000000000
           H         -4.122129384421     0.031433077190    -0.578442402585     1.007825032070
           H         -3.609543384421     0.815989077190     0.888308597415     1.007825032070
           H         -4.335826384421     2.266375077190    -1.706105402585     1.007825032070
           H         -5.339871384421     2.177244077190    -0.270547402585     1.007825032070
           H         -3.822654384421     3.056147077190    -0.226584402585     1.007825032070

  Charge       = 0
  Multiplicity = 1
  Basis Set: 6-31G*
  Basis Set:

    Orbital Energies (a.u.)
    -----------------------

    Doubly Occupied:

       1A    -20.552284     2A    -11.267067     3A    -11.220842
       4A    -11.215773     5A    -11.215442     6A    -11.214996
       7A    -11.214655     8A    -11.213968     9A    -11.208928
      10A     -1.359051    11A     -1.094030    12A     -1.062404
      13A     -1.011313    14A     -0.949959    15A     -0.884264
      16A     -0.819598    17A     -0.793578    18A     -0.788834
      19A     -0.694108    20A     -0.649036    21A     -0.641643
      22A     -0.613262    23A     -0.598948    24A     -0.585939
      25A     -0.577625    26A     -0.551037    27A     -0.544567
      28A     -0.523534    29A     -0.508602    30A     -0.488565
      31A     -0.484857    32A     -0.475588    33A     -0.470279
      34A     -0.461729    35A     -0.452142    36A     -0.442413
      37A     -0.420858

  @DF-RHF Final Energy:  -388.27748760316501

   => Energetics <=

    Nuclear Repulsion Energy =            453.0626919461370790
    One-Electron Energy =               -1424.1368296948435272
    Two-Electron Energy =                 582.7966501455399566
    DFT Exchange-Correlation Energy =       0.0000000000000000
    Empirical Dispersion Energy =           0.0000000000000000
    PCM Polarization Energy =               0.0000000000000000
    EFP Energy =                            0.0000000000000000
    Total Energy =                       -388.2774876031664917

  Mulliken Charges: (a.u.)
   Center  Symbol    Alpha    Beta     Spin     Total
       1     H     0.27999  0.27999  0.00000  0.44003
       2     O     4.37095  4.37095  0.00000 -0.74190
       3     C     2.99735  2.99735  0.00000  0.00530
       4     C     3.16209  3.16209  0.00000 -0.32418
       5     H     0.41442  0.41442  0.00000  0.17115
       6     H     0.43204  0.43204  0.00000  0.13592
       7     C     3.16337  3.16337  0.00000 -0.32675
       8     H     0.41481  0.41481  0.00000  0.17038
       9     H     0.42414  0.42414  0.00000  0.15172
      10     C     3.15357  3.15357  0.00000 -0.30713
      11     H     0.42457  0.42457  0.00000  0.15086
      12     H     0.42449  0.42449  0.00000  0.15103
      13     C     3.15521  3.15521  0.00000 -0.31042
      14     H     0.41864  0.41864  0.00000  0.16271
      15     H     0.42108  0.42108  0.00000  0.15784
      16     C     3.15265  3.15265  0.00000 -0.30530
      17     H     0.42126  0.42126  0.00000  0.15747
      18     H     0.42212  0.42212  0.00000  0.15575
      19     C     3.15222  3.15222  0.00000 -0.30445
      20     H     0.42328  0.42328  0.00000  0.15345
      21     H     0.42332  0.42332  0.00000  0.15337
      22     C     3.23926  3.23926  0.00000 -0.47851
      23     H     0.42305  0.42305  0.00000  0.15391
      24     H     0.42329  0.42329  0.00000  0.15341
      25     H     0.42169  0.42169  0.00000  0.15663
      26     H     0.41934  0.41934  0.00000  0.16131
      27     H     0.42180  0.42180  0.00000  0.15641

   Total alpha = 37.00000, Total beta = 37.00000, Total charge =  0.00000
