  ==> Input File <==

--------------------------------------------------------------------------
set {
	reference rhf
	basis 6-31G*
}

set_num_threads( 4 )
memory 2 gb

molecule MOL {
0 1

H	 -1.936758	 0.342549	 2.792259
C	 -2.462269	 -0.172095	 1.978256
C	 -2.575420	 0.612796	 0.696166
O	 -2.893455	 -1.266816	 2.143829
C	 -1.220012	 1.144545	 0.209990
H	 -3.047495	 -0.016303	 -0.049548
H	 -3.239974	 1.453152	 0.893207
C	 -0.252658	 0.041456	 -0.226725
H	 -1.394227	 1.821420	 -0.621138
H	 -0.763391	 1.742932	 0.996874
C	 1.180775	 0.282413	 0.250794
H	 -0.266029	 -0.034465	 -1.312038
H	 -0.597733	 -0.921000	 0.146291
C	 2.148627	 -0.814315	 -0.201312
H	 1.516199	 1.249228	 -0.115937
H	 1.192670	 0.346017	 1.338083
C	 3.580890	 -0.659131	 0.322722
H	 2.166869	 -0.852443	 -1.289387
H	 1.762857	 -1.776509	 0.128956
C	 4.324889	 0.564933	 -0.213704
H	 4.142010	 -1.551473	 0.056605
H	 3.564836	 -0.624694	 1.410140
H	 4.342616	 0.565491	 -1.300421
H	 3.866655	 1.493402	 0.110242
H	 5.353900	 0.572371	 0.132816

	symmetry c1
}
set optking {
	frozen_dihedral = ("
		3 5 8 12
	")
}

ee = optimize('scf')
oeprop('DIPOLE', 'QUADRUPOLE', 'MULLIKEN_CHARGES')
f=open( 'psi4out.xyz', 'w' )
f.write( "25  " )
f.write( str(ee) + "\n" )
f.write( MOL.save_string_xyz() )
f.close()
--------------------------------------------------------------------------

    Molecular point group: c1
  Charge       = 0
  Multiplicity = 1
  Basis Set: 6-31G*
  Basis Set:
  @DF-RHF Final Energy:  -387.11761920371566
    Total Energy =                       -387.1176192037155488
    Molecular point group: c1
  Basis Set: 6-31G*
  Basis Set:
  Basis Set: 6-31G*
  Basis Set:
  @DF-RHF Final Energy:  -387.11769233756223
    Total Energy =                       -387.1176923375625165
  Basis Set: 6-31G*
  Basis Set:
  Basis Set: 6-31G*
  Basis Set:
  @DF-RHF Final Energy:  -387.11778055926908
    Total Energy =                       -387.1177805592692494
  Basis Set: 6-31G*
  Basis Set:
  Basis Set: 6-31G*
  Basis Set:
  @DF-RHF Final Energy:  -387.11789220737637
    Total Energy =                       -387.1178922073759168
  Basis Set: 6-31G*
  Basis Set:
  @DF-RHF Final Energy:  -387.11795403301710
    Total Energy =                       -387.1179540330168720
  @DF-RHF Final Energy:  -387.11796880191133
    Total Energy =                       -387.1179688019111609
  @DF-RHF Final Energy:  -387.11797280517925
    Total Energy =                       -387.1179728051790789
  @DF-RHF Final Energy:  -387.11797636279408
    Total Energy =                       -387.1179763627937973
  @DF-RHF Final Energy:  -387.11798180087254
    Total Energy =                       -387.1179818008727125
  Basis Set: 6-31G*
  Basis Set:
  @DF-RHF Final Energy:  -387.11797626071530
    Total Energy =                       -387.1179762607158636
  Basis Set: 6-31G*
  Basis Set:
  Basis Set: 6-31G*
  Basis Set:
  @DF-RHF Final Energy:  -387.11774640895510
    Total Energy =                       -387.1177464089554405
  Basis Set: 6-31G*
  Basis Set:
  Basis Set: 6-31G*
  Basis Set:
  @DF-RHF Final Energy:  -387.11798338168882
    Total Energy =                       -387.1179833816885321
  Basis Set: 6-31G*
  Basis Set:
  Charge       = 0
  Multiplicity = 1
  Basis Set: 6-31G*
  Basis Set:

    Orbital Energies (a.u.)
    -----------------------

    Doubly Occupied:

       1A    -20.563406     2A    -11.326729     3A    -11.235340
       4A    -11.234733     5A    -11.222017     6A    -11.218944
       7A    -11.216935     8A    -11.215607     9A    -11.209942
      10A     -1.402971    11A     -1.101704    12A     -1.068465
      13A     -1.012291    14A     -0.941224    15A     -0.875513
      16A     -0.818284    17A     -0.789371    18A     -0.779699
      19A     -0.666885    20A     -0.658314    21A     -0.637107
      22A     -0.619788    23A     -0.609098    24A     -0.583522
      25A     -0.573299    26A     -0.557198    27A     -0.533583
      28A     -0.520493    29A     -0.510187    30A     -0.498309
      31A     -0.486526    32A     -0.476857    33A     -0.462703
      34A     -0.457592    35A     -0.440002    36A     -0.410323

  @DF-RHF Final Energy:  -387.11798398359690

   => Energetics <=

    Nuclear Repulsion Energy =            443.1482431951434364
    One-Electron Energy =               -1402.6625321659601013
    Two-Electron Energy =                 572.3963049872196507
    DFT Exchange-Correlation Energy =       0.0000000000000000
    Empirical Dispersion Energy =           0.0000000000000000
    PCM Polarization Energy =               0.0000000000000000
    EFP Energy =                            0.0000000000000000
    Total Energy =                       -387.1179839835970142
    Molecular point group: c1
  Basis Set: 6-31G*
  Basis Set:

  -Total Gradient:
     Atom            X                  Y                   Z
    ------   -----------------  -----------------  -----------------
       1        0.000019805272    -0.000009503649    -0.000008806039
       2       -0.000053806508     0.000008575546     0.000004251410
       3        0.000838717222    -0.000106685165     0.002194750134
       4        0.000016752113    -0.000017666697     0.000007373708
       5       -0.000504983187     0.000675854338    -0.003014581532
       6        0.000000451249     0.000003868794     0.000008300863
       7       -0.000023172013    -0.000001203857    -0.000002423893
       8       -0.002717696252    -0.002734874435     0.001029172760
       9       -0.000055336032    -0.000034427917    -0.000022082830
      10       -0.000007670648     0.000047939585    -0.000044524332
      11        0.000016006221    -0.000035579650     0.000009535971
      12        0.002465163148     0.002199001711    -0.000146231535
      13        0.000000009110    -0.000002044421    -0.000013227986
      14        0.000012006465     0.000007164881    -0.000011092680
      15       -0.000001456055    -0.000020987251    -0.000006367843
      16       -0.000007925117     0.000016851803     0.000010205073
      17       -0.000004862209     0.000002084234     0.000015640193
      18        0.000000028826    -0.000006680832    -0.000008452541
      19       -0.000007837277     0.000010538765     0.000000780508
      20        0.000005147780    -0.000002172159    -0.000005728399
      21        0.000003338910     0.000007187204     0.000001698887
      22        0.000000192628    -0.000004405555     0.000004368778
      23       -0.000001545606     0.000003203905    -0.000001171073
      24        0.000007492840    -0.000006537321     0.000002063451
      25        0.000001179123     0.000000498144    -0.000003451053

  **** Optimization is complete! (in 13 steps) ****
    Final optimized geometry and variables:
    Molecular point group: c1

    Geometry (in Angstrom), charge = 0, multiplicity = 1:

    H           -2.308429865451     0.486237613202     2.271087425023
    C           -2.712670013758    -0.094430668674     1.432755303563
    C           -2.814938013665     0.655118324994     0.129411216364
    O           -3.026313222561    -1.230030762270     1.589775190860
    C           -1.444980045346     1.170332532384    -0.340640559686
    H           -3.268301824391     0.002131812283    -0.607507410812
    H           -3.482479730201     1.500451477304     0.288882572237
    C           -0.472422749500     0.050189828767    -0.764764906909
    H           -1.594698183318     1.864956801363    -1.160065388913
    H           -1.003868508492     1.754438166778     0.465007050062
    C            0.966965773099     0.299146708404    -0.302825599241
    H           -0.470263944034    -0.029035570594    -1.848746145386
    H           -0.808891817710    -0.909391025152    -0.382524949855
    C            1.938013336969    -0.783566255812    -0.779405885620
    H            1.288806327480     1.274110983676    -0.660911100965
    H            0.991168771745     0.349537868241     0.785042029232
    C            3.371383938896    -0.632932602663    -0.257088066870
    H            1.953493654481    -0.799261612719    -1.868153500750
    H            1.556966148031    -1.753767325295    -0.467733629842
    C            4.106467109759     0.608223929444    -0.766497322761
    H            3.936528653135    -1.515594844312    -0.545777867412
    H            3.358428896050    -0.624552089967     0.830891672939
    H            4.123528017914     0.633243436416    -1.852864864712
    H            3.642098182119     1.526210691983    -0.421654816278
    H            5.135590663283     0.615304398710    -0.420831872543

  Mulliken Charges: (a.u.)
   Center  Symbol    Alpha    Beta     Spin     Total
       1     H     0.43198  0.43198  0.00000  0.13604
       2     C     2.83103  2.83103  0.00000  0.33795
       3     C     3.20726  3.20726  0.00000 -0.41453
       4     O     4.23773  4.23773  0.00000 -0.47546
       5     C     3.16863  3.16863  0.00000 -0.33725
       6     H     0.39989  0.39989  0.00000  0.20021
       7     H     0.40932  0.40932  0.00000  0.18135
       8     C     3.16050  3.16050  0.00000 -0.32101
       9     H     0.41026  0.41026  0.00000  0.17948
      10     H     0.41821  0.41821  0.00000  0.16357
      11     C     3.15596  3.15596  0.00000 -0.31192
      12     H     0.41750  0.41750  0.00000  0.16499
      13     H     0.41068  0.41068  0.00000  0.17864
      14     C     3.15376  3.15376  0.00000 -0.30752
      15     H     0.42101  0.42101  0.00000  0.15799
      16     H     0.42434  0.42434  0.00000  0.15132
      17     C     3.15265  3.15265  0.00000 -0.30531
      18     H     0.42394  0.42394  0.00000  0.15212
      19     H     0.41941  0.41941  0.00000  0.16118
      20     C     3.24127  3.24127  0.00000 -0.48254
      21     H     0.42007  0.42007  0.00000  0.15987
      22     H     0.42281  0.42281  0.00000  0.15437
      23     H     0.42224  0.42224  0.00000  0.15553
      24     H     0.42081  0.42081  0.00000  0.15839
      25     H     0.41874  0.41874  0.00000  0.16252

   Total alpha = 36.00000, Total beta = 36.00000, Total charge = -0.00000
