                              Psi4 1.0.54 Driver

  ==> Input File <==

--------------------------------------------------------------------------
set {
	reference rhf
	basis cc-pvtz
}

set_num_threads( 4 )
memory 2 gb

molecule MOL {
0 1

H	 2.646708	 0.758099	 0.000000
O	 2.258158	 -0.097743	 0.000000
C	 0.911162	 -0.015915	 0.000000
C	 0.201889	 -1.129136	 -0.420087
C	 0.238673	 1.123743	 0.399197
H	 0.740192	 -2.004371	 -0.726180
C	 -1.175567	 -1.091600	 -0.436851
H	 0.788981	 1.987751	 0.725237
C	 -1.144594	 1.147164	 0.377177
H	 -1.719996	 -1.957271	 -0.763365
C	 -1.860710	 0.044560	 -0.039204
H	 -1.658979	 2.036316	 0.688854
H	 -2.932706	 0.066250	 -0.054983

	symmetry c1
}
set optking {
	frozen_dihedral = ("
		4 3 2 1
	")
}

ee,wfn = optimize('scf', return_wfn=True)
oeprop( wfn, 'DIPOLE', 'QUADRUPOLE', 'MULLIKEN_CHARGES')
f=open( 'psi4out.xyz', 'w' )
f.write( "13  " )
f.write( str(ee) + "\n" )
f.write( MOL.save_string_xyz() )
f.close()
--------------------------------------------------------------------------

    Molecular point group: c1
  Charge       = 0
  Multiplicity = 1
  Basis Set: CC-PVTZ
  Basis Set:
  @DF-RHF Final Energy:  -305.66996992828280
    Total Energy =                       -305.6699699282828533
    Molecular point group: c1
  Basis Set: CC-PVTZ
  Basis Set:
  Basis Set: CC-PVTZ
  Basis Set:
  @DF-RHF Final Energy:  -305.66998491168681
    Total Energy =                       -305.6699849116867540
  Basis Set: CC-PVTZ
  Basis Set:
  Charge       = 0
  Multiplicity = 1
  Basis Set: CC-PVTZ
  Basis Set:

    Orbital Energies (a.u.)
    -----------------------

    Doubly Occupied:

       1A    -20.583355     2A    -11.296683     3A    -11.235109
       4A    -11.233392     5A    -11.226156     6A    -11.220943
       7A    -11.220126     8A     -1.413687     9A     -1.152730
      10A     -1.022743    11A     -1.008390    12A     -0.850113
      13A     -0.826861    14A     -0.741375    15A     -0.687977
      16A     -0.654428    17A     -0.615437    18A     -0.598168
      19A     -0.591841    20A     -0.560618    21A     -0.517538
      22A     -0.493904    23A     -0.484025    24A     -0.343086
      25A     -0.316187

  @DF-RHF Final Energy:  -305.66998813588435

   => Energetics <=

    Nuclear Repulsion Energy =            273.7820358263053890
    One-Electron Energy =                -957.1143021275166802
    Two-Electron Energy =                 377.6622781653267111
    DFT Exchange-Correlation Energy =       0.0000000000000000
    Empirical Dispersion Energy =           0.0000000000000000
    PCM Polarization Energy =               0.0000000000000000
    EFP Energy =                            0.0000000000000000
    Total Energy =                       -305.6699881358846369
    Molecular point group: c1
  Basis Set: CC-PVTZ
  Basis Set:

  -Total Gradient:
     Atom            X                  Y                   Z
    ------   -----------------  -----------------  -----------------
       1        0.000041829566     0.000005799242    -0.001864876438
       2       -0.000087253279     0.000241064842     0.001739797257
       3        0.000117404893    -0.000506616442     0.001515648915
       4       -0.000249466995     0.000364867152    -0.001267381859
       5        0.000165241545    -0.000064923061    -0.000143292615
       6        0.000019369710     0.000014981841    -0.000020138634
       7        0.000188753197    -0.000113696268    -0.000080409558
       8       -0.000013719185    -0.000015368302     0.000024347230
       9       -0.000183738426    -0.000125753257     0.000004522850
      10       -0.000012143310    -0.000008168640     0.000006082147
      11       -0.000004550091     0.000193588975     0.000101576770
      12        0.000013662306     0.000022255277    -0.000007363481
      13        0.000004610071    -0.000008031358    -0.000008512584

  **** Optimization is complete! (in 3 steps) ****
    Final optimized geometry and variables:
    Molecular point group: c1

    Geometry (in Angstrom), charge = 0, multiplicity = 1:

    H            2.647817721291     0.751405952527     0.039668134324
    O            2.259152114443    -0.104467741699     0.033464754802
    C            0.910353153714    -0.021269259977     0.019764516111
    C            0.201168294924    -1.130177890186    -0.409642334630
    C            0.238444420439     1.119247997993     0.417854464022
    H            0.739357755524    -2.003545438773    -0.721364560800
    C           -1.176873055209    -1.092624852907    -0.426813689029
    H            0.790060568688     1.977683822022     0.755510784319
    C           -1.144288748238     1.146425039132     0.387961354969
    H           -1.721579315215    -1.956232512283    -0.758336693157
    C           -1.860698425473     0.044288371146    -0.030666442693
    H           -1.658495686123     2.036224678635     0.698146484243
    H           -2.932663533709     0.067908509203    -0.050099052454

  Mulliken Charges: (a.u.)
   Center  Symbol    Alpha    Beta     Spin     Total
       1     H     0.38658  0.38658  0.00000  0.22683
       2     O     4.17738  4.17738  0.00000 -0.35477
       3     C     2.85362  2.85362  0.00000  0.29276
       4     C     3.11032  3.11032  0.00000 -0.22065
       5     C     3.13163  3.13163  0.00000 -0.26326
       6     H     0.41895  0.41895  0.00000  0.16209
       7     C     3.05767  3.05767  0.00000 -0.11535
       8     H     0.43272  0.43272  0.00000  0.13456
       9     C     3.06530  3.06530  0.00000 -0.13059
      10     H     0.42234  0.42234  0.00000  0.15533
      11     C     3.09728  3.09728  0.00000 -0.19456
      12     H     0.42236  0.42236  0.00000  0.15527
      13     H     0.42383  0.42383  0.00000  0.15234

   Total alpha = 25.00000, Total beta = 25.00000, Total charge =  0.00000

*** Psi4 exiting successfully. Buy a developer a beer!
