  ==> Input File <==

--------------------------------------------------------------------------
set {
	reference rhf
	basis cc-pvtz
}

set_num_threads( 4 )
memory 2 gb

molecule MOL {
0 1

H	 2.285438	 -1.096544	 -0.739138
N	 2.433987	 -0.362316	 -0.080024
C	 1.263552	 0.494993	 0.021953
H	 3.229277	 0.155812	 -0.390499
C	 -0.016533	 -0.325589	 -0.026925
H	 1.280915	 1.180773	 -0.818522
H	 1.263064	 1.106893	 0.925038
C	 -1.280353	 0.525521	 0.047747
H	 -0.016686	 -0.912532	 -0.939714
H	 -0.014099	 -1.037598	 0.796369
C	 -2.560681	 -0.301323	 -0.007747
H	 -1.279957	 1.241025	 -0.770189
H	 -1.270445	 1.110526	 0.963468
H	 -2.617064	 -0.872870	 -0.928010
H	 -3.439525	 0.331102	 0.043462
H	 -2.609427	 -1.002736	 0.818585

	symmetry c1
}
set optking {
	frozen_dihedral = ("
		1 2 3 6
	")
}

ee = optimize('scf')
oeprop('DIPOLE', 'QUADRUPOLE', 'MULLIKEN_CHARGES')
f=open( 'psi4out.xyz', 'w' )
f.write( "16  " )
f.write( str(ee) + "\n" )
f.write( MOL.save_string_xyz() )
f.close()
--------------------------------------------------------------------------

    Molecular point group: c1
  Charge       = 0
  Multiplicity = 1
  Basis Set: CC-PVTZ
  Basis Set:
  @DF-RHF Final Energy:  -212.39748785615632
    Total Energy =                       -212.3974878561563173
    Molecular point group: c1
  Basis Set: CC-PVTZ
  Basis Set:
  Basis Set: CC-PVTZ
  Basis Set:
  @DF-RHF Final Energy:  -212.39919288459569
    Total Energy =                       -212.3991928845957773
  Basis Set: CC-PVTZ
  Basis Set:
  Basis Set: CC-PVTZ
  Basis Set:
  @DF-RHF Final Energy:  -212.39939925309827
    Total Energy =                       -212.3993992530984087
  Basis Set: CC-PVTZ
  Basis Set:
  Basis Set: CC-PVTZ
  Basis Set:
  @DF-RHF Final Energy:  -212.39940321741278
    Total Energy =                       -212.3994032174128961
  Basis Set: CC-PVTZ
  Basis Set:
  Charge       = 0
  Multiplicity = 1
  Basis Set: CC-PVTZ
  Basis Set:

    Orbital Energies (a.u.)
    -----------------------

    Doubly Occupied:

       1A    -15.524580     2A    -11.237538     3A    -11.214388
       4A    -11.211100     5A    -11.207028     6A     -1.177061
       7A     -1.062090     8A     -0.960408     9A     -0.845260
      10A     -0.795377    11A     -0.657421    12A     -0.648032
      13A     -0.602905    14A     -0.576648    15A     -0.571751
      16A     -0.522845    17A     -0.505927    18A     -0.471477
      19A     -0.466925    20A     -0.462575    21A     -0.380893

  @DF-RHF Final Energy:  -212.39940367256594

   => Energetics <=

    Nuclear Repulsion Energy =            186.6914316728939411
    One-Electron Energy =                -655.9772115789829741
    Two-Electron Energy =                 256.8863762335229808
    DFT Exchange-Correlation Energy =       0.0000000000000000
    Empirical Dispersion Energy =           0.0000000000000000
    PCM Polarization Energy =               0.0000000000000000
    EFP Energy =                            0.0000000000000000
    Total Energy =                       -212.3994036725660521
    Molecular point group: c1
  Basis Set: CC-PVTZ
  Basis Set:

  -Total Gradient:
     Atom            X                  Y                   Z
    ------   -----------------  -----------------  -----------------
       1       -0.001070696318    -0.001471382212     0.001834754324
       2        0.001714989632     0.002295895671    -0.001884548487
       3       -0.001859990324    -0.002419351540    -0.001330329501
       4        0.000005990349    -0.000003589721    -0.000007207799
       5        0.000048061277     0.000033274645     0.000001840054
       6        0.001182883513     0.001553981340     0.001372575252
       7        0.000000607729    -0.000004864688     0.000012553967
       8       -0.000022083370    -0.000006988317    -0.000000941422
       9        0.000007981841     0.000011337353     0.000007427380
      10        0.000006853197     0.000019114054    -0.000010495685
      11       -0.000018409113     0.000008342884     0.000007178356
      12        0.000010428573    -0.000007220102     0.000000023371
      13        0.000000889126    -0.000005768534    -0.000002758717
      14        0.000002593283     0.000001977842     0.000000350627
      15       -0.000008568852    -0.000004012780    -0.000000352102
      16       -0.000001530543    -0.000000745896    -0.000000069617

  **** Optimization is complete! (in 5 steps) ****
    Final optimized geometry and variables:
    Molecular point group: c1

    Geometry (in Angstrom), charge = 0, multiplicity = 1:

    H            2.334962104104    -1.100331686810    -0.684499190040
    N            2.437613717639    -0.361934859906    -0.021556406388
    C            1.264782932299     0.497885679887    -0.001149879728
    H            3.267628471944     0.143076900515    -0.243796710219
    C           -0.014950863667    -0.322123964380    -0.028367364762
    H            1.257190620855     1.219994628990    -0.818173008906
    H            1.291892186614     1.080520465818     0.914723533124
    C           -1.277580605714     0.528112787039     0.070963149568
    H           -0.046306874205    -0.904052768071    -0.947755459308
    H            0.013483453120    -1.036414554381     0.788971651401
    C           -2.557949684486    -0.299809976651     0.038636298183
    H           -1.294232128814     1.247232349530    -0.743365817778
    H           -1.247982214691     1.107767837267     0.989257623414
    H           -2.635121595670    -0.865472077439    -0.883996022310
    H           -3.435747243923     0.331669005478     0.113280615571
    H           -2.587359839166    -1.006267470042     0.861339971100

  Mulliken Charges: (a.u.)
   Center  Symbol    Alpha    Beta     Spin     Total
       1     H     0.43026  0.43026  0.00000  0.13949
       2     N     3.69184  3.69184  0.00000 -0.38368
       3     C     3.01849  3.01849  0.00000 -0.03698
       4     H     0.42992  0.42992  0.00000  0.14017
       5     C     3.08469  3.08469  0.00000 -0.16937
       6     H     0.46972  0.46972  0.00000  0.06056
       7     H     0.46005  0.46005  0.00000  0.07991
       8     C     3.08830  3.08830  0.00000 -0.17660
       9     H     0.46112  0.46112  0.00000  0.07777
      10     H     0.44881  0.44881  0.00000  0.10239
      11     C     3.14915  3.14915  0.00000 -0.29830
      12     H     0.45578  0.45578  0.00000  0.08843
      13     H     0.45361  0.45361  0.00000  0.09279
      14     H     0.45552  0.45552  0.00000  0.08895
      15     H     0.44854  0.44854  0.00000  0.10292
      16     H     0.45422  0.45422  0.00000  0.09156

   Total alpha = 21.00000, Total beta = 21.00000, Total charge =  0.00000
