  ==> Input File <==

--------------------------------------------------------------------------
set {
	reference rhf
	basis 6-31G*
}

set_num_threads( 1 )
memory 2 gb

molecule MOL {
0 1

O	 2.257823	 0.547558	 -0.958059
C	 1.705091	 0.115954	 0.001797
C	 0.381791	 -0.609817	 0.001258
O	 2.197465	 0.216794	 1.230021
C	 -0.823008	 0.326187	 0.001381
H	 0.371250	 -1.265087	 -0.865474
H	 0.370908	 -1.265746	 0.867490
C	 -2.149452	 -0.435131	 -0.000098
H	 -0.770201	 0.977095	 -0.865636
H	 -0.771220	 0.975655	 0.869608
C	 -3.368779	 0.488503	 -0.000883
H	 -2.193746	 -1.087250	 -0.871175
H	 -2.195311	 -1.087803	 0.870418
C	 -4.693822	 -0.272754	 -0.001129
H	 -3.325798	 1.139422	 -0.871284
H	 -3.326423	 1.139959	 0.869145
H	 -4.781274	 -0.907928	 -0.878124
H	 -5.538651	 0.408946	 -0.001420
H	 -4.781694	 -0.907783	 0.875984
C	 3.441797	 0.877575	 1.371309
H	 4.210619	 0.363616	 0.812484
H	 3.668841	 0.856952	 2.425777
H	 3.371913	 1.898078	 1.023175

	symmetry c1
}
set optking {
	frozen_dihedral = ("
		15 11 8 12,
		9 5 8 12,
		9 5 3 6,
		1 2 4 20
	")
}

ee = energy('scf')
oeprop('DIPOLE', 'QUADRUPOLE', 'MULLIKEN_CHARGES')
f=open( 'psi4out.xyz', 'w' )
f.write( "23  " )
f.write( str(ee) + "\n" )
f.write( MOL.save_string_xyz() )
f.close()
--------------------------------------------------------------------------

    Molecular point group: c1

    Geometry (in Angstrom), charge = 0, multiplicity = 1:

       Center              X                  Y                   Z               Mass
    ------------   -----------------  -----------------  -----------------  -----------------
           O          2.339515939439     0.398750500676    -1.151203189013    15.994914619560
           C          1.786783939439    -0.032853499324    -0.191347189013    12.000000000000
           C          0.463483939439    -0.758624499324    -0.191886189013    12.000000000000
           O          2.279157939439     0.067986500676     1.036876810987    15.994914619560
           C         -0.741315060561     0.177379500676    -0.191763189013    12.000000000000
           H          0.452942939439    -1.413894499324    -1.058618189013     1.007825032070
           H          0.452600939439    -1.414553499324     0.674345810987     1.007825032070
           C         -2.067759060561    -0.583938499324    -0.193242189013    12.000000000000
           H         -0.688508060561     0.828287500676    -1.058780189013     1.007825032070
           H         -0.689527060561     0.826847500676     0.676463810987     1.007825032070
           C         -3.287086060561     0.339695500676    -0.194027189013    12.000000000000
           H         -2.112053060561    -1.236057499324    -1.064319189013     1.007825032070
           H         -2.113618060561    -1.236610499324     0.677273810987     1.007825032070
           C         -4.612129060561    -0.421561499324    -0.194273189013    12.000000000000
           H         -3.244105060561     0.990614500676    -1.064428189013     1.007825032070
           H         -3.244730060561     0.991151500676     0.676000810987     1.007825032070
           H         -4.699581060561    -1.056735499324    -1.071268189013     1.007825032070
           H         -5.456958060561     0.260138500676    -0.194564189013     1.007825032070
           H         -4.700001060561    -1.056590499324     0.682839810987     1.007825032070
           C          3.523489939439     0.728767500676     1.178164810987    12.000000000000
           H          4.292311939439     0.214808500676     0.619339810987     1.007825032070
           H          3.750533939439     0.708144500676     2.232632810987     1.007825032070
           H          3.453605939439     1.749270500676     0.830030810987     1.007825032070

  Charge       = 0
  Multiplicity = 1
  Basis Set: 6-31G*
  Basis Set:

    Orbital Energies (a.u.)
    -----------------------

    Doubly Occupied:

       1A    -20.604244     2A    -20.543130     3A    -11.370840
       4A    -11.280137     5A    -11.233187     6A    -11.229413
       7A    -11.222308     8A    -11.220015     9A    -11.212160
      10A     -1.468579    11A     -1.361203    12A     -1.097612
      13A     -1.045643    14A     -0.986132    15A     -0.933926
      16A     -0.847795    17A     -0.799257    18A     -0.772201
      19A     -0.693493    20A     -0.679743    21A     -0.672508
      22A     -0.653075    23A     -0.605689    24A     -0.596632
      25A     -0.580228    26A     -0.572020    27A     -0.539256
      28A     -0.535300    29A     -0.523895    30A     -0.508039
      31A     -0.489732    32A     -0.476730    33A     -0.470186
      34A     -0.467156    35A     -0.453358    36A     -0.428446

  @DF-RHF Final Energy:  -422.97403753491199

   => Energetics <=

    Nuclear Repulsion Energy =            453.3181287277166120
    One-Electron Energy =               -1474.2376081877384877
    Two-Electron Energy =                 597.9454419251101172
    DFT Exchange-Correlation Energy =       0.0000000000000000
    Empirical Dispersion Energy =           0.0000000000000000
    PCM Polarization Energy =               0.0000000000000000
    EFP Energy =                            0.0000000000000000
    Total Energy =                       -422.9740375349117585

  Mulliken Charges: (a.u.)
   Center  Symbol    Alpha    Beta     Spin     Total
       1     O     4.28506  4.28506  0.00000 -0.57011
       2     C     2.61623  2.61623  0.00000  0.76755
       3     C     3.19679  3.19679  0.00000 -0.39359
       4     O     4.30234  4.30234  0.00000 -0.60468
       5     C     3.16312  3.16312  0.00000 -0.32623
       6     H     0.40167  0.40167  0.00000  0.19666
       7     H     0.40323  0.40323  0.00000  0.19355
       8     C     3.15274  3.15274  0.00000 -0.30549
       9     H     0.40824  0.40824  0.00000  0.18351
      10     H     0.41345  0.41345  0.00000  0.17309
      11     C     3.15260  3.15260  0.00000 -0.30521
      12     H     0.42068  0.42068  0.00000  0.15863
      13     H     0.42151  0.42151  0.00000  0.15699
      14     C     3.23991  3.23991  0.00000 -0.47982
      15     H     0.42084  0.42084  0.00000  0.15833
      16     H     0.42183  0.42183  0.00000  0.15634
      17     H     0.42090  0.42090  0.00000  0.15820
      18     H     0.41801  0.41801  0.00000  0.16398
      19     H     0.42132  0.42132  0.00000  0.15736
      20     C     3.09291  3.09291  0.00000 -0.18583
      21     H     0.40871  0.40871  0.00000  0.18257
      22     H     0.40878  0.40878  0.00000  0.18244
      23     H     0.40913  0.40913  0.00000  0.18173

   Total alpha = 36.00000, Total beta = 36.00000, Total charge = -0.00000
