                              Psi4 1.0.54 Driver

  ==> Input File <==

--------------------------------------------------------------------------
set {
	reference rhf
	basis cc-pvtz
}

set_num_threads( 4 )
memory 2 gb

molecule MOL {
0 1

H	 -2.002195	 0.019191	 -2.726409
N	 -1.054841	 -0.093088	 -2.434890
C	 -0.919027	 -1.216264	 -1.525950
H	 -0.777181	 0.750421	 -1.979485
C	 0.518230	 -1.369505	 -1.083845
H	 -1.544565	 -1.133277	 -0.638053
H	 -1.211737	 -2.121471	 -2.046498
O	 0.881195	 -0.248324	 -0.336237
H	 0.625718	 -2.271016	 -0.482267
H	 1.160937	 -1.463168	 -1.956246
C	 2.208068	 -0.234417	 0.074171
H	 2.725499	 -1.027054	 -0.446768
H	 2.688377	 0.712084	 -0.164856
H	 2.295137	 -0.403407	 1.144883

	symmetry c1
}
set optking {
	frozen_dihedral = ("
		5 8 11 13
	")
}

ee,wfn = optimize('scf', return_wfn=True)
oeprop( wfn, 'DIPOLE', 'QUADRUPOLE', 'MULLIKEN_CHARGES')
f=open( 'psi4out.xyz', 'w' )
f.write( "14  " )
f.write( str(ee) + "\n" )
f.write( MOL.save_string_xyz() )
f.close()
--------------------------------------------------------------------------

    Molecular point group: c1
  Charge       = 0
  Multiplicity = 1
  Basis Set: CC-PVTZ
  Basis Set:
  @DF-RHF Final Energy:  -248.22184107297474
    Total Energy =                       -248.2218410729747688
    Molecular point group: c1
  Basis Set: CC-PVTZ
  Basis Set:
  Basis Set: CC-PVTZ
  Basis Set:
  @DF-RHF Final Energy:  -248.22257707382454
    Total Energy =                       -248.2225770738245956
  Basis Set: CC-PVTZ
  Basis Set:
  Basis Set: CC-PVTZ
  Basis Set:
  @DF-RHF Final Energy:  -248.22282755044145
    Total Energy =                       -248.2228275504414796
  Basis Set: CC-PVTZ
  Basis Set:
  Charge       = 0
  Multiplicity = 1
  Basis Set: CC-PVTZ
  Basis Set:

    Orbital Energies (a.u.)
    -----------------------

    Doubly Occupied:

       1A    -20.547458     2A    -15.523088     3A    -11.264434
       4A    -11.263238     5A    -11.239375     6A     -1.380083
       7A     -1.175534     8A     -1.000445     9A     -0.907879
      10A     -0.815398    11A     -0.683843    12A     -0.673797
      13A     -0.645173    14A     -0.611519    15A     -0.607749
      16A     -0.540231    17A     -0.536008    18A     -0.497007
      19A     -0.473317    20A     -0.415263    21A     -0.383493

  @DF-RHF Final Energy:  -248.22282970602765

   => Energetics <=

    Nuclear Repulsion Energy =            194.4400239236943548
    One-Electron Energy =                -722.9570492224190730
    Two-Electron Energy =                 280.2941955926970650
    DFT Exchange-Correlation Energy =       0.0000000000000000
    Empirical Dispersion Energy =           0.0000000000000000
    PCM Polarization Energy =               0.0000000000000000
    EFP Energy =                            0.0000000000000000
    Total Energy =                       -248.2228297060277100
    Molecular point group: c1
  Basis Set: CC-PVTZ
  Basis Set:

  -Total Gradient:
     Atom            X                  Y                   Z
    ------   -----------------  -----------------  -----------------
       1        0.000002776237    -0.000011645314     0.000006958488
       2        0.000008579823    -0.000006059395     0.000010097935
       3       -0.000021357666     0.000002371766    -0.000007825699
       4        0.000003190075    -0.000005718025     0.000001856271
       5        0.000262858213     0.000533111193    -0.001001480427
       6        0.000010515634     0.000004493416    -0.000007463545
       7       -0.000015913513    -0.000006367562    -0.000015286547
       8       -0.000158995630    -0.000875308962     0.001141568365
       9        0.000008980925     0.000033309762     0.000002853597
      10        0.000015818794     0.000021914639     0.000014172079
      11       -0.000578817279     0.000805543141     0.001081254191
      12        0.000045206526    -0.000007526498    -0.000002225401
      13        0.000387574597    -0.000511868490    -0.001273609227
      14        0.000029583266     0.000023750330     0.000049129924

  **** Optimization is complete! (in 4 steps) ****
    Final optimized geometry and variables:
    Molecular point group: c1

    Geometry (in Angstrom), charge = 0, multiplicity = 1:

    H           -2.327736223988     0.648307966664    -1.670590850150
    N           -1.381459216303     0.528144314579    -1.378783292287
    C           -1.253519993106    -0.603004226757    -0.478758247554
    H           -1.099779640354     1.366012538768    -0.915598680362
    C            0.182128940040    -0.768053248477    -0.035634847129
    H           -1.880055813554    -0.523558954119     0.408726734321
    H           -1.550184720715    -1.502702689291    -1.006814355967
    O            0.548165114644     0.351122244240     0.715705131693
    H            0.279771825536    -1.673772950892     0.560714862638
    H            0.823616078421    -0.861265367651    -0.907940610376
    C            1.873077373623     0.396067008049     1.147660317914
    H            2.477567226561    -0.369922231810     0.672713342431
    H            2.299038760392     1.359249582153     0.895036747868
    H            1.926920900476     0.255909648966     2.222086664368

  Mulliken Charges: (a.u.)
   Center  Symbol    Alpha    Beta     Spin     Total
       1     H     0.43034  0.43034  0.00000  0.13931
       2     N     3.69428  3.69428  0.00000 -0.38857
       3     C     3.02404  3.02404  0.00000 -0.04808
       4     H     0.42218  0.42218  0.00000  0.15564
       5     C     2.96795  2.96795  0.00000  0.06409
       6     H     0.46482  0.46482  0.00000  0.07036
       7     H     0.45874  0.45874  0.00000  0.08251
       8     O     4.18448  4.18448  0.00000 -0.36895
       9     H     0.47013  0.47013  0.00000  0.05974
      10     H     0.46829  0.46829  0.00000  0.06341
      11     C     3.02714  3.02714  0.00000 -0.05428
      12     H     0.47207  0.47207  0.00000  0.05587
      13     H     0.45507  0.45507  0.00000  0.08985
      14     H     0.46045  0.46045  0.00000  0.07909

   Total alpha = 21.00000, Total beta = 21.00000, Total charge = -0.00000

*** Psi4 exiting successfully. Buy a developer a beer!
