  ==> Input File <==

--------------------------------------------------------------------------
set {
	reference rhf
	basis 6-31G*
}

set_num_threads( 4 )
memory 2 gb

molecule MOL {
0 1

O	 2.641769	 1.698782	 0.456854
C	 2.142302	 1.250181	 1.442779
C	 0.864538	 0.431267	 1.402319
C	 2.757194	 1.471517	 2.809554
C	 0.291004	 0.242674	 0.000989
H	 1.071420	 -0.532136	 1.866478
H	 0.137924	 0.914988	 2.053815
C	 -0.994322	 -0.586602	 0.000262
H	 1.037305	 -0.232424	 -0.627856
H	 0.102520	 1.216281	 -0.440272
C	 -2.259874	 0.272531	 0.000494
H	 -1.004862	 -1.240012	 -0.870939
H	 -1.005220	 -1.241071	 0.870675
C	 -3.549786	 -0.549746	 -0.000374
H	 -2.250389	 0.926680	 -0.869574
H	 -2.250838	 0.925513	 0.871430
C	 -4.809590	 0.315458	 -0.000369
H	 -3.560515	 -1.202009	 -0.871156
H	 -3.561123	 -1.202955	 0.869711
H	 -4.844746	 0.956611	 -0.876632
H	 -5.706986	 -0.295590	 -0.001609
H	 -4.845960	 0.954827	 0.877144
H	 2.995921	 0.520315	 3.276292
H	 3.657458	 2.062348	 2.713232
H	 2.055775	 1.983424	 3.461932

	symmetry c1
}
set optking {
	frozen_dihedral = ("
		9 5 8 12
	")
}

ee = optimize('scf')
oeprop('DIPOLE', 'QUADRUPOLE', 'MULLIKEN_CHARGES')
f=open( 'psi4out.xyz', 'w' )
f.write( "25  " )
f.write( str(ee) + "\n" )
f.write( MOL.save_string_xyz() )
f.close()
--------------------------------------------------------------------------

    Molecular point group: c1
  Charge       = 0
  Multiplicity = 1
  Basis Set: 6-31G*
  Basis Set:
  @DF-RHF Final Energy:  -387.13239905342942
    Total Energy =                       -387.1323990534294808
    Molecular point group: c1
  Basis Set: 6-31G*
  Basis Set:
  Basis Set: 6-31G*
  Basis Set:
  @DF-RHF Final Energy:  -387.13266638736417
    Total Energy =                       -387.1326663873652478
  Basis Set: 6-31G*
  Basis Set:
  Basis Set: 6-31G*
  Basis Set:
  @DF-RHF Final Energy:  -387.13232368727313
    Total Energy =                       -387.1323236872719917
  Basis Set: 6-31G*
  Basis Set:
  Basis Set: 6-31G*
  Basis Set:
  @DF-RHF Final Energy:  -387.13273410142625
    Total Energy =                       -387.1327341014259673
  Basis Set: 6-31G*
  Basis Set:
  Basis Set: 6-31G*
  Basis Set:
  @DF-RHF Final Energy:  -387.13274092593400
    Total Energy =                       -387.1327409259341721
  Basis Set: 6-31G*
  Basis Set:
  Basis Set: 6-31G*
  Basis Set:
  @DF-RHF Final Energy:  -387.13274695042315
    Total Energy =                       -387.1327469504234386
  Basis Set: 6-31G*
  Basis Set:
  Basis Set: 6-31G*
  Basis Set:
  @DF-RHF Final Energy:  -387.13274975825226
    Total Energy =                       -387.1327497582524302
  Basis Set: 6-31G*
  Basis Set:
  Charge       = 0
  Multiplicity = 1
  Basis Set: 6-31G*
  Basis Set:

    Orbital Energies (a.u.)
    -----------------------

    Doubly Occupied:

       1A    -20.550566     2A    -11.326265     3A    -11.232191
       4A    -11.228399     5A    -11.216851     6A    -11.216603
       7A    -11.216255     8A    -11.215579     9A    -11.209788
      10A     -1.395801    11A     -1.093428    12A     -1.056094
      13A     -1.014153    14A     -0.968721    15A     -0.893870
      16A     -0.815711    17A     -0.790298    18A     -0.732409
      19A     -0.658535    20A     -0.644104    21A     -0.640619
      22A     -0.621390    23A     -0.598003    24A     -0.575342
      25A     -0.571290    26A     -0.565783    27A     -0.541048
      28A     -0.524289    29A     -0.518513    30A     -0.491933
      31A     -0.484467    32A     -0.478946    33A     -0.464117
      34A     -0.459973    35A     -0.445726    36A     -0.400186

  @DF-RHF Final Energy:  -387.13274976632010

   => Energetics <=

    Nuclear Repulsion Energy =            442.6637022058245066
    One-Electron Energy =               -1401.8784101273108718
    Two-Electron Energy =                 572.0819581551656938
    DFT Exchange-Correlation Energy =       0.0000000000000000
    Empirical Dispersion Energy =           0.0000000000000000
    PCM Polarization Energy =               0.0000000000000000
    EFP Energy =                            0.0000000000000000
    Total Energy =                       -387.1327497663206714
    Molecular point group: c1
  Basis Set: 6-31G*
  Basis Set:

  -Total Gradient:
     Atom            X                  Y                   Z
    ------   -----------------  -----------------  -----------------
       1       -0.000003685298    -0.000000485733    -0.000001834051
       2       -0.000002313999     0.000005528437     0.000005201389
       3        0.000005016278    -0.000001058170     0.000001369678
       4        0.000009280071    -0.000015106090    -0.000002086211
       5        0.001631621565    -0.002800023881     0.003687791766
       6        0.000001531205     0.000000126422    -0.000001133280
       7        0.000001428128     0.000001078010     0.000001381003
       8       -0.002035745117     0.003432066032    -0.002811059210
       9       -0.001040090966     0.001784902521    -0.002630903041
      10       -0.000001825393     0.000000328055     0.000006668269
      11       -0.000005282344     0.000002399289    -0.000008477949
      12        0.001450799521    -0.002424920366     0.001738372520
      13       -0.000003862814     0.000007364501     0.000000682124
      14       -0.000000139948     0.000000124653     0.000017915716
      15       -0.000005594298    -0.000000262087    -0.000001996906
      16        0.000000416359    -0.000004284113    -0.000000303540
      17        0.000002371458     0.000002168828    -0.000008492341
      18        0.000002054015     0.000000585028     0.000003046849
      19        0.000000067070     0.000001140323     0.000004489620
      20        0.000000795746     0.000004910790     0.000000726184
      21        0.000002554281    -0.000001431109    -0.000005039516
      22       -0.000001131542    -0.000003908682     0.000002456584
      23       -0.000002960264     0.000002667077     0.000005070758
      24       -0.000002314428     0.000001290660    -0.000001230002
      25       -0.000002989289     0.000004799605    -0.000002616416

  **** Optimization is complete! (in 8 steps) ****
    Final optimized geometry and variables:
    Molecular point group: c1

    Geometry (in Angstrom), charge = 0, multiplicity = 1:

    O            2.957668813553     1.211412644850    -0.211695595129
    C            2.460354545223     0.744350219651     0.766773932133
    C            1.204112023351    -0.106094581010     0.709603700569
    C            3.057681906487     0.971492194586     2.140414861536
    C            0.652940133083    -0.307524411144    -0.698920355548
    H            1.429897311054    -1.065174003515     1.173447885574
    H            0.458796723764     0.357720372111     1.354369929439
    C           -0.659009078719    -1.113156127784    -0.727545966694
    H            1.403486996257    -0.783084180109    -1.320203383542
    H            0.492584138516     0.665245402208    -1.153203569514
    C           -1.918341064568    -0.244903683774    -0.700899393405
    H           -0.673217005796    -1.754798734910    -1.604750974611
    H           -0.683189499991    -1.797066070196     0.120096012497
    C           -3.213572136941    -1.057364881502    -0.663951823213
    H           -1.923876945521     0.401581880821    -1.576392577441
    H           -1.887059156518     0.417006628297     0.163696880402
    C           -4.467512329492    -0.183688110233    -0.655696249377
    H           -3.243865934608    -1.723624723097    -1.523517512087
    H           -3.213318220421    -1.696445250188     0.216636437991
    H           -4.514651596958     0.442747000386    -1.541924644370
    H           -5.368616981658    -0.788605677086    -0.630235732678
    H           -4.484059572461     0.470664229510     0.211458125255
    H            3.318375152352     0.023447354735     2.601791886342
    H            3.942414966771     1.587076411514     2.056072001869
    H            2.337456103338     1.459151269033     2.790895986801

  Mulliken Charges: (a.u.)
   Center  Symbol    Alpha    Beta     Spin     Total
       1     O     4.26101  4.26101  0.00000 -0.52201
       2     C     2.73599  2.73599  0.00000  0.52801
       3     C     3.21101  3.21101  0.00000 -0.42202
       4     C     3.28672  3.28672  0.00000 -0.57345
       5     C     3.15237  3.15237  0.00000 -0.30475
       6     H     0.40956  0.40956  0.00000  0.18088
       7     H     0.40961  0.40961  0.00000  0.18077
       8     C     3.15827  3.15827  0.00000 -0.31654
       9     H     0.41006  0.41006  0.00000  0.17988
      10     H     0.41017  0.41017  0.00000  0.17966
      11     C     3.15133  3.15133  0.00000 -0.30267
      12     H     0.41808  0.41808  0.00000  0.16383
      13     H     0.42525  0.42525  0.00000  0.14950
      14     C     3.15184  3.15184  0.00000 -0.30369
      15     H     0.42102  0.42102  0.00000  0.15796
      16     H     0.42607  0.42607  0.00000  0.14786
      17     C     3.23927  3.23927  0.00000 -0.47855
      18     H     0.42228  0.42228  0.00000  0.15543
      19     H     0.42367  0.42367  0.00000  0.15267
      20     H     0.42101  0.42101  0.00000  0.15798
      21     H     0.41915  0.41915  0.00000  0.16171
      22     H     0.42231  0.42231  0.00000  0.15537
      23     H     0.40867  0.40867  0.00000  0.18267
      24     H     0.39644  0.39644  0.00000  0.20712
      25     H     0.40882  0.40882  0.00000  0.18237

   Total alpha = 36.00000, Total beta = 36.00000, Total charge = -0.00000
