  ==> Input File <==

--------------------------------------------------------------------------
set {
	reference rhf
	basis 6-31G*
}

set_num_threads( 4 )
memory 2 gb

molecule MOL {
0 1

H	 -1.324112	 1.395601	 -0.303720
C	 -0.743173	 0.474829	 -0.374269
N	 0.538815	 0.649616	 0.000000
O	 -1.228629	 -0.552205	 -0.746749
C	 1.521968	 -0.411503	 0.000000
H	 0.816284	 1.559016	 0.290319
H	 2.150599	 -0.357004	 -0.881901
H	 0.999455	 -1.354525	 0.000000
H	 2.150599	 -0.357004	 0.881901

	symmetry c1
}
set optking {
	frozen_dihedral = ("
		6 3 5 7
	")
}

ee = optimize('scf')
oeprop('DIPOLE', 'QUADRUPOLE', 'MULLIKEN_CHARGES')
f=open( 'psi4out.xyz', 'w' )
f.write( "9  " )
f.write( str(ee) + "\n" )
f.write( MOL.save_string_xyz() )
f.close()
--------------------------------------------------------------------------

    Molecular point group: c1
  Charge       = 0
  Multiplicity = 1
  Basis Set: 6-31G*
  Basis Set:
  @DF-RHF Final Energy:  -207.96087929036560
    Total Energy =                       -207.9608792903656251
    Molecular point group: c1
  Basis Set: 6-31G*
  Basis Set:
  Basis Set: 6-31G*
  Basis Set:
  @DF-RHF Final Energy:  -207.96095653666873
    Total Energy =                       -207.9609565366687320
  Basis Set: 6-31G*
  Basis Set:
  Basis Set: 6-31G*
  Basis Set:
  @DF-RHF Final Energy:  -207.96094841372269
    Total Energy =                       -207.9609484137227469
  Basis Set: 6-31G*
  Basis Set:
  Basis Set: 6-31G*
  Basis Set:
  @DF-RHF Final Energy:  -207.96100421416787
    Total Energy =                       -207.9610042141679287
  Basis Set: 6-31G*
  Basis Set:
  Basis Set: 6-31G*
  Basis Set:
  @DF-RHF Final Energy:  -207.96103712787209
    Total Energy =                       -207.9610371278720891
  Basis Set: 6-31G*
  Basis Set:
  Charge       = 0
  Multiplicity = 1
  Basis Set: 6-31G*
  Basis Set:

    Orbital Energies (a.u.)
    -----------------------

    Doubly Occupied:

       1A    -20.526022     2A    -15.590839     3A    -11.343826
       4A    -11.260580     5A     -1.389300     6A     -1.236471
       7A     -0.968246     8A     -0.807448     9A     -0.746438
      10A     -0.641566    11A     -0.626547    12A     -0.592940
      13A     -0.555629    14A     -0.535571    15A     -0.424101
      16A     -0.391019

  @DF-RHF Final Energy:  -207.96104038099145

   => Energetics <=

    Nuclear Repulsion Energy =            122.5510630448247724
    One-Electron Energy =                -525.7511177930747408
    Two-Electron Energy =                 195.2390143672585054
    DFT Exchange-Correlation Energy =       0.0000000000000000
    Empirical Dispersion Energy =           0.0000000000000000
    PCM Polarization Energy =               0.0000000000000000
    EFP Energy =                            0.0000000000000000
    Total Energy =                       -207.9610403809914487
    Molecular point group: c1
  Basis Set: 6-31G*
  Basis Set:

  -Total Gradient:
     Atom            X                  Y                   Z
    ------   -----------------  -----------------  -----------------
       1       -0.000031433753    -0.000042587549    -0.000003069192
       2        0.000285059036     0.000142217847     0.000117750510
       3       -0.000186844013     0.000072645852     0.000117227222
       4       -0.000148851975    -0.000156129436    -0.000097752004
       5       -0.000120536915    -0.000125030436     0.000079869680
       6        0.000092951830    -0.000018426352    -0.000147528118
       7        0.000070799570     0.000104700186     0.000017904656
       8       -0.000000514486     0.000025324289    -0.000048872186
       9        0.000039370709    -0.000002714398    -0.000035530568

  **** Optimization is complete! (in 6 steps) ****
    Final optimized geometry and variables:
    Molecular point group: c1

    Geometry (in Angstrom), charge = 0, multiplicity = 1:

    H           -1.366189858762     1.359983771531    -0.025048023954
    C           -0.775314294049     0.446134586080    -0.103563965886
    N            0.482132275075     0.603056782784     0.352848488548
    O           -1.232868857823    -0.568983897180    -0.538863696686
    C            1.471938466623    -0.450556004537     0.290504542342
    H            0.774214029192     1.519346648629     0.604160975311
    H            2.036325570450    -0.421132152728    -0.636155653596
    H            0.970381477165    -1.403195394065     0.358921645905
    H            2.158292841181    -0.351252623271     1.121809057054

  Mulliken Charges: (a.u.)
   Center  Symbol    Alpha    Beta     Spin     Total
       1     H     0.42719  0.42719  0.00000  0.14561
       2     C     2.74605  2.74605  0.00000  0.50789
       3     N     3.87415  3.87415  0.00000 -0.74830
       4     O     4.28360  4.28360  0.00000 -0.56719
       5     C     3.14162  3.14162  0.00000 -0.28324
       6     H     0.30938  0.30938  0.00000  0.38124
       7     H     0.41290  0.41290  0.00000  0.17420
       8     H     0.39068  0.39068  0.00000  0.21864
       9     H     0.41442  0.41442  0.00000  0.17116

   Total alpha = 16.00000, Total beta = 16.00000, Total charge =  0.00000
