  ==> Input File <==

--------------------------------------------------------------------------
set {
	reference rhf
	basis 6-31G*
}

set_num_threads( 4 )
memory 2 gb

molecule MOL {
0 1

H	 2.671591	 0.167717	 1.045567
C	 1.951159	 -0.223429	 0.317018
C	 0.692068	 0.589600	 0.160137
O	 2.190541	 -1.221245	 -0.282305
C	 -0.558097	 -0.297372	 0.091132
H	 0.791645	 1.202255	 -0.728243
H	 0.616171	 1.253469	 1.020572
C	 -1.850991	 0.512573	 -0.019058
H	 -0.476753	 -0.965681	 -0.762987
H	 -0.604799	 -0.930658	 0.975228
C	 -3.096943	 -0.368295	 -0.099594
H	 -1.800724	 1.150330	 -0.898172
H	 -1.931651	 1.177355	 0.838044
H	 -3.060452	 -1.020287	 -0.967456
H	 -3.996858	 0.233488	 -0.175704
H	 -3.191959	 -0.995686	 0.782074

	symmetry c1
}
set optking {
	frozen_dihedral = ("
		4 2 3 6
	")
}

ee = optimize('scf')
oeprop('DIPOLE', 'QUADRUPOLE', 'MULLIKEN_CHARGES')
f=open( 'psi4out.xyz', 'w' )
f.write( "16  " )
f.write( str(ee) + "\n" )
f.write( MOL.save_string_xyz() )
f.close()
--------------------------------------------------------------------------

    Molecular point group: c1
  Charge       = 0
  Multiplicity = 1
  Basis Set: 6-31G*
  Basis Set:
  @DF-RHF Final Energy:  -270.01863496418451
    Total Energy =                       -270.0186349641844572
    Molecular point group: c1
  Basis Set: 6-31G*
  Basis Set:
  Basis Set: 6-31G*
  Basis Set:
  @DF-RHF Final Energy:  -270.01892896162235
    Total Energy =                       -270.0189289616222936
  Basis Set: 6-31G*
  Basis Set:
  Basis Set: 6-31G*
  Basis Set:
  @DF-RHF Final Energy:  -270.01922904104083
    Total Energy =                       -270.0192290410408305
  Basis Set: 6-31G*
  Basis Set:
  Basis Set: 6-31G*
  Basis Set:
  @DF-RHF Final Energy:  -270.01928470768667
    Total Energy =                       -270.0192847076867224
  Basis Set: 6-31G*
  Basis Set:
  Basis Set: 6-31G*
  Basis Set:
  @DF-RHF Final Energy:  -270.01929564125709
    Total Energy =                       -270.0192956412570311
  Basis Set: 6-31G*
  Basis Set:
  Basis Set: 6-31G*
  Basis Set:
  @DF-RHF Final Energy:  -270.01929312842276
    Total Energy =                       -270.0192931284226461
  Basis Set: 6-31G*
  Basis Set:
  Basis Set: 6-31G*
  Basis Set:
  @DF-RHF Final Energy:  -270.01929877655647
    Total Energy =                       -270.0192987765566386
  Basis Set: 6-31G*
  Basis Set:
  Charge       = 0
  Multiplicity = 1
  Basis Set: 6-31G*
  Basis Set:

    Orbital Energies (a.u.)
    -----------------------

    Doubly Occupied:

       1A    -20.563151     2A    -11.328307     3A    -11.236225
       4A    -11.225390     5A    -11.223416     6A    -11.213340
       7A     -1.403586     8A     -1.089174     9A     -1.014365
      10A     -0.906715    11A     -0.813501    12A     -0.776182
      13A     -0.679529    14A     -0.649438    15A     -0.628225
      16A     -0.599158    17A     -0.582121    18A     -0.541805
      19A     -0.526832    20A     -0.500924    21A     -0.480749
      22A     -0.479238    23A     -0.472371    24A     -0.409382

  @DF-RHF Final Energy:  -270.01929875402914

   => Energetics <=

    Nuclear Repulsion Energy =            231.4264531634509865
    One-Electron Energy =                -824.2052574943731997
    Two-Electron Energy =                 322.7595055768933889
    DFT Exchange-Correlation Energy =       0.0000000000000000
    Empirical Dispersion Energy =           0.0000000000000000
    PCM Polarization Energy =               0.0000000000000000
    EFP Energy =                            0.0000000000000000
    Total Energy =                       -270.0192987540287959
    Molecular point group: c1
  Basis Set: 6-31G*
  Basis Set:

  -Total Gradient:
     Atom            X                  Y                   Z
    ------   -----------------  -----------------  -----------------
       1        0.000000043423     0.000001494440     0.000002517394
       2       -0.001200151522    -0.001772881180     0.001771251531
       3        0.001225981161     0.002013468746     0.000558266567
       4        0.000723647591     0.001051424619    -0.001371277902
       5        0.000002978492    -0.000000547722     0.000003932806
       6       -0.000751985251    -0.001289839933    -0.000956770010
       7        0.000002182865     0.000001729628     0.000006332126
       8        0.000002291908    -0.000000741183    -0.000010870532
       9        0.000002851031    -0.000003727283    -0.000001421452
      10       -0.000004168269    -0.000002138311    -0.000005721211
      11       -0.000002043987     0.000001208794     0.000008710582
      12       -0.000004202937    -0.000002929590    -0.000003248393
      13        0.000002460895     0.000002107520    -0.000003917269
      14        0.000001171828     0.000003701750     0.000000024775
      15       -0.000001383899     0.000000176204     0.000003099212
      16        0.000000326666    -0.000002506494    -0.000000908223

  **** Optimization is complete! (in 8 steps) ****
    Final optimized geometry and variables:
    Molecular point group: c1

    Geometry (in Angstrom), charge = 0, multiplicity = 1:

    H            2.870372709504     0.353765714059     0.936004897820
    C            2.090898014689    -0.039802861060     0.274743353494
    C            0.807259231417     0.757278307473     0.205489188227
    O            2.295817066792    -1.019909290947    -0.365990408503
    C           -0.442085708118    -0.123283878825     0.108454357401
    H            0.878708526483     1.379812764430    -0.685719277918
    H            0.751008750456     1.428563947236     1.057395293231
    C           -1.726410225926     0.692057505732    -0.046493858384
    H           -0.327778851334    -0.799716257914    -0.731183560249
    H           -0.512606695195    -0.745434781344     0.997808133606
    C           -2.974723681598    -0.184942711762    -0.134627668126
    H           -1.655602601995     1.309619964518    -0.939428216296
    H           -1.825814427635     1.378027145561     0.792212539941
    H           -2.919849447610    -0.859374621264    -0.984079262923
    H           -3.870221913592     0.418014014403    -0.247198015501
    H           -3.092925914199    -0.789643487743     0.759909774833

  Mulliken Charges: (a.u.)
   Center  Symbol    Alpha    Beta     Spin     Total
       1     H     0.42597  0.42597  0.00000  0.14806
       2     C     2.84152  2.84152  0.00000  0.31697
       3     C     3.20747  3.20747  0.00000 -0.41494
       4     O     4.23713  4.23713  0.00000 -0.47426
       5     C     3.15355  3.15355  0.00000 -0.30710
       6     H     0.40204  0.40204  0.00000  0.19592
       7     H     0.41426  0.41426  0.00000  0.17147
       8     C     3.15320  3.15320  0.00000 -0.30641
       9     H     0.40397  0.40397  0.00000  0.19206
      10     H     0.41859  0.41859  0.00000  0.16281
      11     C     3.23989  3.23989  0.00000 -0.47979
      12     H     0.42174  0.42174  0.00000  0.15653
      13     H     0.42306  0.42306  0.00000  0.15387
      14     H     0.41895  0.41895  0.00000  0.16209
      15     H     0.41815  0.41815  0.00000  0.16369
      16     H     0.42049  0.42049  0.00000  0.15902

   Total alpha = 24.00000, Total beta = 24.00000, Total charge = -0.00000
