  ==> Input File <==

--------------------------------------------------------------------------
set {
	reference rhf
	basis 6-31G*
}

set_num_threads( 1 )
memory 2 gb

molecule MOL {
0 1

H	 -3.892951	 0.981613	 -0.358725
C	 -3.196921	 0.361773	 0.172313
C	 -2.076860	 -0.007332	 -0.404944
H	 -3.439953	 0.057760	 1.173024
O	 -2.057451	 -0.875593	 -1.450223
H	 -1.115407	 0.367201	 -0.100761
C	 -0.830301	 -1.349467	 -1.887710
C	 -0.392992	 -2.570724	 -1.110803
H	 -0.048411	 -0.602238	 -1.810300
H	 -0.938285	 -1.636899	 -2.923185
F	 0.763418	 -3.006547	 -1.588905
F	 -0.220541	 -2.300197	 0.172515
F	 -1.265514	 -3.553086	 -1.200590

	symmetry c1
}
set optking {
	frozen_dihedral = ("
		11 8 7 9,
		3 5 7 9,
		6 3 5 7
	")
}

ee = energy('scf')
oeprop('DIPOLE', 'QUADRUPOLE', 'MULLIKEN_CHARGES')
f=open( 'psi4out.xyz', 'w' )
f.write( "13  " )
f.write( str(ee) + "\n" )
f.write( MOL.save_string_xyz() )
f.close()
--------------------------------------------------------------------------

    Molecular point group: c1

    Geometry (in Angstrom), charge = 0, multiplicity = 1:

       Center              X                  Y                   Z               Mass
    ------------   -----------------  -----------------  -----------------  -----------------
           H         -2.828821625231     2.774496294373     0.559631381959     1.007825032070
           C         -2.132791625231     2.154656294373     1.090669381959    12.000000000000
           C         -1.012730625231     1.785551294373     0.513412381959    12.000000000000
           H         -2.375823625231     1.850643294373     2.091380381959     1.007825032070
           O         -0.993321625231     0.917290294373    -0.531866618041    15.994914619560
           H         -0.051277625231     2.160084294373     0.817595381959     1.007825032070
           C          0.233828374769     0.443416294373    -0.969353618041    12.000000000000
           C          0.671137374769    -0.777840705627    -0.192446618041    12.000000000000
           H          1.015718374769     1.190645294373    -0.891943618041     1.007825032070
           H          0.125844374769     0.155984294373    -2.004828618041     1.007825032070
           F          1.827547374769    -1.213663705627    -0.670548618041    18.998403224000
           F          0.843588374769    -0.507313705627     1.090871381959    18.998403224000
           F         -0.201384625231    -1.760202705627    -0.282233618041    18.998403224000

  Charge       = 0
  Multiplicity = 1
  Basis Set: 6-31G*
  Basis Set:

    Orbital Energies (a.u.)
    -----------------------

    Doubly Occupied:

       1A    -26.349183     2A    -26.347096     3A    -26.344303
       4A    -20.623195     5A    -11.508827     6A    -11.328148
       7A    -11.324775     8A    -11.188982     9A     -1.745669
      10A     -1.643846    11A     -1.641911    12A     -1.451103
      13A     -1.089549    14A     -1.017831    15A     -0.929444
      16A     -0.840938    17A     -0.834863    18A     -0.826061
      19A     -0.797092    20A     -0.725550    21A     -0.714497
      22A     -0.699135    23A     -0.677642    24A     -0.663742
      25A     -0.657575    26A     -0.646779    27A     -0.641577
      28A     -0.588259    29A     -0.577454    30A     -0.532314
      31A     -0.509147    32A     -0.286196

  @DF-RHF Final Energy:  -527.43092030485991

   => Energetics <=

    Nuclear Repulsion Energy =            413.4796389755920814
    One-Electron Energy =               -1550.3160759435334057
    Two-Electron Energy =                 609.4055166630821532
    DFT Exchange-Correlation Energy =       0.0000000000000000
    Empirical Dispersion Energy =           0.0000000000000000
    PCM Polarization Energy =               0.0000000000000000
    EFP Energy =                            0.0000000000000000
    Total Energy =                       -527.4309203048592281

  Mulliken Charges: (a.u.)
   Center  Symbol    Alpha    Beta     Spin     Total
       1     H     0.40505  0.40505  0.00000  0.18990
       2     C     3.29186  3.29186  0.00000 -0.58372
       3     C     2.87179  2.87179  0.00000  0.25643
       4     H     0.39886  0.39886  0.00000  0.20228
       5     O     4.27974  4.27974  0.00000 -0.55949
       6     H     0.40433  0.40433  0.00000  0.19133
       7     C     3.06993  3.06993  0.00000 -0.13986
       8     C     2.45329  2.45329  0.00000  1.09342
       9     H     0.40320  0.40320  0.00000  0.19360
      10     H     0.38768  0.38768  0.00000  0.22464
      11     F     4.68197  4.68197  0.00000 -0.36394
      12     F     4.67871  4.67871  0.00000 -0.35741
      13     F     4.67360  4.67360  0.00000 -0.34720

   Total alpha = 32.00000, Total beta = 32.00000, Total charge = -0.00000
