  ==> Input File <==

--------------------------------------------------------------------------
set {
	reference rhf
	basis cc-pvtz
}

set_num_threads( 4 )
memory 2 gb

molecule MOL {
0 1

H	 3.459101	 0.139266	 -0.762951
C	 2.749156	 -0.051729	 0.031265
C	 1.322304	 0.099773	 -0.484271
H	 2.929445	 -1.053887	 0.403481
H	 2.954281	 0.646699	 0.834672
C	 0.308557	 -0.162619	 0.622645
H	 1.143368	 -0.594400	 -1.295960
H	 1.169532	 1.100095	 -0.870217
N	 -1.069352	 -0.004081	 0.085342
H	 0.371632	 -1.172932	 0.991288
H	 0.400391	 0.548875	 1.426218
O	 -1.420223	 1.093266	 -0.192676
O	 -1.733916	 -0.981718	 -0.001389

	symmetry c1
}
set optking {
	frozen_dihedral = ("
		12 9 6 3
	")
}

ee = optimize('scf')
oeprop('DIPOLE', 'QUADRUPOLE', 'MULLIKEN_CHARGES')
f=open( 'psi4out.xyz', 'w' )
f.write( "13  " )
f.write( str(ee) + "\n" )
f.write( MOL.save_string_xyz() )
f.close()
--------------------------------------------------------------------------

    Molecular point group: c1
  Charge       = 0
  Multiplicity = 1
  Basis Set: CC-PVTZ
  Basis Set:
  @DF-RHF Final Energy:  -321.86120914262648
    Total Energy =                       -321.8612091426261941
    Molecular point group: c1
  Basis Set: CC-PVTZ
  Basis Set:
  Basis Set: CC-PVTZ
  Basis Set:
  @DF-RHF Final Energy:  -321.85717253588473
    Total Energy =                       -321.8571725358845015
  Basis Set: CC-PVTZ
  Basis Set:
  Basis Set: CC-PVTZ
  Basis Set:
  @DF-RHF Final Energy:  -321.86132050588867
    Total Energy =                       -321.8613205058885001
  Basis Set: CC-PVTZ
  Basis Set:
  Basis Set: CC-PVTZ
  Basis Set:
  @DF-RHF Final Energy:  -321.86141194756715
    Total Energy =                       -321.8614119475672055
  Basis Set: CC-PVTZ
  Basis Set:
  Basis Set: CC-PVTZ
  Basis Set:
  @DF-RHF Final Energy:  -321.86141340190363
    Total Energy =                       -321.8614134019036896
  Basis Set: CC-PVTZ
  Basis Set:
  Charge       = 0
  Multiplicity = 1
  Basis Set: CC-PVTZ
  Basis Set:

    Orbital Energies (a.u.)
    -----------------------

    Doubly Occupied:

       1A    -20.592113     2A    -20.589018     3A    -15.837143
       4A    -11.297470     5A    -11.253206     6A    -11.236879
       7A     -1.636197     8A     -1.420459     9A     -1.133867
      10A     -1.027764    11A     -0.884193    12A     -0.833503
      13A     -0.762106    14A     -0.739741    15A     -0.728165
      16A     -0.671865    17A     -0.604379    18A     -0.587222
      19A     -0.551337    20A     -0.521253    21A     -0.513346
      22A     -0.487360    23A     -0.474939    24A     -0.453304

  @DF-RHF Final Energy:  -321.86141400082533

   => Energetics <=

    Nuclear Repulsion Energy =            247.9423996754342170
    One-Electron Energy =                -929.9339674814040109
    Two-Electron Energy =                 360.1301538051445732
    DFT Exchange-Correlation Energy =       0.0000000000000000
    Empirical Dispersion Energy =           0.0000000000000000
    PCM Polarization Energy =               0.0000000000000000
    EFP Energy =                            0.0000000000000000
    Total Energy =                       -321.8614140008252207
    Molecular point group: c1
  Basis Set: CC-PVTZ
  Basis Set:

  -Total Gradient:
     Atom            X                  Y                   Z
    ------   -----------------  -----------------  -----------------
       1        0.000000136971    -0.000001477367    -0.000002565243
       2       -0.000011242622    -0.000004268157     0.000002048459
       3        0.000006718825     0.000275190064     0.000066807186
       4       -0.000002455051     0.000002667586     0.000001961951
       5        0.000002258872     0.000000692208    -0.000001635450
       6        0.000028667988    -0.000402224261    -0.000199252608
       7       -0.000006470725     0.000002058228     0.000012909845
       8        0.000002236638     0.000011115373    -0.000006077806
       9       -0.000129053179     0.000281153486     0.000461137773
      10        0.000008537925    -0.000009187997     0.000005699005
      11        0.000008530216    -0.000001611376    -0.000009934549
      12        0.000125114160    -0.000120384455    -0.000330541694
      13       -0.000032980016    -0.000033723335    -0.000000556869

  **** Optimization is complete! (in 6 steps) ****
    Final optimized geometry and variables:
    Molecular point group: c1

    Geometry (in Angstrom), charge = 0, multiplicity = 1:

    H            3.464882357083     0.133690666027    -0.772316556212
    C            2.753664252319    -0.053637245507     0.021624759237
    C            1.327838504908     0.109543060832    -0.493661711791
    H            2.928151693669    -1.057010926629     0.393278236390
    H            2.963469780953     0.642898367885     0.825662254444
    C            0.314496112266    -0.153439971370     0.611959950323
    H            1.147381897386    -0.581713497745    -1.309086710092
    H            1.178808357594     1.109793695767    -0.876812594812
    N           -1.070720967649    -0.006256651648     0.087394220273
    H            0.382109859300    -1.155340551883     0.999312582872
    H            0.403618287170     0.569631005701     1.407923847230
    O           -1.427392922479     1.090264026598    -0.189121546607
    O           -1.718893926774    -0.990312337621    -0.034452737401

  Mulliken Charges: (a.u.)
   Center  Symbol    Alpha    Beta     Spin     Total
       1     H     0.44163  0.44163  0.00000  0.11674
       2     C     3.15116  3.15116  0.00000 -0.30232
       3     C     3.09624  3.09624  0.00000 -0.19249
       4     H     0.45175  0.45175  0.00000  0.09649
       5     H     0.45181  0.45181  0.00000  0.09639
       6     C     3.03957  3.03957  0.00000 -0.07915
       7     H     0.44147  0.44147  0.00000  0.11705
       8     H     0.43470  0.43470  0.00000  0.13060
       9     N     3.27655  3.27655  0.00000  0.44689
      10     H     0.43337  0.43337  0.00000  0.13327
      11     H     0.43626  0.43626  0.00000  0.12747
      12     O     4.17524  4.17524  0.00000 -0.35048
      13     O     4.17023  4.17023  0.00000 -0.34046

   Total alpha = 24.00000, Total beta = 24.00000, Total charge =  0.00000
