                              Psi4 1.0.54 Driver

  ==> Input File <==

--------------------------------------------------------------------------
set {
	reference rhf
	basis cc-pvtz
}

set_num_threads( 4 )
memory 2 gb

molecule MOL {
0 1

O	 1.216069	 1.304886	 0.000821
C	 1.121787	 0.124983	 0.000110
C	 -0.170912	 -0.649867	 -0.000147
O	 2.167739	 -0.685178	 -0.000678
C	 -1.413045	 0.229353	 0.001137
H	 -0.152877	 -1.303435	 -0.866175
H	 -0.152278	 -1.305116	 0.864586
C	 -1.106448	 1.667942	 0.407055
H	 -2.150167	 -0.193135	 0.674706
H	 -1.863731	 0.214047	 -0.984861
C	 -2.344855	 2.557431	 0.413888
H	 -0.652049	 1.676542	 1.394318
H	 -0.367234	 2.085844	 -0.271293
H	 -3.089540	 2.184781	 1.108987
H	 -2.097572	 3.571583	 0.705477
H	 -2.802592	 2.597171	 -0.568700
C	 3.449556	 -0.089977	 -0.000570
H	 3.585694	 0.522473	 -0.879546
H	 4.155805	 -0.904274	 -0.001389
H	 3.586173	 0.521118	 0.879272

	symmetry c1
}
set optking {
	frozen_dihedral = ("
		9 5 3 6
	")
}

ee,wfn = optimize('scf', return_wfn=True)
oeprop( wfn, 'DIPOLE', 'QUADRUPOLE', 'MULLIKEN_CHARGES')
f=open( 'psi4out.xyz', 'w' )
f.write( "20  " )
f.write( str(ee) + "\n" )
f.write( MOL.save_string_xyz() )
f.close()
--------------------------------------------------------------------------

    Molecular point group: c1
  Charge       = 0
  Multiplicity = 1
  Basis Set: CC-PVTZ
  Basis Set:
  @DF-RHF Final Energy:  -384.04730176488408
    Total Energy =                       -384.0473017648840823
    Molecular point group: c1
  Basis Set: CC-PVTZ
  Basis Set:
  Basis Set: CC-PVTZ
  Basis Set:
  @DF-RHF Final Energy:  -384.06644087540803
    Total Energy =                       -384.0664408754080341
  Basis Set: CC-PVTZ
  Basis Set:
  Basis Set: CC-PVTZ
  Basis Set:
  @DF-RHF Final Energy:  -384.06957019802246
    Total Energy =                       -384.0695701980229160
  Basis Set: CC-PVTZ
  Basis Set:
  Basis Set: CC-PVTZ
  Basis Set:
  @DF-RHF Final Energy:  -384.06748811494839
    Total Energy =                       -384.0674881149483326
  Basis Set: CC-PVTZ
  Basis Set:
  @DF-RHF Final Energy:  -384.07156431087344
    Total Energy =                       -384.0715643108733275
  @DF-RHF Final Energy:  -384.07191944175122
    Total Energy =                       -384.0719194417511062
  @DF-RHF Final Energy:  -384.07221328005824
    Total Energy =                       -384.0722132800580084
  @DF-RHF Final Energy:  -384.07239617050840
    Total Energy =                       -384.0723961705085685
  @DF-RHF Final Energy:  -384.07259213637258
    Total Energy =                       -384.0725921363723501
  @DF-RHF Final Energy:  -384.07278947332526
    Total Energy =                       -384.0727894733247467
  @DF-RHF Final Energy:  -384.07298319038119
    Total Energy =                       -384.0729831903814784
  @DF-RHF Final Energy:  -384.07316938743043
    Total Energy =                       -384.0731693874305392
  @DF-RHF Final Energy:  -384.07359086915824
    Total Energy =                       -384.0735908691584655
  @DF-RHF Final Energy:  -384.07352957057702
    Total Energy =                       -384.0735295705768522
  @DF-RHF Final Energy:  -384.07399273915911
    Total Energy =                       -384.0739927391595074
  @DF-RHF Final Energy:  -384.07426540558271
    Total Energy =                       -384.0742654055828780
  @DF-RHF Final Energy:  -384.07470457847944
    Total Energy =                       -384.0747045784797820
  @DF-RHF Final Energy:  -384.07435139462575
    Total Energy =                       -384.0743513946255234
  @DF-RHF Final Energy:  -384.07502393680664
    Total Energy =                       -384.0750239368064740
  @DF-RHF Final Energy:  -384.07510380804661
    Total Energy =                       -384.0751038080467197
  Basis Set: CC-PVTZ
  Basis Set:
  @DF-RHF Final Energy:  -384.07514011411996
    Total Energy =                       -384.0751401141196766
  Basis Set: CC-PVTZ
  Basis Set:
  Basis Set: CC-PVTZ
  Basis Set:
  @DF-RHF Final Energy:  -384.07513284377836
    Total Energy =                       -384.0751328437783059
  Basis Set: CC-PVTZ
  Basis Set:
  Basis Set: CC-PVTZ
  Basis Set:
  @DF-RHF Final Energy:  -384.07515369403700
    Total Energy =                       -384.0751536940371125
  Basis Set: CC-PVTZ
  Basis Set:
  Charge       = 0
  Multiplicity = 1
  Basis Set: CC-PVTZ
  Basis Set:

    Orbital Energies (a.u.)
    -----------------------

    Doubly Occupied:

       1A    -20.598064     2A    -20.530791     3A    -11.363507
       4A    -11.278420     5A    -11.232467     6A    -11.228142
       7A    -11.217762     8A    -11.210297     9A     -1.472036
      10A     -1.364000    11A     -1.089201    12A     -1.022787
      13A     -0.969213    14A     -0.890114    15A     -0.813042
      16A     -0.769719    17A     -0.692342    18A     -0.680915
      19A     -0.675827    20A     -0.645796    21A     -0.596104
      22A     -0.593250    23A     -0.585110    24A     -0.552107
      25A     -0.531632    26A     -0.520977    27A     -0.515343
      28A     -0.482971    29A     -0.474574    30A     -0.467360
      31A     -0.456365    32A     -0.433995

  @DF-RHF Final Energy:  -384.07515386487785

   => Energetics <=

    Nuclear Repulsion Energy =            395.2903400165831727
    One-Electron Energy =               -1306.8225282543803587
    Two-Electron Energy =                 527.4570343729193382
    DFT Exchange-Correlation Energy =       0.0000000000000000
    Empirical Dispersion Energy =           0.0000000000000000
    PCM Polarization Energy =               0.0000000000000000
    EFP Energy =                            0.0000000000000000
    Total Energy =                       -384.0751538648778478
    Molecular point group: c1
  Basis Set: CC-PVTZ
  Basis Set:

  -Total Gradient:
     Atom            X                  Y                   Z
    ------   -----------------  -----------------  -----------------
       1       -0.000048032518    -0.000034443637     0.000039481970
       2        0.000030318429     0.000029242540    -0.000066227357
       3       -0.003265364059    -0.004467093866     0.002072113344
       4       -0.000014998235    -0.000025947143     0.000026014051
       5       -0.000284362998    -0.000928679480    -0.005658071841
       6        0.002814819156     0.003894696903    -0.000901260279
       7       -0.000005141244    -0.000009469866    -0.000005611604
       8        0.000017893976    -0.000013909611     0.000012655522
       9        0.000768060651     0.001540348229     0.004515397756
      10       -0.000007326362    -0.000000365562    -0.000007695168
      11       -0.000015532947    -0.000007758891    -0.000006826458
      12       -0.000008143949     0.000006383777    -0.000007350485
      13        0.000009250097    -0.000006871902    -0.000000617313
      14       -0.000005284724     0.000002180038     0.000001752828
      15        0.000004495773    -0.000001917288    -0.000001432528
      16       -0.000001141966     0.000001716780    -0.000002300807
      17        0.000015598487     0.000034344460    -0.000014784875
      18       -0.000008245425     0.000002692924     0.000010101769
      19       -0.000010076832    -0.000002879950    -0.000017076381
      20        0.000013214690    -0.000012268457     0.000011737863

  **** Optimization is complete! (in 24 steps) ****
    Final optimized geometry and variables:
    Molecular point group: c1

    Geometry (in Angstrom), charge = 0, multiplicity = 1:

    O            1.574421372677     0.151529137456    -1.003556155875
    C            0.929044452088    -0.515833354071    -0.267185074157
    C           -0.313261496064    -1.270433704569    -0.674241509506
    O            1.228215558144    -0.676168449503     1.010582147611
    C           -1.578391909837    -0.378452038431    -0.764698973767
    H           -0.082631011998    -1.663373535520    -1.654577713180
    H           -0.468136279674    -2.086509979518     0.015050303870
    C           -1.556972410332     0.901313880220     0.073831517399
    H           -2.419447521372    -0.969421314494    -0.420034529247
    H           -1.761487453515    -0.118781744843    -1.799530798635
    C           -2.870388385895     1.670314884602    -0.022787867542
    H           -1.361584367697     0.652431484210     1.112405556839
    H           -0.745275030417     1.541735394335    -0.252725926139
    H           -3.703574309604     1.072760350955     0.331969399630
    H           -2.836199415042     2.575657492797     0.571779946675
    H           -3.081636808518     1.956059091481    -1.047756249466
    C            2.368691145406     0.001914848072     1.498410226638
    H            3.255003244727    -0.315429247425     0.969682092928
    H            2.444456459969    -0.256313534848     2.542183666199
    H            2.254477328593     1.069788674823     1.385509527507

  Mulliken Charges: (a.u.)
   Center  Symbol    Alpha    Beta     Spin     Total
       1     O     4.20866  4.20866  0.00000 -0.41732
       2     C     2.79171  2.79171  0.00000  0.41659
       3     C     3.09359  3.09359  0.00000 -0.18718
       4     O     4.15294  4.15294  0.00000 -0.30587
       5     C     3.08998  3.08998  0.00000 -0.17996
       6     H     0.43715  0.43715  0.00000  0.12570
       7     H     0.44032  0.44032  0.00000  0.11936
       8     C     3.09745  3.09745  0.00000 -0.19489
       9     H     0.45103  0.45103  0.00000  0.09793
      10     H     0.44724  0.44724  0.00000  0.10553
      11     C     3.15157  3.15157  0.00000 -0.30315
      12     H     0.44742  0.44742  0.00000  0.10516
      13     H     0.44514  0.44514  0.00000  0.10972
      14     H     0.45554  0.45554  0.00000  0.08891
      15     H     0.44726  0.44726  0.00000  0.10549
      16     H     0.45391  0.45391  0.00000  0.09219
      17     C     3.03970  3.03970  0.00000 -0.07940
      18     H     0.45058  0.45058  0.00000  0.09885
      19     H     0.44510  0.44510  0.00000  0.10979
      20     H     0.45372  0.45372  0.00000  0.09255

   Total alpha = 32.00000, Total beta = 32.00000, Total charge = -0.00000

*** Psi4 exiting successfully. Buy a developer a beer!
