  ==> Input File <==

--------------------------------------------------------------------------
set {
	reference rhf
	basis cc-pvtz
}

set_num_threads( 4 )
memory 2 gb

molecule MOL {
0 1

H	 -1.835082	 1.385983	 0.000069
C	 -1.300516	 0.441153	 -0.000028
O	 -0.006604	 0.654344	 -0.000106
O	 -1.828920	 -0.612308	 0.000113
C	 0.852093	 -0.482521	 -0.000161
C	 2.255361	 -0.000460	 0.281192
H	 0.783402	 -0.972022	 -0.961216
H	 0.510539	 -1.178237	 0.753021
H	 2.582596	 0.698022	 -0.478420
H	 2.935649	 -0.843677	 0.288052
H	 2.308357	 0.490798	 1.244429

	symmetry c1
}
set optking {
	frozen_dihedral = ("
		7 5 3 2
	")
}

ee = optimize('scf')
oeprop('DIPOLE', 'QUADRUPOLE', 'MULLIKEN_CHARGES')
f=open( 'psi4out.xyz', 'w' )
f.write( "11  " )
f.write( str(ee) + "\n" )
f.write( MOL.save_string_xyz() )
f.close()
--------------------------------------------------------------------------

    Molecular point group: c1
  Charge       = 0
  Multiplicity = 1
  Basis Set: CC-PVTZ
  Basis Set:
  @DF-RHF Final Energy:  -266.93168002413091
    Total Energy =                       -266.9316800241310261
    Molecular point group: c1
  Basis Set: CC-PVTZ
  Basis Set:
  Basis Set: CC-PVTZ
  Basis Set:
  @DF-RHF Final Energy:  -266.93168965669503
    Total Energy =                       -266.9316896566950845
  Basis Set: CC-PVTZ
  Basis Set:
  Basis Set: CC-PVTZ
  Basis Set:
  @DF-RHF Final Energy:  -266.93138715002857
    Total Energy =                       -266.9313871500286268
  Basis Set: CC-PVTZ
  Basis Set:
  Basis Set: CC-PVTZ
  Basis Set:
  @DF-RHF Final Energy:  -266.93170677214096
    Total Energy =                       -266.9317067721407852
  Basis Set: CC-PVTZ
  Basis Set:
  Charge       = 0
  Multiplicity = 1
  Basis Set: CC-PVTZ
  Basis Set:

    Orbital Energies (a.u.)
    -----------------------

    Doubly Occupied:

       1A    -20.605642     2A    -20.545671     3A    -11.370215
       4A    -11.289954     5A    -11.225075     6A     -1.479363
       7A     -1.377480     8A     -1.053874     9A     -0.903975
      10A     -0.805758    11A     -0.741115    12A     -0.693034
      13A     -0.682286    14A     -0.594366    15A     -0.578031
      16A     -0.558118    17A     -0.521558    18A     -0.513882
      19A     -0.463969    20A     -0.457802

  @DF-RHF Final Energy:  -266.93170857339078

   => Energetics <=

    Nuclear Repulsion Energy =            179.6234500034519215
    One-Electron Energy =                -720.1879860110502705
    Two-Electron Energy =                 273.6328274342074565
    DFT Exchange-Correlation Energy =       0.0000000000000000
    Empirical Dispersion Energy =           0.0000000000000000
    PCM Polarization Energy =               0.0000000000000000
    EFP Energy =                            0.0000000000000000
    Total Energy =                       -266.9317085733908925
    Molecular point group: c1
  Basis Set: CC-PVTZ
  Basis Set:

  -Total Gradient:
     Atom            X                  Y                   Z
    ------   -----------------  -----------------  -----------------
       1        0.000010290391     0.000002270989    -0.000010461719
       2       -0.000007754179     0.000008977260     0.000849875588
       3        0.000154992779     0.000131433166    -0.001260821374
       4        0.000017757809    -0.000005084762    -0.000004367092
       5       -0.000864864660    -0.000662815361     0.000735906051
       6       -0.000011759653    -0.000002484386    -0.000001780038
       7        0.000702667580     0.000527678028    -0.000316202401
       8       -0.000003681038    -0.000000979432     0.000002935703
       9       -0.000000075416    -0.000001711942     0.000001986336
      10        0.000001848093     0.000000919674     0.000000220978
      11        0.000000578289     0.000001796766     0.000002707968

  **** Optimization is complete! (in 5 steps) ****
    Final optimized geometry and variables:
    Molecular point group: c1

    Geometry (in Angstrom), charge = 0, multiplicity = 1:

    H           -1.826727776888     1.392604134293    -0.046734380833
    C           -1.296106143874     0.445656412888    -0.058085349290
    O           -0.001348957929     0.654506538217    -0.052235346083
    O           -1.829192660037    -0.605295779546    -0.074344925587
    C            0.857816260217    -0.482017509990    -0.044601243961
    C            2.262325284253     0.003807995555     0.226122410787
    H            0.791249493508    -0.971705010756    -1.006579425307
    H            0.520733132621    -1.174939321961     0.711503835874
    H            2.581418434833     0.705026493707    -0.534411618563
    H            2.945257264668    -0.837365771461     0.225304241639
    H            2.321616291826     0.492973227952     1.190108982793

  Mulliken Charges: (a.u.)
   Center  Symbol    Alpha    Beta     Spin     Total
       1     H     0.44816  0.44816  0.00000  0.10368
       2     C     2.84586  2.84586  0.00000  0.30829
       3     O     4.14450  4.14450  0.00000 -0.28900
       4     O     4.19502  4.19502  0.00000 -0.39003
       5     C     2.97282  2.97282  0.00000  0.05437
       6     C     3.13305  3.13305  0.00000 -0.26609
       7     H     0.45446  0.45446  0.00000  0.09108
       8     H     0.45099  0.45099  0.00000  0.09801
       9     H     0.45029  0.45029  0.00000  0.09941
      10     H     0.45432  0.45432  0.00000  0.09136
      11     H     0.45053  0.45053  0.00000  0.09893

   Total alpha = 20.00000, Total beta = 20.00000, Total charge = -0.00000
