  ==> Input File <==

--------------------------------------------------------------------------
set {
	reference rhf
	basis 6-31G*
}

set_num_threads( 4 )
memory 2 gb

molecule MOL {
0 1

H	 5.268524	 0.192471	 1.070992
C	 4.673736	 -0.214914	 0.259335
C	 3.185378	 -0.203514	 0.605509
H	 4.871837	 0.380453	 -0.627026
H	 5.025590	 -1.224632	 0.065769
C	 2.317601	 -0.778379	 -0.516234
H	 2.874655	 0.814325	 0.817774
H	 3.023650	 -0.778480	 1.515976
C	 2.133758	 -2.294033	 -0.437110
H	 1.342703	 -0.304042	 -0.501301
H	 2.771834	 -0.538810	 -1.475046
C	 1.243737	 -2.758617	 0.706248
H	 1.673659	 -2.656760	 -1.354993
H	 3.094798	 -2.799172	 -0.370679
C	 1.316796	 -4.222936	 1.102664
O	 0.499240	 -2.009452	 1.263815
C	 0.887299	 -5.187412	 -0.012899
H	 0.681284	 -4.348090	 1.971097
H	 2.338553	 -4.449855	 1.401340
C	 0.879155	 -6.645350	 0.450739
H	 -0.107388	 -4.914826	 -0.359180
H	 1.551928	 -5.089974	 -0.867442
C	 0.453318	 -7.615051	 -0.650736
H	 0.210014	 -6.747242	 1.301580
H	 1.871143	 -6.914637	 0.806886
H	 -0.548685	 -7.390613	 -1.004774
H	 1.124915	 -7.561392	 -1.502904
H	 0.455516	 -8.639461	 -0.292328

	symmetry c1
}
set optking {
	frozen_dihedral = ("
		10 6 3 2
	")
}

ee = optimize('scf')
oeprop('DIPOLE', 'QUADRUPOLE', 'MULLIKEN_CHARGES')
f=open( 'psi4out.xyz', 'w' )
f.write( "28  " )
f.write( str(ee) + "\n" )
f.write( MOL.save_string_xyz() )
f.close()
--------------------------------------------------------------------------

    Molecular point group: c1
  Charge       = 0
  Multiplicity = 1
  Basis Set: 6-31G*
  Basis Set:
  @DF-RHF Final Energy:  -426.16584338713972
    Total Energy =                       -426.1658433871398302
    Molecular point group: c1
  Basis Set: 6-31G*
  Basis Set:
  Basis Set: 6-31G*
  Basis Set:
  @DF-RHF Final Energy:  -426.16609445540109
    Total Energy =                       -426.1660944554014350
  Basis Set: 6-31G*
  Basis Set:
  Basis Set: 6-31G*
  Basis Set:
  @DF-RHF Final Energy:  -426.16601447368544
    Total Energy =                       -426.1660144736854363
  Basis Set: 6-31G*
  Basis Set:
  Basis Set: 6-31G*
  Basis Set:
  @DF-RHF Final Energy:  -426.16615993943674
    Total Energy =                       -426.1661599394373070
  Basis Set: 6-31G*
  Basis Set:
  Basis Set: 6-31G*
  Basis Set:
  @DF-RHF Final Energy:  -426.16614977060306
    Total Energy =                       -426.1661497706029422
  Basis Set: 6-31G*
  Basis Set:
  Basis Set: 6-31G*
  Basis Set:
  @DF-RHF Final Energy:  -426.16616337274229
    Total Energy =                       -426.1661633727421759
  Basis Set: 6-31G*
  Basis Set:
  Basis Set: 6-31G*
  Basis Set:
  @DF-RHF Final Energy:  -426.16616480204607
    Total Energy =                       -426.1661648020462962
  Basis Set: 6-31G*
  Basis Set:
  Charge       = 0
  Multiplicity = 1
  Basis Set: 6-31G*
  Basis Set:

    Orbital Energies (a.u.)
    -----------------------

    Doubly Occupied:

       1A    -20.548057     2A    -11.321757     3A    -11.232423
       4A    -11.230055     5A    -11.228804     6A    -11.226088
       7A    -11.216324     8A    -11.216312     9A    -11.212812
      10A    -11.209154    11A     -1.393113    12A     -1.095098
      13A     -1.077086    14A     -1.022067    15A     -0.989884
      16A     -0.909143    17A     -0.877275    18A     -0.809220
      19A     -0.798132    20A     -0.720697    21A     -0.665637
      22A     -0.650906    23A     -0.640211    24A     -0.619501
      25A     -0.602242    26A     -0.597139    27A     -0.576977
      28A     -0.566400    29A     -0.541377    30A     -0.536873
      31A     -0.524485    32A     -0.508078    33A     -0.502297
      34A     -0.484918    35A     -0.480141    36A     -0.475996
      37A     -0.468495    38A     -0.459955    39A     -0.457404
      40A     -0.392393

  @DF-RHF Final Energy:  -426.16616511329585

   => Energetics <=

    Nuclear Repulsion Energy =            534.0766157922757884
    One-Electron Energy =               -1636.3157133965892172
    Two-Electron Energy =                 676.0729324910178093
    DFT Exchange-Correlation Energy =       0.0000000000000000
    Empirical Dispersion Energy =           0.0000000000000000
    PCM Polarization Energy =               0.0000000000000000
    EFP Energy =                            0.0000000000000000
    Total Energy =                       -426.1661651132956194
    Molecular point group: c1
  Basis Set: 6-31G*
  Basis Set:

  -Total Gradient:
     Atom            X                  Y                   Z
    ------   -----------------  -----------------  -----------------
       1        0.000004711747    -0.000004706840    -0.000001741994
       2       -0.000232892839     0.002069239585    -0.000980363427
       3        0.000579707504    -0.002312554141     0.000855645829
       4        0.000008717830     0.000007373873     0.000002342431
       5       -0.000003998994     0.000002129400    -0.000002083692
       6       -0.001366442728    -0.001911045920     0.002140519985
       7        0.000008196771    -0.000009637776    -0.000002065689
       8       -0.000001151065    -0.000018516183     0.000028539216
       9        0.000007831076     0.000007514036    -0.000013039611
      10        0.001024825191     0.002204523447    -0.002055332186
      11       -0.000001647123    -0.000002545609     0.000002333603
      12       -0.000008412527    -0.000004205741     0.000019925453
      13       -0.000008516144    -0.000002595455     0.000017134683
      14        0.000009641331    -0.000003635193    -0.000010003418
      15       -0.000041625971    -0.000017030188    -0.000046520295
      16       -0.000003477617    -0.000020095067     0.000009134960
      17        0.000011221368    -0.000000043975     0.000019119981
      18        0.000001467591    -0.000004343613     0.000000961893
      19        0.000013931972     0.000012635137     0.000008972748
      20        0.000001067956     0.000002710868     0.000005308646
      21       -0.000002092509     0.000005456601    -0.000000632481
      22       -0.000003316861    -0.000004047202     0.000001842425
      23        0.000003528915     0.000003699367    -0.000002252662
      24       -0.000002737380    -0.000001584181    -0.000000792632
      25       -0.000000612542     0.000000456626     0.000003100458
      26        0.000000762570     0.000000065415     0.000000641989
      27       -0.000000024319    -0.000000647449    -0.000001748085
      28        0.000001336798     0.000001430172     0.000001051873

  **** Optimization is complete! (in 8 steps) ****
    Final optimized geometry and variables:
    Molecular point group: c1

    Geometry (in Angstrom), charge = 0, multiplicity = 1:

    H            3.473008818138     3.481356259732     0.808072033207
    C            2.901089779558     3.048142888872    -0.006804305361
    C            1.405573733864     3.035217158860     0.315085750080
    H            3.099904899900     3.634382197649    -0.899280690118
    H            3.287696014655     2.046896710792    -0.179524670485
    C            0.546856080855     2.405701539439    -0.794569445153
    H            1.080710604450     4.060098252964     0.469676010485
    H            1.229061219036     2.524972938259     1.256802882064
    C            0.404656182215     0.887139630963    -0.695801936506
    H           -0.436655068277     2.858846681464    -0.803123929648
    H            0.992603624019     2.642486139545    -1.758276643775
    C           -0.489636688505     0.420273782211     0.443355711896
    H           -0.028160461938     0.496544161431    -1.615259222508
    H            1.375522366096     0.405499754500    -0.603772572433
    C           -0.429444363724    -1.048531261720     0.826641307842
    O           -1.224877049006     1.171094981300     1.010522055426
    C           -0.887426462863    -1.998412144715    -0.290153574711
    H           -1.055099179435    -1.172364673320     1.702389729171
    H            0.592855964790    -1.292095380932     1.109845313929
    C           -0.916147018743    -3.458771672937     0.164922629353
    H           -1.880735198570    -1.706413285772    -0.624284808895
    H           -0.230088831246    -1.907544855977    -1.150997159026
    C           -1.368336580261    -4.414378126742    -0.938363947536
    H           -1.579216427623    -3.554433885486     1.021210170101
    H            0.074309007709    -3.747009763170     0.510389287141
    H           -2.369452120736    -4.170699705765    -1.282026754774
    H           -0.703534043196    -4.367087702023    -1.796214114969
    H           -1.380511366045    -5.440831557828    -0.585995593271

  Mulliken Charges: (a.u.)
   Center  Symbol    Alpha    Beta     Spin     Total
       1     H     0.41859  0.41859  0.00000  0.16282
       2     C     3.24070  3.24070  0.00000 -0.48140
       3     C     3.15538  3.15538  0.00000 -0.31077
       4     H     0.42148  0.42148  0.00000  0.15704
       5     H     0.42560  0.42560  0.00000  0.14881
       6     C     3.15310  3.15310  0.00000 -0.30620
       7     H     0.41749  0.41749  0.00000  0.16501
       8     H     0.41591  0.41591  0.00000  0.16818
       9     C     3.21207  3.21207  0.00000 -0.42414
      10     H     0.40441  0.40441  0.00000  0.19118
      11     H     0.42158  0.42158  0.00000  0.15684
      12     C     2.73165  2.73165  0.00000  0.53669
      13     H     0.40328  0.40328  0.00000  0.19344
      14     H     0.41229  0.41229  0.00000  0.17542
      15     C     3.20168  3.20168  0.00000 -0.40337
      16     O     4.26594  4.26594  0.00000 -0.53187
      17     C     3.16367  3.16367  0.00000 -0.32734
      18     H     0.39976  0.39976  0.00000  0.20049
      19     H     0.41331  0.41331  0.00000  0.17339
      20     C     3.15181  3.15181  0.00000 -0.30361
      21     H     0.41369  0.41369  0.00000  0.17262
      22     H     0.41879  0.41879  0.00000  0.16241
      23     C     3.24034  3.24034  0.00000 -0.48067
      24     H     0.41835  0.41835  0.00000  0.16330
      25     H     0.42145  0.42145  0.00000  0.15709
      26     H     0.41959  0.41959  0.00000  0.16082
      27     H     0.42121  0.42121  0.00000  0.15759
      28     H     0.41688  0.41688  0.00000  0.16624

   Total alpha = 40.00000, Total beta = 40.00000, Total charge = -0.00000
