  ==> Input File <==

--------------------------------------------------------------------------
set {
	reference rhf
	basis 6-31G*
}

set_num_threads( 1 )
memory 2 gb

molecule MOL {
0 1

H	 -3.970048	 0.820419	 -0.462920
C	 -3.243409	 0.274003	 0.106365
C	 -2.116093	 -0.096713	 -0.455533
H	 -3.462338	 0.043567	 1.131977
O	 -1.180634	 -0.819263	 0.215062
H	 -1.874669	 0.130311	 -1.478944
C	 0.051604	 -1.018856	 -0.387932
C	 1.043764	 0.054862	 -0.001873
H	 -0.017620	 -1.041351	 -1.469781
H	 0.437898	 -1.966374	 -0.042284
F	 2.212596	 -0.199467	 -0.571921
F	 0.652529	 1.252447	 -0.405055
F	 1.230877	 0.110694	 1.300533

	symmetry c1
}
set optking {
	frozen_dihedral = ("
		11 8 7 9,
		6 3 2 1,
		6 3 5 7
	")
}

ee = energy('scf')
oeprop('DIPOLE', 'QUADRUPOLE', 'MULLIKEN_CHARGES')
f=open( 'psi4out.xyz', 'w' )
f.write( "13  " )
f.write( str(ee) + "\n" )
f.write( MOL.save_string_xyz() )
f.close()
--------------------------------------------------------------------------

    Molecular point group: c1

    Geometry (in Angstrom), charge = 0, multiplicity = 1:

       Center              X                  Y                   Z               Mass
    ------------   -----------------  -----------------  -----------------  -----------------
           H         -3.960585381244     0.839983704321    -0.450059234138     1.007825032070
           C         -3.233946381244     0.293567704321     0.119225765862    12.000000000000
           C         -2.106630381244    -0.077148295679    -0.442672234138    12.000000000000
           H         -3.452875381244     0.063131704321     1.144837765862     1.007825032070
           O         -1.171171381244    -0.799698295679     0.227922765862    15.994914619560
           H         -1.865206381244     0.149875704321    -1.466083234138     1.007825032070
           C          0.061066618756    -0.999291295679    -0.375071234138    12.000000000000
           C          1.053226618756     0.074426704321     0.010987765862    12.000000000000
           H         -0.008157381244    -1.021786295679    -1.456920234138     1.007825032070
           H          0.447360618756    -1.946809295679    -0.029423234138     1.007825032070
           F          2.222058618756    -0.179902295679    -0.559060234138    18.998403224000
           F          0.661991618756     1.272011704321    -0.392194234138    18.998403224000
           F          1.240339618756     0.130258704321     1.313393765862    18.998403224000

  Charge       = 0
  Multiplicity = 1
  Basis Set: 6-31G*
  Basis Set:

    Orbital Energies (a.u.)
    -----------------------

    Doubly Occupied:

       1A    -26.344375     2A    -26.342683     3A    -26.340227
       4A    -20.608696     5A    -11.502850     6A    -11.318942
       7A    -11.300053     8A    -11.216080     9A     -1.741195
      10A     -1.639336    11A     -1.637673    12A     -1.438454
      13A     -1.084497    14A     -1.016447    15A     -0.924921
      16A     -0.836404    17A     -0.830486    18A     -0.819362
      19A     -0.794022    20A     -0.721235    21A     -0.711198
      22A     -0.696231    23A     -0.675931    24A     -0.659978
      25A     -0.654203    26A     -0.642566    27A     -0.634563
      28A     -0.583369    29A     -0.563332    30A     -0.523949
      31A     -0.515600    32A     -0.351656

  @DF-RHF Final Energy:  -527.53581643633515

   => Energetics <=

    Nuclear Repulsion Energy =            412.6064517929471549
    One-Electron Energy =               -1548.9433899933496832
    Two-Electron Energy =                 608.8011217640674886
    DFT Exchange-Correlation Energy =       0.0000000000000000
    Empirical Dispersion Energy =           0.0000000000000000
    PCM Polarization Energy =               0.0000000000000000
    EFP Energy =                            0.0000000000000000
    Total Energy =                       -527.5358164363350397

  Mulliken Charges: (a.u.)
   Center  Symbol    Alpha    Beta     Spin     Total
       1     H     0.40707  0.40707  0.00000  0.18585
       2     C     3.23563  3.23563  0.00000 -0.47126
       3     C     2.89511  2.89511  0.00000  0.20977
       4     H     0.40159  0.40159  0.00000  0.19682
       5     O     4.30162  4.30162  0.00000 -0.60325
       6     H     0.40719  0.40719  0.00000  0.18562
       7     C     3.06308  3.06308  0.00000 -0.12615
       8     C     2.45518  2.45518  0.00000  1.08964
       9     H     0.40578  0.40578  0.00000  0.18844
      10     H     0.39073  0.39073  0.00000  0.21855
      11     F     4.68282  4.68282  0.00000 -0.36563
      12     F     4.67960  4.67960  0.00000 -0.35921
      13     F     4.67460  4.67460  0.00000 -0.34919

   Total alpha = 32.00000, Total beta = 32.00000, Total charge = -0.00000
