  ==> Input File <==

--------------------------------------------------------------------------
set {
	reference rhf
	basis 6-31G*
}

set_num_threads( 4 )
memory 2 gb

molecule MOL {
0 1

H	 -3.892951	 0.981613	 -0.358725
C	 -3.196921	 0.361773	 0.172313
C	 -2.076860	 -0.007332	 -0.404944
H	 -3.439953	 0.057760	 1.173024
O	 -1.180634	 -0.819263	 0.215062
H	 -1.811520	 0.292194	 -1.403480
C	 0.051604	 -1.018856	 -0.387932
C	 1.043764	 0.054862	 -0.001873
H	 -0.017620	 -1.041351	 -1.469781
H	 0.437898	 -1.966374	 -0.042284
F	 2.138762	 -0.511064	 0.484452
F	 1.400045	 0.790663	 -1.041821
F	 0.562919	 0.865470	 0.917960

	symmetry c1
}
set optking {
	frozen_dihedral = ("
		11 8 7 9
	")
}

ee = optimize('scf')
oeprop('DIPOLE', 'QUADRUPOLE', 'MULLIKEN_CHARGES')
f=open( 'psi4out.xyz', 'w' )
f.write( "13  " )
f.write( str(ee) + "\n" )
f.write( MOL.save_string_xyz() )
f.close()
--------------------------------------------------------------------------

    Molecular point group: c1
  Charge       = 0
  Multiplicity = 1
  Basis Set: 6-31G*
  Basis Set:
  @DF-RHF Final Energy:  -527.52857971709693
    Total Energy =                       -527.5285797170971591
    Molecular point group: c1
  Basis Set: 6-31G*
  Basis Set:
  Basis Set: 6-31G*
  Basis Set:
  @DF-RHF Final Energy:  -527.52913792998186
    Total Energy =                       -527.5291379299818573
  Basis Set: 6-31G*
  Basis Set:
  Basis Set: 6-31G*
  Basis Set:
  @DF-RHF Final Energy:  -527.52939632001176
    Total Energy =                       -527.5293963200117560
  Basis Set: 6-31G*
  Basis Set:
  Basis Set: 6-31G*
  Basis Set:
  @DF-RHF Final Energy:  -527.52942188639292
    Total Energy =                       -527.5294218863929245
  Basis Set: 6-31G*
  Basis Set:
  @DF-RHF Final Energy:  -527.52943699333173
    Total Energy =                       -527.5294369933319558
  @DF-RHF Final Energy:  -527.52944010299029
    Total Energy =                       -527.5294401029906339
  @DF-RHF Final Energy:  -527.52944192686891
    Total Energy =                       -527.5294419268691399
  Basis Set: 6-31G*
  Basis Set:
  @DF-RHF Final Energy:  -527.52944359567641
    Total Energy =                       -527.5294435956758434
  Basis Set: 6-31G*
  Basis Set:
  Basis Set: 6-31G*
  Basis Set:
  @DF-RHF Final Energy:  -527.52944662001448
    Total Energy =                       -527.5294466200143688
  Basis Set: 6-31G*
  Basis Set:
  Basis Set: 6-31G*
  Basis Set:
  @DF-RHF Final Energy:  -527.52944890781487
    Total Energy =                       -527.5294489078146398
  Basis Set: 6-31G*
  Basis Set:
  Charge       = 0
  Multiplicity = 1
  Basis Set: 6-31G*
  Basis Set:

    Orbital Energies (a.u.)
    -----------------------

    Doubly Occupied:

       1A    -26.342837     2A    -26.342352     3A    -26.342174
       4A    -20.606865     5A    -11.504968     6A    -11.318668
       7A    -11.299346     8A    -11.216612     9A     -1.742194
      10A     -1.639119    11A     -1.638039    12A     -1.437488
      13A     -1.079909    14A     -1.015191    15A     -0.925562
      16A     -0.837267    17A     -0.829338    18A     -0.821786
      19A     -0.789707    20A     -0.723138    21A     -0.716054
      22A     -0.695073    23A     -0.674815    24A     -0.660321
      25A     -0.655268    26A     -0.642344    27A     -0.626382
      28A     -0.584710    29A     -0.562377    30A     -0.524383
      31A     -0.511613    32A     -0.351801

  @DF-RHF Final Energy:  -527.52944922356551

   => Energetics <=

    Nuclear Repulsion Energy =            413.1292285209879651
    One-Electron Energy =               -1550.0019521039780557
    Two-Electron Energy =                 609.3432743594250951
    DFT Exchange-Correlation Energy =       0.0000000000000000
    Empirical Dispersion Energy =           0.0000000000000000
    PCM Polarization Energy =               0.0000000000000000
    EFP Energy =                            0.0000000000000000
    Total Energy =                       -527.5294492235650523
    Molecular point group: c1
  Basis Set: 6-31G*
  Basis Set:

  -Total Gradient:
     Atom            X                  Y                   Z
    ------   -----------------  -----------------  -----------------
       1        0.000002479325     0.000000943278     0.000000261934
       2       -0.000003931930     0.000001718929     0.000002921827
       3        0.000016699164    -0.000019538614     0.000006131063
       4        0.000000530202    -0.000000745234     0.000000146487
       5        0.000029395660     0.000011344794    -0.000033007630
       6       -0.000000540068     0.000002540435    -0.000000536574
       7        0.001630643810    -0.001661758243     0.000471123850
       8        0.000514974728     0.000193324061    -0.002189476921
       9       -0.001530941205     0.001385407863     0.000035337582
      10       -0.000000955667     0.000000844385     0.000004730289
      11       -0.000627836742     0.000112062410     0.001585307534
      12       -0.000009281960    -0.000051794060     0.000077116479
      13       -0.000021235316     0.000025650002     0.000039944081

  **** Optimization is complete! (in 11 steps) ****
    Final optimized geometry and variables:
    Molecular point group: c1

    Geometry (in Angstrom), charge = 0, multiplicity = 1:

    H           -3.855717391058     1.035800500682    -0.323070811239
    C           -3.219606972391     0.327703931964     0.171498532626
    C           -2.037721074114     0.048285639899    -0.327681899709
    H           -3.570815390985    -0.134711018654     1.074821852434
    O           -1.201920155540    -0.850246550319     0.254582051448
    H           -1.667166654971     0.506139565845    -1.228878045281
    C            0.033493328742    -1.054910649410    -0.339608034624
    C            1.044132019230     0.055803500577    -0.021552773458
    H           -0.057100382604    -1.125518948965    -1.417157045711
    H            0.420426236848    -1.983167354782     0.049664151031
    F            2.162994407924    -0.454183256238     0.468170103669
    F            1.370309453704     0.734184846890    -1.113698743120
    F            0.581764692505     0.919667815578     0.855818208891

  Mulliken Charges: (a.u.)
   Center  Symbol    Alpha    Beta     Spin     Total
       1     H     0.40686  0.40686  0.00000  0.18628
       2     C     3.23513  3.23513  0.00000 -0.47026
       3     C     2.89822  2.89822  0.00000  0.20355
       4     H     0.40186  0.40186  0.00000  0.19627
       5     O     4.29786  4.29786  0.00000 -0.59573
       6     H     0.40615  0.40615  0.00000  0.18770
       7     C     3.08166  3.08166  0.00000 -0.16331
       8     C     2.44825  2.44825  0.00000  1.10349
       9     H     0.40030  0.40030  0.00000  0.19939
      10     H     0.38454  0.38454  0.00000  0.23092
      11     F     4.68284  4.68284  0.00000 -0.36568
      12     F     4.68414  4.68414  0.00000 -0.36827
      13     F     4.67218  4.67218  0.00000 -0.34435

   Total alpha = 32.00000, Total beta = 32.00000, Total charge =  0.00000
