  ==> Input File <==

--------------------------------------------------------------------------
set {
	reference rhf
	basis 6-31G*
}

set_num_threads( 4 )
memory 2 gb

molecule MOL {
0 1

H	 2.591676	 2.013956	 0.335017
O	 3.341076	 1.666752	 -0.126416
C	 3.569581	 0.339145	 0.272707
C	 2.539767	 -0.640285	 -0.279495
H	 4.553106	 0.084646	 -0.100901
H	 3.608576	 0.269204	 1.359154
C	 1.115811	 -0.397273	 0.226630
H	 2.556196	 -0.582511	 -1.364741
H	 2.852081	 -1.648031	 -0.010655
C	 0.115918	 -1.429151	 -0.302766
H	 0.797950	 0.599468	 -0.066350
H	 1.109961	 -0.420744	 1.316472
C	 -1.350286	 -1.138983	 0.038391
H	 0.224569	 -1.511629	 -1.382691
H	 0.377296	 -2.404188	 0.103049
C	 -1.931477	 0.111583	 -0.627027
H	 -1.946935	 -1.998880	 -0.258936
H	 -1.458262	 -1.055982	 1.118803
C	 -3.422871	 0.300298	 -0.341430
H	 -1.777863	 0.049770	 -1.703452
H	 -1.395378	 0.996676	 -0.293093
C	 -4.004073	 1.551374	 -0.999212
H	 -3.968942	 -0.575116	 -0.686313
H	 -3.579460	 0.352532	 0.734041
H	 -3.892193	 1.514446	 -2.079186
H	 -5.062190	 1.656080	 -0.779984
H	 -3.503272	 2.448784	 -0.646768

	symmetry c1
}
set optking {
	frozen_dihedral = ("
		14 10 7 4
	")
}

ee = optimize('scf')
oeprop('DIPOLE', 'QUADRUPOLE', 'MULLIKEN_CHARGES')
f=open( 'psi4out.xyz', 'w' )
f.write( "27  " )
f.write( str(ee) + "\n" )
f.write( MOL.save_string_xyz() )
f.close()
--------------------------------------------------------------------------

    Molecular point group: c1
  Charge       = 0
  Multiplicity = 1
  Basis Set: 6-31G*
  Basis Set:
  @DF-RHF Final Energy:  -388.28135560002983
    Total Energy =                       -388.2813556000298831
    Molecular point group: c1
  Basis Set: 6-31G*
  Basis Set:
  Basis Set: 6-31G*
  Basis Set:
  @DF-RHF Final Energy:  -388.28117291457056
    Total Energy =                       -388.2811729145711297
  Basis Set: 6-31G*
  Basis Set:
  Basis Set: 6-31G*
  Basis Set:
  @DF-RHF Final Energy:  -388.28143405652048
    Total Energy =                       -388.2814340565208795
  Basis Set: 6-31G*
  Basis Set:
  Basis Set: 6-31G*
  Basis Set:
  @DF-RHF Final Energy:  -388.28144186412300
    Total Energy =                       -388.2814418641225984
  Basis Set: 6-31G*
  Basis Set:
  Basis Set: 6-31G*
  Basis Set:
  @DF-RHF Final Energy:  -388.28144444116759
    Total Energy =                       -388.2814444411683326
  Basis Set: 6-31G*
  Basis Set:
  Basis Set: 6-31G*
  Basis Set:
  @DF-RHF Final Energy:  -388.28144739731715
    Total Energy =                       -388.2814473973181748
  Basis Set: 6-31G*
  Basis Set:
  Charge       = 0
  Multiplicity = 1
  Basis Set: 6-31G*
  Basis Set:

    Orbital Energies (a.u.)
    -----------------------

    Doubly Occupied:

       1A    -20.552335     2A    -11.267047     3A    -11.219726
       4A    -11.217325     5A    -11.215977     6A    -11.215798
       7A    -11.215274     8A    -11.214092     9A    -11.209168
      10A     -1.359078    11A     -1.094998    12A     -1.061530
      13A     -1.011432    14A     -0.948625    15A     -0.887824
      16A     -0.820087    17A     -0.800643    18A     -0.779376
      19A     -0.694054    20A     -0.649112    21A     -0.639403
      22A     -0.614655    23A     -0.601921    24A     -0.581611
      25A     -0.580576    26A     -0.552999    27A     -0.540702
      28A     -0.530530    29A     -0.505717    30A     -0.494023
      31A     -0.484759    32A     -0.474063    33A     -0.469865
      34A     -0.461221    35A     -0.451351    36A     -0.441738
      37A     -0.423042

  @DF-RHF Final Energy:  -388.28144732585235

   => Energetics <=

    Nuclear Repulsion Energy =            459.8625305457092054
    One-Electron Energy =               -1437.7246003204095359
    Two-Electron Energy =                 589.5806224488475209
    DFT Exchange-Correlation Energy =       0.0000000000000000
    Empirical Dispersion Energy =           0.0000000000000000
    PCM Polarization Energy =               0.0000000000000000
    EFP Energy =                            0.0000000000000000
    Total Energy =                       -388.2814473258528096
    Molecular point group: c1
  Basis Set: 6-31G*
  Basis Set:

  -Total Gradient:
     Atom            X                  Y                   Z
    ------   -----------------  -----------------  -----------------
       1        0.000008259102    -0.000001578766    -0.000000138105
       2        0.000004896980    -0.000003622575    -0.000004949767
       3       -0.000006558682    -0.000000187572     0.000021097916
       4       -0.000226414330     0.000759320717    -0.000993681855
       5       -0.000002947202     0.000001006114    -0.000000895948
       6        0.000002987135     0.000001787524     0.000003270873
       7        0.000597393922    -0.001350013282     0.001415242672
       8        0.000001261883     0.000006041163    -0.000001936854
       9       -0.000006604596     0.000000408143    -0.000004131933
      10       -0.001509817263     0.001846184888    -0.000628990137
      11       -0.000006895430    -0.000010108127    -0.000011597095
      12        0.000000494764     0.000010716357    -0.000003653408
      13       -0.000020994891    -0.000014229741    -0.000007229177
      14        0.001167745221    -0.001268060025     0.000198776803
      15        0.000008779073     0.000007320679    -0.000005734031
      16        0.000005738877     0.000012054287     0.000021370862
      17       -0.000010590625    -0.000002682428     0.000004705407
      18       -0.000009905851     0.000006277469    -0.000006384636
      19       -0.000002929920    -0.000001335651    -0.000001877122
      20       -0.000000974693     0.000002516180     0.000007335836
      21        0.000007489310     0.000003454869     0.000003374381
      22       -0.000000990392    -0.000004913537    -0.000004813333
      23        0.000001910860    -0.000004697062     0.000006020572
      24       -0.000000742367     0.000006838222    -0.000001828998
      25       -0.000002009551     0.000000922015    -0.000002657709
      26        0.000000307342    -0.000000770243    -0.000000222671
      27        0.000001111319    -0.000002649619    -0.000000472546

  **** Optimization is complete! (in 7 steps) ****
    Final optimized geometry and variables:
    Molecular point group: c1

    Geometry (in Angstrom), charge = 0, multiplicity = 1:

    H            2.601663721154     1.905088492187     0.669864110499
    O            3.345338358504     1.568925817289     0.191235240629
    C            3.554065539525     0.220792968950     0.527438268748
    C            2.507118823540    -0.715124222101    -0.066231124726
    H            4.532416667372    -0.031194393803     0.138895827284
    H            3.594944224813     0.099739517010     1.609285304175
    C            1.086862578115    -0.465124330930     0.446757331226
    H            2.524920484357    -0.612253818008    -1.147902894023
    H            2.800753343989    -1.739080717256     0.160020913082
    C            0.075070884209    -1.479517528528    -0.095069078524
    H            0.783772493432     0.539159115064     0.163885651766
    H            1.077029117615    -0.499537767202     1.535973330039
    C           -1.386358705257    -1.193959111426     0.269135035633
    H            0.177861382676    -1.549952229907    -1.176401520002
    H            0.341053657875    -2.462315290418     0.289238197150
    C           -1.996982637203     0.025593093467    -0.426992150600
    H           -1.980465575642    -2.069232991588     0.015126702571
    H           -1.471370332996    -1.075193176395     1.348338105987
    C           -3.476765433773     0.224248018095    -0.091828356309
    H           -1.885535745238    -0.084841976371    -1.504571614092
    H           -1.451575573148     0.926095579845    -0.155544826542
    C           -4.089942849794     1.438073962423    -0.789174567011
    H           -4.031829950473    -0.669351883371    -0.369189365559
    H           -3.590708794737     0.331326291229     0.984946550121
    H           -4.021912987266     1.345404253526    -1.869432346557
    H           -5.138734265732     1.551365335701    -0.532592484252
    H           -3.579290803716     2.353770390471    -0.504459410781

  Mulliken Charges: (a.u.)
   Center  Symbol    Alpha    Beta     Spin     Total
       1     H     0.27985  0.27985  0.00000  0.44029
       2     O     4.37095  4.37095  0.00000 -0.74189
       3     C     2.99742  2.99742  0.00000  0.00515
       4     C     3.16114  3.16114  0.00000 -0.32228
       5     H     0.41445  0.41445  0.00000  0.17109
       6     H     0.43198  0.43198  0.00000  0.13605
       7     C     3.16355  3.16355  0.00000 -0.32710
       8     H     0.41479  0.41479  0.00000  0.17042
       9     H     0.42440  0.42440  0.00000  0.15120
      10     C     3.15262  3.15262  0.00000 -0.30524
      11     H     0.42274  0.42274  0.00000  0.15452
      12     H     0.42506  0.42506  0.00000  0.14989
      13     C     3.15375  3.15375  0.00000 -0.30751
      14     H     0.42169  0.42169  0.00000  0.15662
      15     H     0.42146  0.42146  0.00000  0.15709
      16     C     3.15207  3.15207  0.00000 -0.30413
      17     H     0.42108  0.42108  0.00000  0.15784
      18     H     0.42438  0.42438  0.00000  0.15124
      19     C     3.15125  3.15125  0.00000 -0.30250
      20     H     0.42339  0.42339  0.00000  0.15321
      21     H     0.42371  0.42371  0.00000  0.15257
      22     C     3.23917  3.23917  0.00000 -0.47834
      23     H     0.42292  0.42292  0.00000  0.15416
      24     H     0.42340  0.42340  0.00000  0.15320
      25     H     0.42139  0.42139  0.00000  0.15722
      26     H     0.41928  0.41928  0.00000  0.16145
      27     H     0.42212  0.42212  0.00000  0.15575

   Total alpha = 37.00000, Total beta = 37.00000, Total charge = -0.00000
