  ==> Input File <==

--------------------------------------------------------------------------
set {
	reference rhf
	basis cc-pvtz
}

set_num_threads( 4 )
memory 2 gb

molecule MOL {
0 1

H	 -0.121011	 -0.556895	 -2.618599
C	 -0.702248	 0.207382	 -2.112944
O	 -0.775228	 0.000056	 -0.739966
H	 -1.714632	 0.163415	 -2.488838
H	 -0.290416	 1.179145	 -2.365342
C	 0.406133	 -0.000384	 0.036994
C	 1.526415	 -0.003194	 -0.997339
C	 0.498772	 1.259027	 0.900673
C	 0.495883	 -1.257378	 0.904465
H	 1.452279	 0.872071	 -1.630204
H	 1.451276	 -0.881020	 -1.626529
H	 2.497919	 -0.002741	 -0.517601
H	 0.368981	 2.144239	 0.289753
H	 1.470064	 1.313479	 1.377660
H	 -0.248448	 1.271586	 1.684297
H	 0.363971	 -2.144195	 0.296316
H	 1.467114	 -1.312636	 1.381470
H	 -0.251246	 -1.265768	 1.688235

	symmetry c1
}
set optking {
	frozen_dihedral = ("
		2 3 6 7
	")
}

ee = optimize('scf')
oeprop('DIPOLE', 'QUADRUPOLE', 'MULLIKEN_CHARGES')
f=open( 'psi4out.xyz', 'w' )
f.write( "18  " )
f.write( str(ee) + "\n" )
f.write( MOL.save_string_xyz() )
f.close()
--------------------------------------------------------------------------

    Molecular point group: c1
  Charge       = 0
  Multiplicity = 1
  Basis Set: CC-PVTZ
  Basis Set:
  @DF-RHF Final Energy:  -271.25768947061420
    Total Energy =                       -271.2576894706144799
    Molecular point group: c1
  Basis Set: CC-PVTZ
  Basis Set:
  Basis Set: CC-PVTZ
  Basis Set:
  @DF-RHF Final Energy:  -271.26377344434758
    Total Energy =                       -271.2637734443479189
  Basis Set: CC-PVTZ
  Basis Set:
  Basis Set: CC-PVTZ
  Basis Set:
  @DF-RHF Final Energy:  -271.26965160826649
    Total Energy =                       -271.2696516082664857
  Basis Set: CC-PVTZ
  Basis Set:
  Basis Set: CC-PVTZ
  Basis Set:
  @DF-RHF Final Energy:  -271.27216794584319
    Total Energy =                       -271.2721679458433073
  Basis Set: CC-PVTZ
  Basis Set:
  @DF-RHF Final Energy:  -271.27252744249137
    Total Energy =                       -271.2725274424914232
  @DF-RHF Final Energy:  -271.27264913085310
    Total Energy =                       -271.2726491308531536
  Basis Set: CC-PVTZ
  Basis Set:
  @DF-RHF Final Energy:  -271.27266853360595
    Total Energy =                       -271.2726685336061792
  Basis Set: CC-PVTZ
  Basis Set:
  Basis Set: CC-PVTZ
  Basis Set:
  @DF-RHF Final Energy:  -271.27267545001217
    Total Energy =                       -271.2726754500125139
  Basis Set: CC-PVTZ
  Basis Set:
  Basis Set: CC-PVTZ
  Basis Set:
  @DF-RHF Final Energy:  -271.27267679973954
    Total Energy =                       -271.2726767997393154
  Basis Set: CC-PVTZ
  Basis Set:
  Charge       = 0
  Multiplicity = 1
  Basis Set: CC-PVTZ
  Basis Set:

    Orbital Energies (a.u.)
    -----------------------

    Doubly Occupied:

       1A    -20.537272     2A    -11.280700     3A    -11.259489
       4A    -11.211619     5A    -11.202336     6A    -11.202122
       7A     -1.369550     8A     -1.075528     9A     -0.951497
      10A     -0.935614    11A     -0.912318    12A     -0.752232
      13A     -0.657654    14A     -0.648057    15A     -0.638582
      16A     -0.583032    17A     -0.577899    18A     -0.548921
      19A     -0.542601    20A     -0.526982    21A     -0.515340
      22A     -0.491444    23A     -0.484208    24A     -0.443397
      25A     -0.398993

  @DF-RHF Final Energy:  -271.27267682780115

   => Energetics <=

    Nuclear Repulsion Energy =            272.0624546476526007
    One-Electron Energy =                -907.1754848597415730
    Two-Electron Energy =                 363.8403533842875390
    DFT Exchange-Correlation Energy =       0.0000000000000000
    Empirical Dispersion Energy =           0.0000000000000000
    PCM Polarization Energy =               0.0000000000000000
    EFP Energy =                            0.0000000000000000
    Total Energy =                       -271.2726768278013765
    Molecular point group: c1
  Basis Set: CC-PVTZ
  Basis Set:

  -Total Gradient:
     Atom            X                  Y                   Z
    ------   -----------------  -----------------  -----------------
       1       -0.000010922628     0.000006433419    -0.000002732049
       2        0.000152907274    -0.001878421826    -0.000289957860
       3       -0.000222947545     0.003543963810     0.000428019507
       4        0.000000437586    -0.000000344967     0.000001065331
       5        0.000004103520     0.000003647180     0.000001517540
       6        0.000081211010    -0.003265930849    -0.000132674525
       7        0.000003186676     0.001589239187    -0.000015888327
       8       -0.000003632943    -0.000001164977     0.000002361114
       9       -0.000003060262     0.000001749645     0.000005520269
      10       -0.000003437463     0.000001289622    -0.000008704701
      11        0.000010126750     0.000001603792     0.000007957608
      12       -0.000005525411     0.000002249544     0.000003341990
      13       -0.000001989068     0.000000666476     0.000000224896
      14        0.000003134465     0.000001582149    -0.000001536790
      15        0.000001466620    -0.000001311221     0.000002751153
      16        0.000000866657    -0.000000765534    -0.000002930574
      17       -0.000003915258     0.000000886070    -0.000000056016
      18       -0.000002009984    -0.000005371518     0.000001721433

  **** Optimization is complete! (in 10 steps) ****
    Final optimized geometry and variables:
    Molecular point group: c1

    Geometry (in Angstrom), charge = 0, multiplicity = 1:

    H           -0.603405052591    -0.603205340540    -2.279946597925
    C           -1.112027744648     0.164907484153    -1.707057561589
    O           -1.014018094628    -0.034851442304    -0.335635968008
    H           -2.164711136910     0.123686311403    -1.949101787011
    H           -0.734122932875     1.135268202299    -2.016805492725
    C            0.235811606870    -0.035261633079     0.339555777368
    C            1.447520247676    -0.041280839441    -0.593201564535
    C            0.264935792947     1.220028772422     1.211118198411
    C            0.238644545789    -1.288966507892     1.208675729209
    H            1.481301730753     0.838113541094    -1.222933715148
    H            1.465206701918    -0.919690716507    -1.226049160419
    H            2.349939502198    -0.050503417145     0.005060868932
    H            0.230705544619     2.111027496713     0.594503175039
    H            1.163890661167     1.259806200530     1.816135117611
    H           -0.594691389002     1.234272206643     1.868878583494
    H            0.212328202474    -2.177943042598     0.589782101337
    H            1.123604513838    -1.330672953163     1.833653648661
    H           -0.635308313690    -1.298358057371     1.847296762640

  Mulliken Charges: (a.u.)
   Center  Symbol    Alpha    Beta     Spin     Total
       1     H     0.46865  0.46865  0.00000  0.06269
       2     C     3.04101  3.04101  0.00000 -0.08202
       3     O     4.19950  4.19950  0.00000 -0.39901
       4     H     0.44264  0.44264  0.00000  0.11471
       5     H     0.47000  0.47000  0.00000  0.05999
       6     C     2.87050  2.87050  0.00000  0.25900
       7     C     3.17683  3.17683  0.00000 -0.35366
       8     C     3.14304  3.14304  0.00000 -0.28607
       9     C     3.14048  3.14048  0.00000 -0.28096
      10     H     0.44436  0.44436  0.00000  0.11128
      11     H     0.44510  0.44510  0.00000  0.10980
      12     H     0.44244  0.44244  0.00000  0.11511
      13     H     0.45187  0.45187  0.00000  0.09626
      14     H     0.45703  0.45703  0.00000  0.08594
      15     H     0.44810  0.44810  0.00000  0.10380
      16     H     0.45223  0.45223  0.00000  0.09554
      17     H     0.45860  0.45860  0.00000  0.08279
      18     H     0.44760  0.44760  0.00000  0.10479

   Total alpha = 25.00000, Total beta = 25.00000, Total charge = -0.00000
