  ==> Input File <==

--------------------------------------------------------------------------
set {
	reference rhf
	basis 6-31G*
}

set_num_threads( 4 )
memory 2 gb

molecule MOL {
0 1

O	 -2.821601	 1.309235	 -0.001213
C	 -2.668563	 0.129746	 -0.000350
C	 -3.801572	 -0.864014	 -0.000442
O	 -1.481751	 -0.454642	 0.000584
H	 -4.417280	 -0.689587	 -0.874708
H	 -3.443784	 -1.883046	 -0.000565
H	 -4.417179	 -0.689832	 0.873954
C	 -0.334255	 0.388708	 0.000906
C	 0.891947	 -0.504646	 0.000751
H	 -0.365390	 1.025305	 -0.873475
H	 -0.365484	 1.024911	 0.875569
C	 2.191998	 0.301789	 0.000897
H	 0.855148	 -1.151283	 -0.871571
H	 0.855132	 -1.151660	 0.872805
C	 3.441114	 -0.581407	 0.000108
H	 2.215074	 0.954890	 -0.869742
H	 2.215465	 0.953923	 0.872248
C	 3.145687	 -2.030492	 0.384483
H	 4.174392	 -0.167165	 0.688426
H	 3.898969	 -0.555205	 -0.986174
H	 2.717640	 -2.092533	 1.380947
H	 4.049829	 -2.631054	 0.375131
H	 2.440433	 -2.483588	 -0.306408

	symmetry c1
}
set optking {
	frozen_dihedral = ("
		19 15 12 16
	")
}

ee = optimize('scf')
oeprop('DIPOLE', 'QUADRUPOLE', 'MULLIKEN_CHARGES')
f=open( 'psi4out.xyz', 'w' )
f.write( "23  " )
f.write( str(ee) + "\n" )
f.write( MOL.save_string_xyz() )
f.close()
--------------------------------------------------------------------------

    Molecular point group: c1
  Charge       = 0
  Multiplicity = 1
  Basis Set: 6-31G*
  Basis Set:
  @DF-RHF Final Energy:  -422.96742041275678
    Total Energy =                       -422.9674204127572921
    Molecular point group: c1
  Basis Set: 6-31G*
  Basis Set:
  Basis Set: 6-31G*
  Basis Set:
  @DF-RHF Final Energy:  -422.96765799301249
    Total Energy =                       -422.9676579930126081
  Basis Set: 6-31G*
  Basis Set:
  Basis Set: 6-31G*
  Basis Set:
  @DF-RHF Final Energy:  -422.97067056391842
    Total Energy =                       -422.9706705639184747
  Basis Set: 6-31G*
  Basis Set:
  Basis Set: 6-31G*
  Basis Set:
  @DF-RHF Final Energy:  -422.97102019509919
    Total Energy =                       -422.9710201950998680
  Basis Set: 6-31G*
  Basis Set:
  Basis Set: 6-31G*
  Basis Set:
  @DF-RHF Final Energy:  -422.97092412079905
    Total Energy =                       -422.9709241207989407
  Basis Set: 6-31G*
  Basis Set:
  Basis Set: 6-31G*
  Basis Set:
  @DF-RHF Final Energy:  -422.97076938250768
    Total Energy =                       -422.9707693825076831
  Basis Set: 6-31G*
  Basis Set:
  Basis Set: 6-31G*
  Basis Set:
  @DF-RHF Final Energy:  -422.97106119408897
    Total Energy =                       -422.9710611940895433
  Basis Set: 6-31G*
  Basis Set:
  Charge       = 0
  Multiplicity = 1
  Basis Set: 6-31G*
  Basis Set:

    Orbital Energies (a.u.)
    -----------------------

    Doubly Occupied:

       1A    -20.602815     2A    -20.540397     3A    -11.373955
       4A    -11.281168     5A    -11.232294     6A    -11.224761
       7A    -11.223351     8A    -11.222412     9A    -11.212714
      10A     -1.467783    11A     -1.360585    12A     -1.091843
      13A     -1.039383    14A     -1.001333    15A     -0.930744
      16A     -0.858108    17A     -0.788898    18A     -0.768299
      19A     -0.692066    20A     -0.684285    21A     -0.669777
      22A     -0.644274    23A     -0.607700    24A     -0.602660
      25A     -0.573850    26A     -0.567277    27A     -0.548870
      28A     -0.536509    29A     -0.529796    30A     -0.505366
      31A     -0.500575    32A     -0.469018    33A     -0.467291
      34A     -0.459508    35A     -0.451153    36A     -0.435113

  @DF-RHF Final Energy:  -422.97106214218991

   => Energetics <=

    Nuclear Repulsion Energy =            455.1424430228172469
    One-Electron Energy =               -1477.8951532435428362
    Two-Electron Energy =                 599.7816480785349995
    DFT Exchange-Correlation Energy =       0.0000000000000000
    Empirical Dispersion Energy =           0.0000000000000000
    PCM Polarization Energy =               0.0000000000000000
    EFP Energy =                            0.0000000000000000
    Total Energy =                       -422.9710621421905898
    Molecular point group: c1
  Basis Set: 6-31G*
  Basis Set:

  -Total Gradient:
     Atom            X                  Y                   Z
    ------   -----------------  -----------------  -----------------
       1       -0.000008449371    -0.000011649551     0.000004371675
       2       -0.000007761686     0.000008969349     0.000004831959
       3        0.000003869618     0.000005929159    -0.000003219777
       4        0.000003412462    -0.000008146816     0.000011066179
       5        0.000000932241    -0.000001409302    -0.000000270071
       6        0.000002294965     0.000000765404    -0.000000577617
       7       -0.000000492049     0.000002303719     0.000000502496
       8       -0.000002114499     0.000018554611    -0.000042373700
       9        0.000022469780     0.000017739154     0.000002198070
      10        0.000008400647     0.000001007866     0.000012562634
      11       -0.000006220500     0.000005249095     0.000004950026
      12        0.002566932692     0.003835162576     0.004159994712
      13        0.000002317011     0.000002080992    -0.000002746188
      14        0.000015272097    -0.000008485118     0.000006657659
      15        0.001607141513     0.002736939153    -0.005342132897
      16       -0.002456243792    -0.003688508383    -0.002684555807
      17       -0.000024091741     0.000006054229    -0.000004563892
      18        0.000005059331     0.000034157102    -0.000011345757
      19       -0.001747390641    -0.002952548857     0.003884108601
      20        0.000015129247    -0.000020416602     0.000007489908
      21       -0.000000725367     0.000005371608     0.000003521667
      22        0.000006470213     0.000010710006    -0.000001513185
      23       -0.000006212175     0.000000170600    -0.000008956695

  **** Optimization is complete! (in 8 steps) ****
    Final optimized geometry and variables:
    Molecular point group: c1

    Geometry (in Angstrom), charge = 0, multiplicity = 1:

    O           -2.638406197001     1.610756832913    -0.044771041456
    C           -2.513528043859     0.427956008511    -0.052568412381
    C           -3.670107486667    -0.538198853695    -0.065685691954
    O           -1.341214497602    -0.184879631095    -0.050552022947
    H           -4.277618098467    -0.341833093907    -0.941026474850
    H           -3.336929420983    -1.565522436933    -0.072724855068
    H           -4.285183728126    -0.356412450259     0.807542879942
    C           -0.173472148793     0.630381698947    -0.038406134095
    C            1.030471355561    -0.293554723520    -0.034929140978
    H           -0.184229616550     1.272609631638    -0.909150217054
    H           -0.195226295103     1.262453425570     0.839667295337
    C            2.339937838999     0.505276016174    -0.018704495658
    H            0.983034127170    -0.927038794963    -0.915745365253
    H            0.960983463838    -0.946865963532     0.827953079664
    C            3.645347636140    -0.330394111609    -0.066386843263
    H            2.319094843519     1.155740305891    -0.889321486486
    H            2.347183169751     1.146541146234     0.858035268373
    C            3.528809373451    -1.798672741334     0.357660696427
    H            4.366793437105     0.127247536569     0.603855379496
    H            4.067980166093    -0.290194038952    -1.065116027958
    H            3.160692799114    -1.894289073445     1.374674686517
    H            4.505501523384    -2.271210315902     0.319796605678
    H            2.868040716952    -2.364630914114    -0.289809288036

  Mulliken Charges: (a.u.)
   Center  Symbol    Alpha    Beta     Spin     Total
       1     O     4.28397  4.28397  0.00000 -0.56795
       2     C     2.61535  2.61535  0.00000  0.76930
       3     C     3.28773  3.28773  0.00000 -0.57546
       4     O     4.31290  4.31290  0.00000 -0.62580
       5     H     0.39753  0.39753  0.00000  0.20494
       6     H     0.39989  0.39989  0.00000  0.20021
       7     H     0.39753  0.39753  0.00000  0.20494
       8     C     2.99496  2.99496  0.00000  0.01007
       9     C     3.16799  3.16799  0.00000 -0.33599
      10     H     0.41093  0.41093  0.00000  0.17814
      11     H     0.41086  0.41086  0.00000  0.17827
      12     C     3.16431  3.16431  0.00000 -0.32862
      13     H     0.41418  0.41418  0.00000  0.17164
      14     H     0.41217  0.41217  0.00000  0.17567
      15     C     3.15377  3.15377  0.00000 -0.30755
      16     H     0.41863  0.41863  0.00000  0.16273
      17     H     0.41841  0.41841  0.00000  0.16318
      18     C     3.24383  3.24383  0.00000 -0.48766
      19     H     0.41853  0.41853  0.00000  0.16294
      20     H     0.41871  0.41871  0.00000  0.16258
      21     H     0.42082  0.42082  0.00000  0.15835
      22     H     0.41785  0.41785  0.00000  0.16430
      23     H     0.41913  0.41913  0.00000  0.16175

   Total alpha = 36.00000, Total beta = 36.00000, Total charge = -0.00000
