                              Psi4 1.0.54 Driver

  ==> Input File <==

--------------------------------------------------------------------------
set {
	reference rhf
	basis cc-pvtz
}

set_num_threads( 4 )
memory 2 gb

molecule MOL {
0 1

O	 -1.278239	 1.034789	 -0.784693
C	 -1.204115	 0.062668	 -0.112312
C	 -2.386398	 -0.667698	 0.460323
O	 -0.068058	 -0.518372	 0.226882
H	 -2.382952	 -1.693172	 0.114333
H	 -3.296656	 -0.175702	 0.158400
H	 -2.312537	 -0.685191	 1.540100
C	 1.169086	 0.037484	 -0.230612
C	 0.809746	 1.283139	 -1.015680
C	 1.921094	 -0.989462	 -1.057941
H	 1.754501	 0.301949	 0.636819
H	 0.271168	 1.985820	 -0.392845
H	 1.709499	 1.765983	 -1.377644
H	 0.187815	 1.034351	 -1.867292
H	 2.852508	 -0.566132	 -1.415375
H	 2.152763	 -1.864093	 -0.466333
H	 1.331549	 -1.291299	 -1.916204

	symmetry c1
}
set optking {
	frozen_dihedral = ("
		11 8 4 2
	")
}

ee,wfn = optimize('scf', return_wfn=True)
oeprop( wfn, 'DIPOLE', 'QUADRUPOLE', 'MULLIKEN_CHARGES')
f=open( 'psi4out.xyz', 'w' )
f.write( "17  " )
f.write( str(ee) + "\n" )
f.write( MOL.save_string_xyz() )
f.close()
--------------------------------------------------------------------------

    Molecular point group: c1
  Charge       = 0
  Multiplicity = 1
  Basis Set: CC-PVTZ
  Basis Set:
  @DF-RHF Final Energy:  -344.97639169823259
    Total Energy =                       -344.9763916982327032
    Molecular point group: c1
  Basis Set: CC-PVTZ
  Basis Set:
  Basis Set: CC-PVTZ
  Basis Set:
  @DF-RHF Final Energy:  -345.01694603674395
    Total Energy =                       -345.0169460367440024
  Basis Set: CC-PVTZ
  Basis Set:
  Basis Set: CC-PVTZ
  Basis Set:
  @DF-RHF Final Energy:  -345.02637486849142
    Total Energy =                       -345.0263748684909615
  Basis Set: CC-PVTZ
  Basis Set:
  Basis Set: CC-PVTZ
  Basis Set:
  @DF-RHF Final Energy:  -345.02860543760704
    Total Energy =                       -345.0286054376068137
  Basis Set: CC-PVTZ
  Basis Set:
  @DF-RHF Final Energy:  -345.03061204681364
    Total Energy =                       -345.0306120468134168
  @DF-RHF Final Energy:  -345.03136172854323
    Total Energy =                       -345.0313617285432883
  Basis Set: CC-PVTZ
  Basis Set:
  @DF-RHF Final Energy:  -345.03147216184732
    Total Energy =                       -345.0314721618472618
  Basis Set: CC-PVTZ
  Basis Set:
  Basis Set: CC-PVTZ
  Basis Set:
  @DF-RHF Final Energy:  -345.03145878522713
    Total Energy =                       -345.0314587852271302
  Basis Set: CC-PVTZ
  Basis Set:
  Basis Set: CC-PVTZ
  Basis Set:
  @DF-RHF Final Energy:  -345.03150667943243
    Total Energy =                       -345.0315066794325958
  Basis Set: CC-PVTZ
  Basis Set:
  Charge       = 0
  Multiplicity = 1
  Basis Set: CC-PVTZ
  Basis Set:

    Orbital Energies (a.u.)
    -----------------------

    Doubly Occupied:

       1A    -20.587878     2A    -20.526687     3A    -11.367074
       4A    -11.295878     5A    -11.227341     6A    -11.218158
       7A    -11.210674     8A     -1.460716     9A     -1.363532
      10A     -1.081158    11A     -1.002271    12A     -0.946572
      13A     -0.866526    14A     -0.740944    15A     -0.689435
      16A     -0.679636    17A     -0.659462    18A     -0.615075
      19A     -0.585429    20A     -0.579912    21A     -0.562961
      22A     -0.548559    23A     -0.536475    24A     -0.516674
      25A     -0.509359    26A     -0.483679    27A     -0.440068
      28A     -0.431151

  @DF-RHF Final Energy:  -345.03150692402824

   => Energetics <=

    Nuclear Repulsion Energy =            323.9731276346560662
    One-Electron Energy =               -1112.5427035209570477
    Two-Electron Energy =                 443.5380689622732575
    DFT Exchange-Correlation Energy =       0.0000000000000000
    Empirical Dispersion Energy =           0.0000000000000000
    PCM Polarization Energy =               0.0000000000000000
    EFP Energy =                            0.0000000000000000
    Total Energy =                       -345.0315069240277239
    Molecular point group: c1
  Basis Set: CC-PVTZ
  Basis Set:

  -Total Gradient:
     Atom            X                  Y                   Z
    ------   -----------------  -----------------  -----------------
       1       -0.000027974294     0.000087154116    -0.000044652217
       2        0.000079313672     0.000090132852     0.000415358765
       3       -0.000021360349    -0.000010750897     0.000003009351
       4       -0.000104128100    -0.000183916683    -0.000625271562
       5        0.000004169785    -0.000019479052    -0.000007973289
       6       -0.000008896893     0.000002609182     0.000004139624
       7       -0.000003191397    -0.000009676533     0.000022392051
       8        0.000259038442    -0.000318594538     0.000142983325
       9        0.000045548090     0.000011488616     0.000056765590
      10       -0.000014674996    -0.000010848512    -0.000009750631
      11       -0.000194916559     0.000364397981     0.000090025058
      12       -0.000004190938     0.000008092438    -0.000001892648
      13        0.000006294328     0.000006534554    -0.000024029150
      14       -0.000035248478    -0.000009978560    -0.000015843700
      15        0.000006941697     0.000009835948    -0.000002231099
      16        0.000007860254    -0.000010940984     0.000006482210
      17        0.000005415737    -0.000006059928    -0.000009511679

  **** Optimization is complete! (in 10 steps) ****
    Final optimized geometry and variables:
    Molecular point group: c1

    Geometry (in Angstrom), charge = 0, multiplicity = 1:

    O           -1.556145114880     0.782499297321    -0.118089341414
    C           -1.109267847977    -0.217296000613     0.328849779299
    C           -1.952508318326    -1.328627036983     0.896683570211
    O            0.169308457733    -0.532171470112     0.404115829047
    H           -1.754877664374    -2.247333559545     0.359864941862
    H           -2.995112397071    -1.067086073587     0.815871975841
    H           -1.688365909028    -1.491301563695     1.933710750092
    C            1.310024350021     0.253614476590     0.015451843112
    C            1.045890431986     1.643821086127    -0.540129034912
    C            2.104619046501    -0.607373379683    -0.950346922795
    H            1.870193235647     0.360884175955     0.935510786776
    H            0.498999080286     2.263042032438     0.152939180574
    H            2.013662822649     2.100158256421    -0.719437357779
    H            0.500052755845     1.614812448585    -1.471226603502
    H            3.055889616289    -0.138960608984    -1.172777125098
    H            2.293289816924    -1.583749274679    -0.523773559325
    H            1.561604940447    -0.736858747016    -1.879487114434

  Mulliken Charges: (a.u.)
   Center  Symbol    Alpha    Beta     Spin     Total
       1     O     4.19806  4.19806  0.00000 -0.39613
       2     C     2.80871  2.80871  0.00000  0.38257
       3     C     3.13509  3.13509  0.00000 -0.27019
       4     O     4.16336  4.16336  0.00000 -0.32672
       5     H     0.44674  0.44674  0.00000  0.10651
       6     H     0.43931  0.43931  0.00000  0.12138
       7     H     0.44686  0.44686  0.00000  0.10628
       8     C     2.93956  2.93956  0.00000  0.12088
       9     C     3.15257  3.15257  0.00000 -0.30514
      10     C     3.14046  3.14046  0.00000 -0.28092
      11     H     0.44597  0.44597  0.00000  0.10807
      12     H     0.43747  0.43747  0.00000  0.12506
      13     H     0.45249  0.45249  0.00000  0.09503
      14     H     0.44205  0.44205  0.00000  0.11589
      15     H     0.45358  0.45358  0.00000  0.09284
      16     H     0.44564  0.44564  0.00000  0.10872
      17     H     0.45208  0.45208  0.00000  0.09584

   Total alpha = 28.00000, Total beta = 28.00000, Total charge = -0.00000

*** Psi4 exiting successfully. Buy a developer a beer!
