  ==> Input File <==

--------------------------------------------------------------------------
set {
	reference rhf
	basis 6-31G*
}

set_num_threads( 4 )
memory 2 gb

molecule MOL {
0 1

O	 -1.487788	 1.240889	 -0.102860
C	 -1.083277	 0.139568	 0.115197
C	 0.323299	 -0.082943	 0.642902
C	 -1.933017	 -1.084621	 -0.143902
C	 1.355627	 -0.005344	 -0.493127
H	 0.396251	 -1.044647	 1.143147
H	 0.528637	 0.693580	 1.371677
C	 0.732191	 -0.262937	 -1.863609
H	 1.830819	 0.973155	 -0.491197
H	 2.137530	 -0.732204	 -0.299623
H	 1.481227	 -0.208605	 -2.646989
H	 -0.038258	 0.468507	 -2.089932
H	 0.277616	 -1.248103	 -1.906692
H	 -1.393885	 -1.806447	 -0.750509
H	 -2.850323	 -0.799888	 -0.640100
H	 -2.169004	 -1.571158	 0.798858

	symmetry c1
}
set optking {
	frozen_dihedral = ("
		9 5 3 2
	")
}

ee = optimize('scf')
oeprop('DIPOLE', 'QUADRUPOLE', 'MULLIKEN_CHARGES')
f=open( 'psi4out.xyz', 'w' )
f.write( "16  " )
f.write( str(ee) + "\n" )
f.write( MOL.save_string_xyz() )
f.close()
--------------------------------------------------------------------------

    Molecular point group: c1
  Charge       = 0
  Multiplicity = 1
  Basis Set: 6-31G*
  Basis Set:
  @DF-RHF Final Energy:  -270.01949814312241
    Total Energy =                       -270.0194981431225756
    Molecular point group: c1
  Basis Set: 6-31G*
  Basis Set:
  Basis Set: 6-31G*
  Basis Set:
  @DF-RHF Final Energy:  -270.02261509701344
    Total Energy =                       -270.0226150970134995
  Basis Set: 6-31G*
  Basis Set:
  Basis Set: 6-31G*
  Basis Set:
  @DF-RHF Final Energy:  -270.02184482971245
    Total Energy =                       -270.0218448297126770
  Basis Set: 6-31G*
  Basis Set:
  Basis Set: 6-31G*
  Basis Set:
  @DF-RHF Final Energy:  -270.02337997024745
    Total Energy =                       -270.0233799702472197
  Basis Set: 6-31G*
  Basis Set:
  @DF-RHF Final Energy:  -270.02346225736983
    Total Energy =                       -270.0234622573698289
  @DF-RHF Final Energy:  -270.02349994724597
    Total Energy =                       -270.0234999472460800
  @DF-RHF Final Energy:  -270.02355294573306
    Total Energy =                       -270.0235529457329449
  @DF-RHF Final Energy:  -270.02361709058982
    Total Energy =                       -270.0236170905900508
  @DF-RHF Final Energy:  -270.02365344120216
    Total Energy =                       -270.0236534412019864
  @DF-RHF Final Energy:  -270.02367744866058
    Total Energy =                       -270.0236774486608056
  @DF-RHF Final Energy:  -270.02368975519954
    Total Energy =                       -270.0236897551995412
  Basis Set: 6-31G*
  Basis Set:
  @DF-RHF Final Energy:  -270.02369242819066
    Total Energy =                       -270.0236924281905999
  Basis Set: 6-31G*
  Basis Set:
  Basis Set: 6-31G*
  Basis Set:
  @DF-RHF Final Energy:  -270.02369112519216
    Total Energy =                       -270.0236911251920446
  Basis Set: 6-31G*
  Basis Set:
  Basis Set: 6-31G*
  Basis Set:
  @DF-RHF Final Energy:  -270.02369320704179
    Total Energy =                       -270.0236932070417311
  Basis Set: 6-31G*
  Basis Set:
  Charge       = 0
  Multiplicity = 1
  Basis Set: 6-31G*
  Basis Set:

    Orbital Energies (a.u.)
    -----------------------

    Doubly Occupied:

       1A    -20.547669     2A    -11.325919     3A    -11.231363
       4A    -11.228979     5A    -11.228656     6A    -11.211483
       7A     -1.393910     8A     -1.074267     9A     -1.013013
      10A     -0.948268    11A     -0.831699    12A     -0.724076
      13A     -0.656021    14A     -0.640104    15A     -0.620304
      16A     -0.605634    17A     -0.579650    18A     -0.554481
      19A     -0.544063    20A     -0.505677    21A     -0.495189
      22A     -0.474328    23A     -0.472856    24A     -0.397667

  @DF-RHF Final Energy:  -270.02369363872469

   => Energetics <=

    Nuclear Repulsion Energy =            242.3592145395912212
    One-Electron Energy =                -846.1552690416103815
    Two-Electron Energy =                 333.7723608632946934
    DFT Exchange-Correlation Energy =       0.0000000000000000
    Empirical Dispersion Energy =           0.0000000000000000
    PCM Polarization Energy =               0.0000000000000000
    EFP Energy =                            0.0000000000000000
    Total Energy =                       -270.0236936387244668
    Molecular point group: c1
  Basis Set: 6-31G*
  Basis Set:

  -Total Gradient:
     Atom            X                  Y                   Z
    ------   -----------------  -----------------  -----------------
       1        0.000000940891    -0.000013231494     0.000104426811
       2       -0.000339869443    -0.004342071212    -0.001299670365
       3        0.001313493937     0.005600274387     0.002536762572
       4       -0.000015463568    -0.000017599242    -0.000046522506
       5       -0.004614500768     0.001330956389    -0.004876173737
       6       -0.000236963371     0.000004607152     0.000038765212
       7        0.000162737664     0.000038959774    -0.000058358451
       8       -0.000121355285    -0.000157625010     0.000009349482
       9        0.003843229145    -0.002361880343     0.003796457849
      10       -0.000019010943    -0.000076480335    -0.000188942378
      11        0.000005530604     0.000005433378    -0.000005036729
      12        0.000008726035     0.000012697419     0.000001931666
      13        0.000009073000    -0.000002248751    -0.000000550252
      14        0.000013353978    -0.000008626291    -0.000003201351
      15       -0.000005871333    -0.000009845645    -0.000004060945
      16       -0.000004050546    -0.000003320175    -0.000005176878

  **** Optimization is complete! (in 15 steps) ****
    Final optimized geometry and variables:
    Molecular point group: c1

    Geometry (in Angstrom), charge = 0, multiplicity = 1:

    O           -1.120001024849     1.130624955150    -0.057484254331
    C           -0.793768094863     0.082725002838     0.411872450453
    C            0.624546113338    -0.148927554312     0.914090876010
    C           -1.775678314121    -1.058139650492     0.555393888741
    C            1.745494849613     0.093472342831    -0.129078962202
    H            0.697079280634    -1.163250480348     1.293621347667
    H            0.769202788346     0.511783206693     1.763458104490
    C            1.358284631035    -0.086496316873    -1.596678106426
    H            2.185668320005     1.070928897585     0.033847319766
    H            2.542984495851    -0.607952638832     0.100929862927
    H            2.237862172463     0.005227810140    -2.225743387106
    H            0.637452823658     0.654304014447    -1.916114253739
    H            0.933440854119    -1.071639597764    -1.775057016197
    H           -1.427263768561    -1.922928099767    -0.002716870182
    H           -2.747652617029    -0.756497988928     0.190845936218
    H           -1.852121241341    -1.359526001091     1.596541499236

  Mulliken Charges: (a.u.)
   Center  Symbol    Alpha    Beta     Spin     Total
       1     O     4.26312  4.26312  0.00000 -0.52625
       2     C     2.73610  2.73610  0.00000  0.52779
       3     C     3.20711  3.20711  0.00000 -0.41421
       4     C     3.29021  3.29021  0.00000 -0.58041
       5     C     3.14827  3.14827  0.00000 -0.29654
       6     H     0.41618  0.41618  0.00000  0.16764
       7     H     0.39940  0.39940  0.00000  0.20120
       8     C     3.25260  3.25260  0.00000 -0.50520
       9     H     0.41163  0.41163  0.00000  0.17673
      10     H     0.41871  0.41871  0.00000  0.16258
      11     H     0.41705  0.41705  0.00000  0.16589
      12     H     0.40040  0.40040  0.00000  0.19920
      13     H     0.42575  0.42575  0.00000  0.14850
      14     H     0.40818  0.40818  0.00000  0.18364
      15     H     0.39719  0.39719  0.00000  0.20561
      16     H     0.40810  0.40810  0.00000  0.18381

   Total alpha = 24.00000, Total beta = 24.00000, Total charge = -0.00000
