  ==> Input File <==

--------------------------------------------------------------------------
set {
	reference rhf
	basis 6-31G*
}

set_num_threads( 4 )
memory 2 gb

molecule MOL {
0 1

H	 2.866480	 -0.465706	 0.876907
C	 2.405773	 -0.024801	 0.000000
N	 0.988830	 -0.304158	 0.000000
H	 2.866480	 -0.465706	 -0.876907
H	 2.629928	 1.045948	 0.000000
C	 0.644740	 -1.419478	 0.862341
C	 0.465587	 -0.510787	 -1.337718
H	 1.127861	 -2.345665	 0.534821
H	 0.987175	 -1.207372	 1.870307
C	 -0.862149	 -1.617553	 0.868896
H	 0.676838	 0.366704	 -1.940735
H	 0.935653	 -1.370758	 -1.825555
C	 -1.036551	 -0.732959	 -1.272820
H	 -1.130129	 -2.499549	 1.435717
H	 -1.341820	 -0.753004	 1.324352
O	 -1.347831	 -1.806928	 -0.430413
H	 -1.430325	 -0.976905	 -2.250803
H	 -1.524428	 0.173209	 -0.918129

	symmetry c1
}
set optking {
	frozen_dihedral = ("
		6 3 2 5
	")
}

ee = optimize('scf')
oeprop('DIPOLE', 'QUADRUPOLE', 'MULLIKEN_CHARGES')
f=open( 'psi4out.xyz', 'w' )
f.write( "18  " )
f.write( str(ee) + "\n" )
f.write( MOL.save_string_xyz() )
f.close()
--------------------------------------------------------------------------

    Molecular point group: c1
  Charge       = 0
  Multiplicity = 1
  Basis Set: 6-31G*
  Basis Set:
  @DF-RHF Final Energy:  -325.02352317930200
    Total Energy =                       -325.0235231793024013
    Molecular point group: c1
  Basis Set: 6-31G*
  Basis Set:
  Basis Set: 6-31G*
  Basis Set:
  @DF-RHF Final Energy:  -325.02459333332416
    Total Energy =                       -325.0245933333242760
  Basis Set: 6-31G*
  Basis Set:
  Basis Set: 6-31G*
  Basis Set:
  @DF-RHF Final Energy:  -325.02474131916478
    Total Energy =                       -325.0247413191647752
  Basis Set: 6-31G*
  Basis Set:
  Basis Set: 6-31G*
  Basis Set:
  @DF-RHF Final Energy:  -325.02474962146295
    Total Energy =                       -325.0247496214632292
  Basis Set: 6-31G*
  Basis Set:
  Charge       = 0
  Multiplicity = 1
  Basis Set: 6-31G*
  Basis Set:

    Orbital Energies (a.u.)
    -----------------------

    Doubly Occupied:

       1A    -20.553529     2A    -15.545793     3A    -11.265569
       4A    -11.265508     5A    -11.244157     6A    -11.243803
       7A    -11.240841     8A     -1.382752     9A     -1.228401
      10A     -1.038404    11A     -0.980656    12A     -0.882856
      13A     -0.869366    14A     -0.772989    15A     -0.682945
      16A     -0.644678    17A     -0.643068    18A     -0.631948
      19A     -0.626926    20A     -0.570332    21A     -0.557127
      22A     -0.546233    23A     -0.526384    24A     -0.500477
      25A     -0.484908    26A     -0.451993    27A     -0.407569
      28A     -0.345633

  @DF-RHF Final Energy:  -325.02475033949719

   => Energetics <=

    Nuclear Repulsion Energy =            341.0364365560375859
    One-Electron Energy =               -1117.8526856162793592
    Two-Electron Energy =                 451.7914987207444710
    DFT Exchange-Correlation Energy =       0.0000000000000000
    Empirical Dispersion Energy =           0.0000000000000000
    PCM Polarization Energy =               0.0000000000000000
    EFP Energy =                            0.0000000000000000
    Total Energy =                       -325.0247503394972455
    Molecular point group: c1
  Basis Set: 6-31G*
  Basis Set:

  -Total Gradient:
     Atom            X                  Y                   Z
    ------   -----------------  -----------------  -----------------
       1        0.000010807245    -0.000005185517     0.000016990943
       2       -0.000132430296     0.000787992195    -0.004871591331
       3        0.000752580916    -0.003319779800    -0.002597733368
       4       -0.000018929860     0.000002754969     0.000032433346
       5       -0.000081248252     0.000135060841     0.004718716811
       6       -0.000548476751     0.002347067175     0.002710926755
       7        0.000005185846     0.000029688232    -0.000000401013
       8        0.000005109821     0.000015453814    -0.000005292084
       9       -0.000001703465    -0.000001239645    -0.000003006458
      10       -0.000022170814     0.000030864608    -0.000014118859
      11        0.000001076165    -0.000002453975    -0.000002505572
      12        0.000001628270    -0.000000241608     0.000007900880
      13       -0.000002379545    -0.000006360159    -0.000006550292
      14       -0.000001937441    -0.000000922326    -0.000009094758
      15        0.000005654067     0.000002249980     0.000013621473
      16        0.000026371145    -0.000016047557     0.000013520510
      17       -0.000008515406    -0.000003858418     0.000001740016
      18        0.000009378363     0.000004957189    -0.000005557000

  **** Optimization is complete! (in 5 steps) ****
    Final optimized geometry and variables:
    Molecular point group: c1

    Geometry (in Angstrom), charge = 0, multiplicity = 1:

    H            2.689991107644     0.575611627992     1.106288683986
    C            2.233731559249     0.914206177530     0.182952111440
    N            0.825991830073     0.571907522458     0.176758512347
    H            2.785961214812     0.459884553065    -0.639949394551
    H            2.364979860674     1.991490049085     0.150924240965
    C            0.463464952524    -0.524204145236     1.052877559503
    C            0.280074623645     0.409049384694    -1.154000408881
    H            0.920806046977    -1.469518518911     0.742615408489
    H            0.807897598556    -0.303963404558     2.057603701258
    C           -1.048132734077    -0.684657299371     1.063526517474
    H            0.498735104719     1.297864077406    -1.738114276244
    H            0.728642997001    -0.445357880259    -1.671334720602
    C           -1.224753713556     0.212223405404    -1.073626106126
    H           -1.337243562566    -1.558712435970     1.632455320408
    H           -1.503687314478     0.193007165750     1.518709010092
    O           -1.543196836491    -0.862018479487    -0.234073756621
    H           -1.634906431182    -0.018170460280    -2.048257103763
    H           -1.693130567394     1.123461717705    -0.706038105627

  Mulliken Charges: (a.u.)
   Center  Symbol    Alpha    Beta     Spin     Total
       1     H     0.41921  0.41921  0.00000  0.16159
       2     C     3.13816  3.13816  0.00000 -0.27632
       3     N     3.79442  3.79442  0.00000 -0.58884
       4     H     0.42780  0.42780  0.00000  0.14440
       5     H     0.41527  0.41527  0.00000  0.16945
       6     C     3.06440  3.06440  0.00000 -0.12880
       7     C     3.06501  3.06501  0.00000 -0.13003
       8     H     0.42915  0.42915  0.00000  0.14170
       9     H     0.41705  0.41705  0.00000  0.16589
      10     C     2.99808  2.99808  0.00000  0.00383
      11     H     0.41687  0.41687  0.00000  0.16627
      12     H     0.42872  0.42872  0.00000  0.14255
      13     C     2.99770  2.99770  0.00000  0.00459
      14     H     0.41354  0.41354  0.00000  0.17292
      15     H     0.42445  0.42445  0.00000  0.15110
      16     O     4.31221  4.31221  0.00000 -0.62443
      17     H     0.41352  0.41352  0.00000  0.17296
      18     H     0.42442  0.42442  0.00000  0.15116

   Total alpha = 28.00000, Total beta = 28.00000, Total charge = -0.00000
