                              Psi4 1.0.54 Driver

  ==> Input File <==

--------------------------------------------------------------------------
set {
	reference rhf
	basis cc-pvtz
}

set_num_threads( 4 )
memory 2 gb

molecule MOL {
0 1

H	 -3.830087	 -2.186833	 0.475042
C	 -2.760414	 -2.099619	 0.494201
C	 -1.999647	 -3.074095	 1.114904
C	 -2.147149	 -1.013786	 -0.101498
H	 -2.476346	 -3.916627	 1.577070
C	 -0.625168	 -2.961332	 1.139113
H	 -2.738023	 -0.258615	 -0.582598
C	 -0.770967	 -0.899457	 -0.078094
H	 -0.020983	 -3.706528	 1.615245
C	 -0.005752	 -1.873828	 0.542839
H	 -0.292893	 -0.059803	 -0.538483
C	 1.482314	 -1.798134	 0.596222
O	 1.968286	 -0.725612	 -0.000027
O	 2.165748	 -2.613634	 1.118772
C	 3.373556	 -0.568203	 0.000011
H	 3.695416	 -0.031588	 -0.879663
H	 3.782700	 -1.565294	 -0.000152
H	 3.695405	 -0.031851	 0.879862

	symmetry c1
}
set optking {
	frozen_dihedral = ("
		12 13 15 16
	")
}

ee,wfn = optimize('scf', return_wfn=True)
oeprop( wfn, 'DIPOLE', 'QUADRUPOLE', 'MULLIKEN_CHARGES')
f=open( 'psi4out.xyz', 'w' )
f.write( "18  " )
f.write( str(ee) + "\n" )
f.write( MOL.save_string_xyz() )
f.close()
--------------------------------------------------------------------------

    Molecular point group: c1
  Charge       = 0
  Multiplicity = 1
  Basis Set: CC-PVTZ
  Basis Set:
  @DF-RHF Final Energy:  -457.50734654483745
    Total Energy =                       -457.5073465448376737
    Molecular point group: c1
  Basis Set: CC-PVTZ
  Basis Set:
  Basis Set: CC-PVTZ
  Basis Set:
  @DF-RHF Final Energy:  -457.50829428484502
    Total Energy =                       -457.5082942848454195
  Basis Set: CC-PVTZ
  Basis Set:
  Basis Set: CC-PVTZ
  Basis Set:
  @DF-RHF Final Energy:  -457.50893480422678
    Total Energy =                       -457.5089348042261008
  Basis Set: CC-PVTZ
  Basis Set:
  Basis Set: CC-PVTZ
  Basis Set:
  @DF-RHF Final Energy:  -457.50878946053132
    Total Energy =                       -457.5087894605316023
  Basis Set: CC-PVTZ
  Basis Set:
  Basis Set: CC-PVTZ
  Basis Set:
  @DF-RHF Final Energy:  -457.50907129604030
    Total Energy =                       -457.5090712960400197
  Basis Set: CC-PVTZ
  Basis Set:
  Charge       = 0
  Multiplicity = 1
  Basis Set: CC-PVTZ
  Basis Set:

    Orbital Energies (a.u.)
    -----------------------

    Doubly Occupied:

       1A    -20.600414     2A    -20.533995     3A    -11.372510
       4A    -11.280562     5A    -11.244798     6A    -11.243344
       7A    -11.242487     8A    -11.239842     9A    -11.235885
      10A    -11.235119    11A     -1.475672    12A     -1.368791
      13A     -1.170552    14A     -1.051685    15A     -1.028856
      16A     -0.981138    17A     -0.862984    18A     -0.838247
      19A     -0.780866    20A     -0.745005    21A     -0.688154
      22A     -0.680703    23A     -0.676175    24A     -0.634131
      25A     -0.629892    26A     -0.601093    27A     -0.587533
      28A     -0.568541    29A     -0.528426    30A     -0.520108
      31A     -0.509823    32A     -0.501841    33A     -0.462633
      34A     -0.449399    35A     -0.350102    36A     -0.346060

  @DF-RHF Final Energy:  -457.50907267816672

   => Energetics <=

    Nuclear Repulsion Energy =            493.7902025817420508
    One-Electron Energy =               -1602.0638205919160555
    Two-Electron Energy =                 650.7645453320071738
    DFT Exchange-Correlation Energy =       0.0000000000000000
    Empirical Dispersion Energy =           0.0000000000000000
    PCM Polarization Energy =               0.0000000000000000
    EFP Energy =                            0.0000000000000000
    Total Energy =                       -457.5090726781668309
    Molecular point group: c1
  Basis Set: CC-PVTZ
  Basis Set:

  -Total Gradient:
     Atom            X                  Y                   Z
    ------   -----------------  -----------------  -----------------
       1        0.000002213123     0.000004023458    -0.000001774250
       2       -0.000005923360     0.000002257889    -0.000000031358
       3        0.000003862734    -0.000003917765    -0.000000491255
       4       -0.000000266307     0.000011123607    -0.000008079000
       5        0.000000290495    -0.000008564518     0.000003110644
       6       -0.000001569906    -0.000012853417     0.000009139912
       7       -0.000009864071     0.000009189028    -0.000004597522
       8       -0.000040828281     0.000027638699    -0.000010770951
       9        0.000002205877    -0.000003989890     0.000003291589
      10        0.000008695297     0.000009579446     0.000028350412
      11       -0.000012221768    -0.000007864308     0.000002467375
      12       -0.000032765157    -0.000698707952    -0.001424939642
      13        0.000056103016     0.000692304729     0.001751217344
      14        0.000116361899     0.000128340713    -0.000026117478
      15       -0.000256285154     0.001267925262     0.000669606659
      16        0.000103451030    -0.001327343069    -0.000980425170
      17        0.000088711189    -0.000099392799     0.000003454632
      18       -0.000022170647     0.000010250889    -0.000013411942

  **** Optimization is complete! (in 6 steps) ****
    Final optimized geometry and variables:
    Molecular point group: c1

    Geometry (in Angstrom), charge = 0, multiplicity = 1:

    H           -4.018491811600    -0.494825442740     0.013948414881
    C           -2.949659775702    -0.396582958373     0.028072008855
    C           -2.171817240332    -1.398258819459     0.580781774461
    C           -2.354342299879     0.730525131326    -0.505861102678
    H           -2.634420243135    -2.272921030166     0.995284113994
    C           -0.798498088007    -1.271234454867     0.598765163147
    H           -2.958179295238     1.507002625918    -0.934173060531
    C           -0.979175384414     0.859073448981    -0.488768220613
    H           -0.181557071138    -2.037082786128     1.022997128297
    C           -0.196887137556    -0.142422371857     0.063903570431
    H           -0.515436861776     1.730962952194    -0.901361353725
    C            1.291747989584    -0.054474286971     0.107841704990
    O            1.755391025647     1.062137786189    -0.422247646114
    O            1.985274531038    -0.896125195287     0.571702992119
    C            3.155992425791     1.253301604723    -0.475237075007
    H            3.347685039795     1.864781183574    -1.342740820493
    H            3.668355178582     0.310289254183    -0.567899492390
    H            3.490539763785     1.758786704140     0.419574181871

  Mulliken Charges: (a.u.)
   Center  Symbol    Alpha    Beta     Spin     Total
       1     H     0.42032  0.42032  0.00000  0.15936
       2     C     3.06974  3.06974  0.00000 -0.13949
       3     C     3.07555  3.07555  0.00000 -0.15110
       4     C     3.07493  3.07493  0.00000 -0.14985
       5     H     0.42043  0.42043  0.00000  0.15913
       6     C     3.07586  3.07586  0.00000 -0.15172
       7     H     0.42193  0.42193  0.00000  0.15614
       8     C     3.08205  3.08205  0.00000 -0.16410
       9     H     0.40650  0.40650  0.00000  0.18701
      10     C     3.01650  3.01650  0.00000 -0.03300
      11     H     0.41112  0.41112  0.00000  0.17775
      12     C     2.77751  2.77751  0.00000  0.44499
      13     O     4.14943  4.14943  0.00000 -0.29887
      14     O     4.21146  4.21146  0.00000 -0.42293
      15     C     3.03859  3.03859  0.00000 -0.07718
      16     H     0.44782  0.44782  0.00000  0.10437
      17     H     0.44510  0.44510  0.00000  0.10981
      18     H     0.45517  0.45517  0.00000  0.08967

   Total alpha = 36.00000, Total beta = 36.00000, Total charge =  0.00000

*** Psi4 exiting successfully. Buy a developer a beer!
