  ==> Input File <==

--------------------------------------------------------------------------
set {
	reference rhf
	basis 6-31G*
}

set_num_threads( 4 )
memory 2 gb

molecule MOL {
0 1

H	 -2.646374	 -0.642757	 1.268656
C	 -2.083525	 -0.384536	 0.393091
O	 -0.807605	 -0.127164	 0.768327
F	 -2.118945	 -1.383102	 -0.486752
F	 -2.621877	 0.670592	 -0.209486
C	 0.135928	 -1.118349	 0.568365
C	 0.940099	 -1.233268	 1.856876
Cl	 1.194364	 -0.716785	 -0.793867
H	 -0.312080	 -2.074792	 0.362749
F	 1.855096	 -2.172665	 1.745280
F	 0.125435	 -1.569868	 2.836907
F	 1.528711	 -0.106160	 2.174899

	symmetry c1
}
set optking {
	frozen_dihedral = ("
		6 3 2 4
	")
}

ee = optimize('scf')
oeprop('DIPOLE', 'QUADRUPOLE', 'MULLIKEN_CHARGES')
f=open( 'psi4out.xyz', 'w' )
f.write( "12  " )
f.write( str(ee) + "\n" )
f.write( MOL.save_string_xyz() )
f.close()
--------------------------------------------------------------------------

    Molecular point group: c1
  Charge       = 0
  Multiplicity = 1
  Basis Set: 6-31G*
  Basis Set:
  @DF-RHF Final Energy: -1146.30602213868292
    Total Energy =                      -1146.3060221386826925
    Molecular point group: c1
  Basis Set: 6-31G*
  Basis Set:
  Basis Set: 6-31G*
  Basis Set:
  @DF-RHF Final Energy: -1146.30754124068653
    Total Energy =                      -1146.3075412406867599
  Basis Set: 6-31G*
  Basis Set:
  Basis Set: 6-31G*
  Basis Set:
  @DF-RHF Final Energy: -1146.30834198585899
    Total Energy =                      -1146.3083419858587604
  Basis Set: 6-31G*
  Basis Set:
  Basis Set: 6-31G*
  Basis Set:
  @DF-RHF Final Energy: -1146.30839652114969
    Total Energy =                      -1146.3083965211487794
  Basis Set: 6-31G*
  Basis Set:
  @DF-RHF Final Energy: -1146.30841265262006
    Total Energy =                      -1146.3084126526205182
  Basis Set: 6-31G*
  Basis Set:
  @DF-RHF Final Energy: -1146.30842571600169
    Total Energy =                      -1146.3084257160023753
  Basis Set: 6-31G*
  Basis Set:
  Basis Set: 6-31G*
  Basis Set:
  @DF-RHF Final Energy: -1146.30843161190273
    Total Energy =                      -1146.3084316119031882
  Basis Set: 6-31G*
  Basis Set:
  Basis Set: 6-31G*
  Basis Set:
  @DF-RHF Final Energy: -1146.30843770389492
    Total Energy =                      -1146.3084377038949242
  Basis Set: 6-31G*
  Basis Set:
  Charge       = 0
  Multiplicity = 1
  Basis Set: 6-31G*
  Basis Set:

    Orbital Energies (a.u.)
    -----------------------

    Doubly Occupied:

       1A   -104.842113     2A    -26.361786     3A    -26.361406
       4A    -26.358993     5A    -26.354655     6A    -26.343367
       7A    -20.645902     8A    -11.529254     9A    -11.492605
      10A    -11.403228    11A    -10.576912    12A     -8.046253
      13A     -8.042733    14A     -8.042630    15A     -1.762917
      16A     -1.720479    17A     -1.659355    18A     -1.658232
      19A     -1.643882    20A     -1.482505    21A     -1.177689
      22A     -1.052777    23A     -0.987179    24A     -0.923614
      25A     -0.859587    26A     -0.850141    27A     -0.843536
      28A     -0.833949    29A     -0.818915    30A     -0.791825
      31A     -0.730383    32A     -0.727287    33A     -0.701122
      34A     -0.699937    35A     -0.680821    36A     -0.676379
      37A     -0.663113    38A     -0.659978    39A     -0.643244
      40A     -0.633935    41A     -0.612976    42A     -0.574283
      43A     -0.512535    44A     -0.474742    45A     -0.468281

  @DF-RHF Final Energy: -1146.30843844019955

   => Energetics <=

    Nuclear Repulsion Energy =            731.1543304896619020
    One-Electron Energy =               -3045.0706650143188199
    Two-Electron Energy =                1167.6078960844574794
    DFT Exchange-Correlation Energy =       0.0000000000000000
    Empirical Dispersion Energy =           0.0000000000000000
    PCM Polarization Energy =               0.0000000000000000
    EFP Energy =                            0.0000000000000000
    Total Energy =                      -1146.3084384401995521
    Molecular point group: c1
  Basis Set: 6-31G*
  Basis Set:

  -Total Gradient:
     Atom            X                  Y                   Z
    ------   -----------------  -----------------  -----------------
       1        0.000001586096     0.000024963225    -0.000001986964
       2        0.000031210932     0.000198616147    -0.000333108551
       3       -0.000039215122    -0.000197737169     0.000364470544
       4       -0.000064509778    -0.000139646050     0.000138019230
       5        0.000012772864    -0.000000329849     0.000013055795
       6        0.000008748389     0.000126222072    -0.000131292260
       7        0.000075229671    -0.000023496994     0.000027289844
       8        0.000023936233     0.000002909787    -0.000007859756
       9        0.000035362247     0.000000816859    -0.000006295847
      10        0.000001280314     0.000017806482    -0.000037750412
      11       -0.000085221953    -0.000022880646     0.000039564728
      12       -0.000001179950     0.000012756126    -0.000064106255

  **** Optimization is complete! (in 9 steps) ****
    Final optimized geometry and variables:
    Molecular point group: c1

    Geometry (in Angstrom), charge = 0, multiplicity = 1:

    H           -2.733789487532     0.096707693024     0.412125613263
    C           -2.068926066852     0.415226145420    -0.371773131730
    O           -0.796083821185     0.585058919494     0.095644750411
    F           -2.098892564780    -0.479650328620    -1.355264977870
    F           -2.477758616287     1.572138488622    -0.851174476863
    C            0.169648775565    -0.367183286093    -0.126023288756
    C            1.028125555392    -0.412678672942     1.131502373127
    CL           1.161229034683     0.025705875156    -1.544836043991
    H           -0.240448969726    -1.348364842190    -0.288250583874
    F            1.973380748405    -1.319766093829     1.010011447711
    F            0.261932997463    -0.758149279366     2.150209235874
    F            1.582209348239     0.742259868983     1.402311444234

  Mulliken Charges: (a.u.)
   Center  Symbol    Alpha    Beta     Spin     Total
       1     H     0.41330  0.41330  0.00000  0.17341
       2     C     2.56281  2.56281  0.00000  0.87438
       3     O     4.30725  4.30725  0.00000 -0.61450
       4     F     4.68275  4.68275  0.00000 -0.36551
       5     F     4.67007  4.67007  0.00000 -0.34014
       6     C     3.03655  3.03655  0.00000 -0.07310
       7     C     2.43310  2.43310  0.00000  1.13381
       8    CL     8.50305  8.50305  0.00000 -0.00609
       9     H     0.37074  0.37074  0.00000  0.25851
      10     F     4.67397  4.67397  0.00000 -0.34794
      11     F     4.67955  4.67955  0.00000 -0.35910
      12     F     4.66687  4.66687  0.00000 -0.33373

   Total alpha = 45.00000, Total beta = 45.00000, Total charge = -0.00000
