  ==> Input File <==

--------------------------------------------------------------------------
set {
	reference rhf
	basis 6-31G*
}

set_num_threads( 4 )
memory 2 gb

molecule MOL {
0 1

H	 -2.178356	 1.125440	 -2.015173
C	 -1.755623	 0.607674	 -1.174582
C	 -2.563828	 0.108247	 -0.167445
C	 -0.391238	 0.432285	 -1.087180
H	 -3.630340	 0.234743	 -0.217375
C	 -2.005988	 -0.556172	 0.908701
H	 0.260733	 0.806004	 -1.848787
C	 0.154804	 -0.237046	 -0.000077
H	 -2.650115	 -0.936441	 1.679799
C	 -0.632415	 -0.753909	 1.034412
N	 1.611208	 -0.370857	 -0.000034
C	 -0.131258	 -1.495215	 2.254345
O	 2.274126	 0.622059	 -0.008063
O	 2.068510	 -1.474748	 0.007823
H	 0.541571	 -0.885470	 2.841404
H	 -0.976116	 -1.773338	 2.871790
H	 0.408481	 -2.391391	 1.981079

	symmetry c1
}
set optking {
	frozen_dihedral = ("
		4 8 11 13
	")
}

ee = optimize('scf')
oeprop('DIPOLE', 'QUADRUPOLE', 'MULLIKEN_CHARGES')
f=open( 'psi4out.xyz', 'w' )
f.write( "17  " )
f.write( str(ee) + "\n" )
f.write( MOL.save_string_xyz() )
f.close()
--------------------------------------------------------------------------

    Molecular point group: c1
  Charge       = 0
  Multiplicity = 1
  Basis Set: 6-31G*
  Basis Set:
  @DF-RHF Final Energy:  -473.20161305542985
    Total Energy =                       -473.2016130554297888
    Molecular point group: c1
  Basis Set: 6-31G*
  Basis Set:
  Basis Set: 6-31G*
  Basis Set:
  @DF-RHF Final Energy:  -473.20304840852549
    Total Energy =                       -473.2030484085256603
  Basis Set: 6-31G*
  Basis Set:
  Basis Set: 6-31G*
  Basis Set:
  @DF-RHF Final Energy:  -473.20105467442721
    Total Energy =                       -473.2010546744265866
  Basis Set: 6-31G*
  Basis Set:
  Basis Set: 6-31G*
  Basis Set:
  @DF-RHF Final Energy:  -473.20350285963968
    Total Energy =                       -473.2035028596400252
  Basis Set: 6-31G*
  Basis Set:
  Basis Set: 6-31G*
  Basis Set:
  @DF-RHF Final Energy:  -473.20363481019285
    Total Energy =                       -473.2036348101930798
  Basis Set: 6-31G*
  Basis Set:
  Basis Set: 6-31G*
  Basis Set:
  @DF-RHF Final Energy:  -473.20369064943861
    Total Energy =                       -473.2036906494388404
  Basis Set: 6-31G*
  Basis Set:
  Basis Set: 6-31G*
  Basis Set:
  @DF-RHF Final Energy:  -473.20369332027121
    Total Energy =                       -473.2036933202716682
  Basis Set: 6-31G*
  Basis Set:
  Charge       = 0
  Multiplicity = 1
  Basis Set: 6-31G*
  Basis Set:

    Orbital Energies (a.u.)
    -----------------------

    Doubly Occupied:

       1A    -20.604171     2A    -20.603721     3A    -15.852953
       4A    -11.301528     5A    -11.277986     6A    -11.267548
       7A    -11.260023     8A    -11.255764     9A    -11.254795
      10A    -11.238219    11A     -1.635206    12A     -1.418732
      13A     -1.201898    14A     -1.092130    15A     -1.072888
      16A     -0.979423    17A     -0.934561    18A     -0.852448
      19A     -0.820208    20A     -0.771443    21A     -0.733726
      22A     -0.728684    23A     -0.695373    24A     -0.654846
      25A     -0.636565    26A     -0.599693    27A     -0.596998
      28A     -0.568825    29A     -0.541566    30A     -0.525838
      31A     -0.520677    32A     -0.491051    33A     -0.479712
      34A     -0.449485    35A     -0.365123    36A     -0.353523

  @DF-RHF Final Energy:  -473.20369372295056

   => Energetics <=

    Nuclear Repulsion Energy =            509.9582205653954361
    One-Electron Energy =               -1655.0491653368349034
    Two-Electron Energy =                 671.8872510484889062
    DFT Exchange-Correlation Energy =       0.0000000000000000
    Empirical Dispersion Energy =           0.0000000000000000
    PCM Polarization Energy =               0.0000000000000000
    EFP Energy =                            0.0000000000000000
    Total Energy =                       -473.2036937229504474
    Molecular point group: c1
  Basis Set: 6-31G*
  Basis Set:

  -Total Gradient:
     Atom            X                  Y                   Z
    ------   -----------------  -----------------  -----------------
       1        0.000019886590     0.000006132577    -0.000004997141
       2       -0.000107760799    -0.000026664993     0.000014377543
       3       -0.000007564745     0.000078666883    -0.000083389806
       4       -0.000219976786    -0.003140108829    -0.001649386926
       5        0.000005043102    -0.000022289220     0.000007661182
       6        0.000109906512    -0.000018838240     0.000099770946
       7        0.000006105824     0.000017435625    -0.000013413840
       8        0.000386725776     0.004465168612     0.003933341589
       9       -0.000014857738    -0.000002418958     0.000003463825
      10       -0.000092242138    -0.000058404728    -0.000032687349
      11       -0.000045811938    -0.001388248300    -0.006421990904
      12       -0.000037189103     0.000054643770     0.000049433711
      13       -0.000050958200     0.000086862155     0.004131640828
      14        0.000035913311    -0.000010675374     0.000000152819
      15       -0.000008277789    -0.000001169751    -0.000011056404
      16        0.000009181352    -0.000006621464    -0.000013132080
      17        0.000011876766    -0.000033469762    -0.000009787993

  **** Optimization is complete! (in 8 steps) ****
    Final optimized geometry and variables:
    Molecular point group: c1

    Geometry (in Angstrom), charge = 0, multiplicity = 1:

    H           -2.128755659276     1.438158031310    -2.250795284736
    C           -1.709904448893     0.930745855707    -1.401842568157
    C           -2.528471659809     0.416351002779    -0.410823518475
    C           -0.339341091049     0.791267152707    -1.286277184788
    H           -3.595213376379     0.526365674133    -0.484264626518
    C           -1.983407746116    -0.239700730970     0.680647884991
    H            0.326688746854     1.193085925468    -2.026079858367
    C            0.174399922670     0.127565114076    -0.190769007193
    H           -2.633851449851    -0.626489563261     1.444123582884
    C           -0.611438149194    -0.420142784786     0.813978879797
    N            1.625953820757    -0.040093575538    -0.148680706672
    C           -0.038885831611    -1.160514883219     2.000387340878
    O            2.291008899006     0.950504612543    -0.149385320839
    O            2.051246250716    -1.153939240872    -0.100975797317
    H            0.809785586886    -0.639343106957     2.427745772607
    H           -0.792375212607    -1.262008722681     2.770973690913
    H            0.296346065068    -2.149373179987     1.713037484437

  Mulliken Charges: (a.u.)
   Center  Symbol    Alpha    Beta     Spin     Total
       1     H     0.38971  0.38971  0.00000  0.22059
       2     C     3.11005  3.11005  0.00000 -0.22010
       3     C     3.08623  3.08623  0.00000 -0.17245
       4     C     3.08284  3.08284  0.00000 -0.16568
       5     H     0.39073  0.39073  0.00000  0.21853
       6     C     3.12084  3.12084  0.00000 -0.24168
       7     H     0.37439  0.37439  0.00000  0.25121
       8     C     2.91434  2.91434  0.00000  0.17131
       9     H     0.39270  0.39270  0.00000  0.21460
      10     C     2.96596  2.96596  0.00000  0.06809
      11     N     3.26414  3.26414  0.00000  0.47172
      12     C     3.25162  3.25162  0.00000 -0.50324
      13     O     4.22489  4.22489  0.00000 -0.44978
      14     O     4.22650  4.22650  0.00000 -0.45300
      15     H     0.40289  0.40289  0.00000  0.19422
      16     H     0.41035  0.41035  0.00000  0.17930
      17     H     0.39182  0.39182  0.00000  0.21637

   Total alpha = 36.00000, Total beta = 36.00000, Total charge = -0.00000
