  ==> Input File <==

--------------------------------------------------------------------------
set {
	reference rhf
	basis 6-31G*
}

set_num_threads( 1 )
memory 2 gb

molecule MOL {
0 1

O	 -2.159179	 1.524351	 -0.603313
C	 -2.055601	 0.390164	 -0.246486
C	 -0.889235	 -0.467034	 -0.705952
C	 -3.053756	 -0.238676	 0.699886
C	 0.379448	 -0.143569	 0.099626
H	 -0.716384	 -0.252222	 -1.754895
H	 -1.129898	 -1.522144	 -0.611870
C	 1.631333	 -0.777471	 -0.511575
H	 0.482768	 0.934507	 0.149241
H	 0.263088	 -0.495696	 1.123449
C	 2.915987	 -0.544314	 0.291766
H	 1.766672	 -0.399098	 -1.523130
H	 1.471257	 -1.849544	 -0.605828
C	 3.373361	 0.914346	 0.347591
H	 3.708709	 -1.142521	 -0.150311
H	 2.780642	 -0.921148	 1.303579
H	 3.506512	 1.320010	 -0.651625
H	 4.322697	 0.999599	 0.867103
H	 2.660624	 1.545032	 0.868198
H	 -3.597819	 -1.026868	 0.186065
H	 -3.751464	 0.508293	 1.052058
H	 -2.546944	 -0.697467	 1.543958

	symmetry c1
}
set optking {
	frozen_dihedral = ("
		6 3 2 1,
		3 5 8 12,
		12 8 11 15
	")
}

ee = energy('scf')
oeprop('DIPOLE', 'QUADRUPOLE', 'MULLIKEN_CHARGES')
f=open( 'psi4out.xyz', 'w' )
f.write( "22  " )
f.write( str(ee) + "\n" )
f.write( MOL.save_string_xyz() )
f.close()
--------------------------------------------------------------------------

    Molecular point group: c1

    Geometry (in Angstrom), charge = 0, multiplicity = 1:

       Center              X                  Y                   Z               Mass
    ------------   -----------------  -----------------  -----------------  -----------------
           O         -2.179994755461     1.428294463315    -0.531960645612    15.994914619560
           C         -2.076416755461     0.294107463315    -0.175133645612    12.000000000000
           C         -0.910050755461    -0.563090536685    -0.634599645612    12.000000000000
           C         -3.074571755461    -0.334732536685     0.771238354388    12.000000000000
           C          0.358632244539    -0.239625536685     0.170978354388    12.000000000000
           H         -0.737199755461    -0.348278536685    -1.683542645612     1.007825032070
           H         -1.150713755461    -1.618200536685    -0.540517645612     1.007825032070
           C          1.610517244539    -0.873527536685    -0.440222645612    12.000000000000
           H          0.461952244539     0.838450463315     0.220593354388     1.007825032070
           H          0.242272244539    -0.591752536685     1.194801354388     1.007825032070
           C          2.895171244539    -0.640370536685     0.363118354388    12.000000000000
           H          1.745856244539    -0.495154536685    -1.451777645612     1.007825032070
           H          1.450441244539    -1.945600536685    -0.534475645612     1.007825032070
           C          3.352545244539     0.818289463315     0.418943354388    12.000000000000
           H          3.687893244539    -1.238577536685    -0.078958645612     1.007825032070
           H          2.759826244539    -1.017204536685     1.374931354388     1.007825032070
           H          3.485696244539     1.223953463315    -0.580272645612     1.007825032070
           H          4.301881244539     0.903542463315     0.938455354388     1.007825032070
           H          2.639808244539     1.448975463315     0.939550354388     1.007825032070
           H         -3.618634755461    -1.122924536685     0.257417354388     1.007825032070
           H         -3.772279755461     0.412236463315     1.123410354388     1.007825032070
           H         -2.567759755461    -0.793523536685     1.615310354388     1.007825032070

  Charge       = 0
  Multiplicity = 1
  Basis Set: 6-31G*
  Basis Set:

    Orbital Energies (a.u.)
    -----------------------

    Doubly Occupied:

       1A    -20.547339     2A    -11.324560     3A    -11.229354
       4A    -11.228764     5A    -11.228170     6A    -11.222026
       7A    -11.220270     8A    -11.210707     9A     -1.393152
      10A     -1.095362    11A     -1.044072    12A     -0.999442
      13A     -0.937364    14A     -0.857411    15A     -0.786267
      16A     -0.733014    17A     -0.663078    18A     -0.642339
      19A     -0.626242    20A     -0.619737    21A     -0.597144
      22A     -0.584789    23A     -0.561100    24A     -0.541007
      25A     -0.533261    26A     -0.520866    27A     -0.498798
      28A     -0.485702    29A     -0.469951    30A     -0.463699
      31A     -0.460205    32A     -0.396324

  @DF-RHF Final Energy:  -348.09792443792543

   => Energetics <=

    Nuclear Repulsion Energy =            373.2058566828853259
    One-Electron Energy =               -1211.1641644977296437
    Two-Electron Energy =                 489.8603833769194011
    DFT Exchange-Correlation Energy =       0.0000000000000000
    Empirical Dispersion Energy =           0.0000000000000000
    PCM Polarization Energy =               0.0000000000000000
    EFP Energy =                            0.0000000000000000
    Total Energy =                       -348.0979244379249735

  Mulliken Charges: (a.u.)
   Center  Symbol    Alpha    Beta     Spin     Total
       1     O     4.26240  4.26240  0.00000 -0.52480
       2     C     2.73810  2.73810  0.00000  0.52381
       3     C     3.19918  3.19918  0.00000 -0.39836
       4     C     3.28947  3.28947  0.00000 -0.57894
       5     C     3.16475  3.16475  0.00000 -0.32951
       6     H     0.40116  0.40116  0.00000  0.19769
       7     H     0.41665  0.41665  0.00000  0.16669
       8     C     3.15271  3.15271  0.00000 -0.30543
       9     H     0.40325  0.40325  0.00000  0.19350
      10     H     0.42126  0.42126  0.00000  0.15747
      11     C     3.15353  3.15353  0.00000 -0.30706
      12     H     0.42002  0.42002  0.00000  0.15995
      13     H     0.42184  0.42184  0.00000  0.15633
      14     C     3.24194  3.24194  0.00000 -0.48388
      15     H     0.41955  0.41955  0.00000  0.16091
      16     H     0.42318  0.42318  0.00000  0.15363
      17     H     0.42043  0.42043  0.00000  0.15915
      18     H     0.41838  0.41838  0.00000  0.16323
      19     H     0.41851  0.41851  0.00000  0.16299
      20     H     0.40692  0.40692  0.00000  0.18616
      21     H     0.39714  0.39714  0.00000  0.20571
      22     H     0.40963  0.40963  0.00000  0.18075

   Total alpha = 32.00000, Total beta = 32.00000, Total charge = -0.00000
