  ==> Input File <==

--------------------------------------------------------------------------
set {
	reference rhf
	basis 6-31G*
}

set_num_threads( 1 )
memory 2 gb

molecule MOL {
0 1

O	 -1.276010	 1.052711	 -0.768302
C	 -1.204840	 0.067374	 -0.106123
C	 -2.388195	 -0.672128	 0.458071
O	 -0.067104	 -0.527208	 0.221609
H	 -2.388023	 -1.694060	 0.097175
H	 -3.300579	 -0.174919	 0.164318
H	 -2.315377	 -0.706351	 1.539059
C	 0.599135	 -0.137972	 1.430967
C	 2.066853	 -0.466651	 1.222734
C	 -0.013462	 -0.871443	 2.613926
H	 0.468203	 0.927048	 1.553836
H	 2.459555	 0.063177	 0.362319
H	 2.642288	 -0.176836	 2.095783
H	 2.202243	 -1.530560	 1.060192
H	 0.501596	 -0.598579	 3.529501
H	 -1.059153	 -0.614374	 2.725384
H	 0.072635	 -1.945089	 2.480218

	symmetry c1
}
set optking {
	frozen_dihedral = ("
		11 8 4 2
	")
}

ee = energy('scf')
oeprop('DIPOLE', 'QUADRUPOLE', 'MULLIKEN_CHARGES')
f=open( 'psi4out.xyz', 'w' )
f.write( "17  " )
f.write( str(ee) + "\n" )
f.write( MOL.save_string_xyz() )
f.close()
--------------------------------------------------------------------------

    Molecular point group: c1

    Geometry (in Angstrom), charge = 0, multiplicity = 1:

       Center              X                  Y                   Z               Mass
    ------------   -----------------  -----------------  -----------------  -----------------
           O         -0.947882720535     1.278692356640    -1.497428176186    15.994914619560
           C         -0.876712720535     0.293355356640    -0.835249176186    12.000000000000
           C         -2.060067720535    -0.446146643360    -0.271055176186    12.000000000000
           O          0.261023279465    -0.301226643360    -0.507517176186    15.994914619560
           H         -2.059895720535    -1.468078643360    -0.631951176186     1.007825032070
           H         -2.972451720535     0.051062356640    -0.564808176186     1.007825032070
           H         -1.987249720535    -0.480369643360     0.809932823814     1.007825032070
           C          0.927262279465     0.088009356640     0.701840823814    12.000000000000
           C          2.394980279465    -0.240669643360     0.493607823814    12.000000000000
           C          0.314665279465    -0.645461643360     1.884799823814    12.000000000000
           H          0.796330279465     1.153029356640     0.824709823814     1.007825032070
           H          2.787682279465     0.289158356640    -0.366807176186     1.007825032070
           H          2.970415279465     0.049145356640     1.366656823814     1.007825032070
           H          2.530370279465    -1.304578643360     0.331065823814     1.007825032070
           H          0.829723279465    -0.372597643360     2.800374823814     1.007825032070
           H         -0.731025720535    -0.388392643360     1.996257823814     1.007825032070
           H          0.400762279465    -1.719107643360     1.751091823814     1.007825032070

  Charge       = 0
  Multiplicity = 1
  Basis Set: 6-31G*
  Basis Set:

    Orbital Energies (a.u.)
    -----------------------

    Doubly Occupied:

       1A    -20.581419     2A    -20.552337     3A    -11.374432
       4A    -11.305426     5A    -11.230227     6A    -11.229294
       7A    -11.223552     8A     -1.459669     9A     -1.365141
      10A     -1.079838    11A     -1.013271    12A     -0.956145
      13A     -0.851407    14A     -0.774021    15A     -0.696707
      16A     -0.671522    17A     -0.664573    18A     -0.619315
      19A     -0.592317    20A     -0.578559    21A     -0.573293
      22A     -0.555922    23A     -0.552265    24A     -0.522052
      25A     -0.494513    26A     -0.482055    27A     -0.448728
      28A     -0.435582

  @DF-RHF Final Energy:  -344.88639560114490

   => Energetics <=

    Nuclear Repulsion Energy =            324.3868761917466941
    One-Electron Energy =               -1112.7793555533069139
    Two-Electron Energy =                 443.5060837604152653
    DFT Exchange-Correlation Energy =       0.0000000000000000
    Empirical Dispersion Energy =           0.0000000000000000
    PCM Polarization Energy =               0.0000000000000000
    EFP Energy =                            0.0000000000000000
    Total Energy =                       -344.8863956011448977

  Mulliken Charges: (a.u.)
   Center  Symbol    Alpha    Beta     Spin     Total
       1     O     4.25786  4.25786  0.00000 -0.51572
       2     C     2.62763  2.62763  0.00000  0.74475
       3     C     3.28618  3.28618  0.00000 -0.57236
       4     O     4.31700  4.31700  0.00000 -0.63401
       5     H     0.39953  0.39953  0.00000  0.20094
       6     H     0.39956  0.39956  0.00000  0.20088
       7     H     0.40837  0.40837  0.00000  0.18326
       8     C     2.92826  2.92826  0.00000  0.14348
       9     C     3.24055  3.24055  0.00000 -0.48110
      10     C     3.24863  3.24863  0.00000 -0.49725
      11     H     0.40923  0.40923  0.00000  0.18153
      12     H     0.40398  0.40398  0.00000  0.19204
      13     H     0.41910  0.41910  0.00000  0.16180
      14     H     0.41205  0.41205  0.00000  0.17589
      15     H     0.41434  0.41434  0.00000  0.17132
      16     H     0.41729  0.41729  0.00000  0.16542
      17     H     0.41044  0.41044  0.00000  0.17911

   Total alpha = 28.00000, Total beta = 28.00000, Total charge = -0.00000
