                              Psi4 1.0.54 Driver

  ==> Input File <==

--------------------------------------------------------------------------
set {
	reference rhf
	basis cc-pvtz
}

set_num_threads( 4 )
memory 2 gb

molecule MOL {
0 1

H	 -3.144994	 -1.202467	 -0.018751
O	 -2.321472	 -0.864941	 -0.318626
C	 -2.021813	 0.336996	 0.342658
C	 -0.669613	 0.837286	 -0.127252
H	 -2.780861	 1.084746	 0.127159
H	 -2.006390	 0.184138	 1.420053
C	 0.490865	 -0.082543	 0.241244
H	 -0.708709	 0.967192	 -1.204587
H	 -0.507562	 1.822272	 0.303070
C	 0.471355	 -0.511253	 1.705633
H	 1.426540	 0.419156	 0.022456
H	 0.460063	 -0.967556	 -0.391151
C	 1.626459	 -1.436797	 2.072904
H	 0.504086	 0.372149	 2.337481
H	 -0.470665	 -1.007310	 1.925214
H	 2.582877	 -0.955699	 1.897621
H	 1.585775	 -1.721393	 3.118205
H	 1.602569	 -2.346315	 1.481590

	symmetry c1
}
set optking {
	frozen_dihedral = ("
		10 7 4 8
	")
}

ee,wfn = optimize('scf', return_wfn=True)
oeprop( wfn, 'DIPOLE', 'QUADRUPOLE', 'MULLIKEN_CHARGES')
f=open( 'psi4out.xyz', 'w' )
f.write( "18  " )
f.write( str(ee) + "\n" )
f.write( MOL.save_string_xyz() )
f.close()
--------------------------------------------------------------------------

    Molecular point group: c1
  Charge       = 0
  Multiplicity = 1
  Basis Set: CC-PVTZ
  Basis Set:
  @DF-RHF Final Energy:  -271.28288241619975
    Total Energy =                       -271.2828824161995271
    Molecular point group: c1
  Basis Set: CC-PVTZ
  Basis Set:
  Basis Set: CC-PVTZ
  Basis Set:
  @DF-RHF Final Energy:  -271.24680929287899
    Total Energy =                       -271.2468092928788792
  Basis Set: CC-PVTZ
  Basis Set:
  Basis Set: CC-PVTZ
  Basis Set:
  @DF-RHF Final Energy:  -271.28183061304230
    Total Energy =                       -271.2818306130425867
  Basis Set: CC-PVTZ
  Basis Set:
  Basis Set: CC-PVTZ
  Basis Set:
  @DF-RHF Final Energy:  -271.28436884957131
    Total Energy =                       -271.2843688495714218
  Basis Set: CC-PVTZ
  Basis Set:
  Basis Set: CC-PVTZ
  Basis Set:
  @DF-RHF Final Energy:  -271.28457470448654
    Total Energy =                       -271.2845747044864311
  Basis Set: CC-PVTZ
  Basis Set:
  Basis Set: CC-PVTZ
  Basis Set:
  @DF-RHF Final Energy:  -271.28460162714873
    Total Energy =                       -271.2846016271486747
  Basis Set: CC-PVTZ
  Basis Set:
  Basis Set: CC-PVTZ
  Basis Set:
  @DF-RHF Final Energy:  -271.28460536657019
    Total Energy =                       -271.2846053665701902
  Basis Set: CC-PVTZ
  Basis Set:
  Charge       = 0
  Multiplicity = 1
  Basis Set: CC-PVTZ
  Basis Set:

    Orbital Energies (a.u.)
    -----------------------

    Doubly Occupied:

       1A    -20.546971     2A    -11.265104     3A    -11.211070
       4A    -11.207809     5A    -11.205340     6A    -11.202336
       7A     -1.364572     8A     -1.075302     9A     -1.007813
      10A     -0.914284    11A     -0.832942    12A     -0.768282
      13A     -0.707899    14A     -0.646455    15A     -0.627402
      16A     -0.586099    17A     -0.563719    18A     -0.553038
      19A     -0.540206    20A     -0.499736    21A     -0.490335
      22A     -0.463623    23A     -0.456902    24A     -0.448263
      25A     -0.431904

  @DF-RHF Final Energy:  -271.28460613074014

   => Energetics <=

    Nuclear Repulsion Energy =            254.9071210042801852
    One-Electron Energy =                -873.1486462133232180
    Two-Electron Energy =                 346.9569190783030308
    DFT Exchange-Correlation Energy =       0.0000000000000000
    Empirical Dispersion Energy =           0.0000000000000000
    PCM Polarization Energy =               0.0000000000000000
    EFP Energy =                            0.0000000000000000
    Total Energy =                       -271.2846061307400305
    Molecular point group: c1
  Basis Set: CC-PVTZ
  Basis Set:

  -Total Gradient:
     Atom            X                  Y                   Z
    ------   -----------------  -----------------  -----------------
       1        0.000034860960     0.000004075000     0.000000659588
       2       -0.000053994873    -0.000031424976    -0.000002873005
       3        0.000006339267     0.000023197855     0.000020648443
       4        0.001035805890     0.002530521844     0.000132201367
       5        0.000011009041    -0.000007467920     0.000008786075
       6       -0.000006982933    -0.000019029969    -0.000021454435
       7        0.000610470790     0.002331609549     0.000747014552
       8       -0.001045685703    -0.002769569231    -0.000306865952
       9        0.000018358710     0.000003087724    -0.000000607510
      10       -0.000603312350    -0.002081346331    -0.000544207637
      11       -0.000007078967    -0.000003583596    -0.000004330309
      12       -0.000001661904     0.000005402299     0.000004484161
      13        0.000006051555    -0.000001153412    -0.000014348330
      14       -0.000001529504    -0.000007604915    -0.000014559659
      15        0.000018153130     0.000023956318     0.000003206922
      16       -0.000019874128    -0.000020480426     0.000001886984
      17       -0.000004633813     0.000010961003    -0.000016724045
      18        0.000003704832     0.000008849184     0.000007082791

  **** Optimization is complete! (in 8 steps) ****
    Final optimized geometry and variables:
    Molecular point group: c1

    Geometry (in Angstrom), charge = 0, multiplicity = 1:

    H           -2.182557461680    -1.649920322565    -1.086826946641
    O           -1.409417093872    -1.128121177385    -1.195977727539
    C           -1.633569277254     0.174462332546    -0.720936997840
    C           -0.369923687705     0.994118523651    -0.913952845495
    H           -2.445908077309     0.642963123051    -1.270868625830
    H           -1.921393595994     0.152369753244     0.326075031271
    C            0.882233862029     0.441880304852    -0.225583471244
    H           -0.183445945397     1.044865060933    -1.981714895322
    H           -0.572869422147     2.004153450575    -0.568814281447
    C            0.716275732113     0.079808968256     1.248638186099
    H            1.675083764638     1.177767919933    -0.326859270065
    H            1.213902523562    -0.441090532656    -0.760642392039
    C            2.031850678470    -0.337107612192     1.898612800190
    H            0.301307272089     0.926099772578     1.791842074563
    H            0.003055911672    -0.730634418628     1.345031783511
    H            2.760248835709     0.466106150422     1.861263178340
    H            1.888784732919    -0.605592600345     2.939195599431
    H            2.461433207133    -1.194859886533     1.391911888865

  Mulliken Charges: (a.u.)
   Center  Symbol    Alpha    Beta     Spin     Total
       1     H     0.39548  0.39548  0.00000  0.20904
       2     O     4.20095  4.20095  0.00000 -0.40190
       3     C     2.98149  2.98149  0.00000  0.03703
       4     C     3.09994  3.09994  0.00000 -0.19988
       5     H     0.45942  0.45942  0.00000  0.08116
       6     H     0.46852  0.46852  0.00000  0.06296
       7     C     3.08673  3.08673  0.00000 -0.17347
       8     H     0.44868  0.44868  0.00000  0.10265
       9     H     0.45237  0.45237  0.00000  0.09526
      10     C     3.08857  3.08857  0.00000 -0.17714
      11     H     0.45119  0.45119  0.00000  0.09761
      12     H     0.44840  0.44840  0.00000  0.10319
      13     C     3.15083  3.15083  0.00000 -0.30166
      14     H     0.45685  0.45685  0.00000  0.08631
      15     H     0.45126  0.45126  0.00000  0.09749
      16     H     0.45560  0.45560  0.00000  0.08881
      17     H     0.44976  0.44976  0.00000  0.10048
      18     H     0.45398  0.45398  0.00000  0.09205

   Total alpha = 25.00000, Total beta = 25.00000, Total charge = -0.00000

*** Psi4 exiting successfully. Buy a developer a beer!
