                              Psi4 1.0.54 Driver

  ==> Input File <==

--------------------------------------------------------------------------
set {
	reference rhf
	basis cc-pvtz
}

set_num_threads( 4 )
memory 2 gb

molecule MOL {
0 1

O	 -2.766291	 -0.099511	 0.357911
C	 -1.912534	 -0.528179	 1.064151
C	 -0.676226	 -1.187061	 0.484958
C	 -2.002304	 -0.423804	 2.568084
C	 0.376695	 -0.140025	 0.100361
H	 -0.980513	 -1.737009	 -0.396563
H	 -0.255412	 -1.889098	 1.196945
C	 1.630207	 -0.772146	 -0.501001
H	 -0.072807	 0.552011	 -0.600540
H	 0.655134	 0.439117	 0.977496
C	 2.907848	 -0.545876	 0.309149
H	 1.772784	 -0.391628	 -1.509394
H	 1.468529	 -1.842059	 -0.599744
C	 3.373802	 0.906639	 0.372125
H	 3.699140	 -1.146831	 -0.127906
H	 2.764321	 -0.923458	 1.318191
H	 3.519798	 1.311927	 -0.623875
H	 4.316899	 0.983758	 0.900700
H	 2.661122	 1.540651	 0.885346
H	 -2.123526	 -1.417260	 2.988023
H	 -2.843623	 0.190981	 2.848783
H	 -1.087116	 -0.012178	 2.978674

	symmetry c1
}
set optking {
	frozen_dihedral = ("
		3 5 8 12
	")
}

ee,wfn = optimize('scf', return_wfn=True)
oeprop( wfn, 'DIPOLE', 'QUADRUPOLE', 'MULLIKEN_CHARGES')
f=open( 'psi4out.xyz', 'w' )
f.write( "22  " )
f.write( str(ee) + "\n" )
f.write( MOL.save_string_xyz() )
f.close()
--------------------------------------------------------------------------

    Molecular point group: c1
  Charge       = 0
  Multiplicity = 1
  Basis Set: CC-PVTZ
  Basis Set:
  @DF-RHF Final Energy:  -348.21780732934428
    Total Energy =                       -348.2178073293443390
    Molecular point group: c1
  Basis Set: CC-PVTZ
  Basis Set:
  Basis Set: CC-PVTZ
  Basis Set:
  @DF-RHF Final Energy:  -348.21776313939142
    Total Energy =                       -348.2177631393916499
  Basis Set: CC-PVTZ
  Basis Set:
  Basis Set: CC-PVTZ
  Basis Set:
  @DF-RHF Final Energy:  -348.21822232837627
    Total Energy =                       -348.2182223283766120
  Basis Set: CC-PVTZ
  Basis Set:
  Basis Set: CC-PVTZ
  Basis Set:
  @DF-RHF Final Energy:  -348.21820172204724
    Total Energy =                       -348.2182017220474677
  Basis Set: CC-PVTZ
  Basis Set:
  @DF-RHF Final Energy:  -348.21821184000726
    Total Energy =                       -348.2182118400075410
  @DF-RHF Final Energy:  -348.21821381842676
    Total Energy =                       -348.2182138184273867
  Basis Set: CC-PVTZ
  Basis Set:
  @DF-RHF Final Energy:  -348.21822148717536
    Total Energy =                       -348.2182214871747874
  Basis Set: CC-PVTZ
  Basis Set:
  Basis Set: CC-PVTZ
  Basis Set:
  @DF-RHF Final Energy:  -348.21822907151687
    Total Energy =                       -348.2182290715169302
  Basis Set: CC-PVTZ
  Basis Set:
  Basis Set: CC-PVTZ
  Basis Set:
  @DF-RHF Final Energy:  -348.21823106095815
    Total Energy =                       -348.2182310609578053
  Basis Set: CC-PVTZ
  Basis Set:
  Charge       = 0
  Multiplicity = 1
  Basis Set: CC-PVTZ
  Basis Set:

    Orbital Energies (a.u.)
    -----------------------

    Doubly Occupied:

       1A    -20.536847     2A    -11.319060     3A    -11.228390
       4A    -11.227781     5A    -11.226952     6A    -11.221112
       7A    -11.220342     8A    -11.211816     9A     -1.396852
      10A     -1.096213    11A     -1.046258    12A     -1.000073
      13A     -0.938690    14A     -0.860866    15A     -0.787335
      16A     -0.736276    17A     -0.662996    18A     -0.648924
      19A     -0.628485    20A     -0.615538    21A     -0.600750
      22A     -0.588880    23A     -0.560595    24A     -0.546425
      25A     -0.531271    26A     -0.526423    27A     -0.500884
      28A     -0.491333    29A     -0.469033    30A     -0.464975
      31A     -0.461345    32A     -0.398495

  @DF-RHF Final Energy:  -348.21823114399018

   => Energetics <=

    Nuclear Repulsion Energy =            374.4976962318978053
    One-Electron Energy =               -1213.9294284145098572
    Two-Electron Energy =                 491.2135010386218141
    DFT Exchange-Correlation Energy =       0.0000000000000000
    Empirical Dispersion Energy =           0.0000000000000000
    PCM Polarization Energy =               0.0000000000000000
    EFP Energy =                            0.0000000000000000
    Total Energy =                       -348.2182311439901810
    Molecular point group: c1
  Basis Set: CC-PVTZ
  Basis Set:

  -Total Gradient:
     Atom            X                  Y                   Z
    ------   -----------------  -----------------  -----------------
       1       -0.000014318897     0.000018147075    -0.000019395125
       2        0.000009873533    -0.000007686553     0.000022535157
       3        0.000021172014    -0.000002802238     0.000017454757
       4       -0.000018493296    -0.000017867727    -0.000001558384
       5       -0.000008661637     0.000004537821    -0.000033415819
       6       -0.000005534515    -0.000006255771    -0.000005335636
       7        0.000004233183    -0.000001872104    -0.000004067815
       8       -0.000032075636    -0.000026579104     0.000012392586
       9       -0.000003620682    -0.000001649604    -0.000002776610
      10        0.000002500631     0.000002134219     0.000003062410
      11        0.000005721312     0.000005106844    -0.000021090835
      12        0.000018397526     0.000023842923     0.000009166940
      13       -0.000007770315    -0.000007798706     0.000001493756
      14        0.000000415575     0.000002663487     0.000018999801
      15        0.000009046929    -0.000000665952     0.000000470412
      16        0.000001525081     0.000009094825    -0.000007081708
      17       -0.000003150686    -0.000011806955     0.000007498473
      18        0.000001203317     0.000006714782    -0.000001114550
      19        0.000006316935    -0.000002971148    -0.000003070274
      20        0.000005812949     0.000002114261     0.000002241899
      21       -0.000005380077     0.000006121279     0.000003315468
      22        0.000012786756     0.000007478344     0.000000275098

  **** Optimization is complete! (in 10 steps) ****
    Final optimized geometry and variables:
    Molecular point group: c1

    Geometry (in Angstrom), charge = 0, multiplicity = 1:

    O           -2.900847989074     0.275050652797    -0.216898994567
    C           -2.043454975639    -0.160540019315     0.480617446037
    C           -0.824237590855    -0.839750205368    -0.110796811376
    C           -2.113078866868    -0.047249496984     1.985037522241
    C            0.248606420946     0.187671090912    -0.497348356463
    H           -1.144100388265    -1.379851903668    -0.992663439219
    H           -0.411049120997    -1.552690646734     0.595380243596
    C            1.509661286884    -0.466451568455    -1.101105417983
    H           -0.190271047879     0.887186937843    -1.197140345404
    H            0.518387627147     0.765653531736     0.380451428658
    C            2.788716432828    -0.247669647636    -0.290445322062
    H            1.666548389973    -0.094755183151    -2.108420155157
    H            1.344053254315    -1.533799649806    -1.201603661554
    C            3.300810354831     1.189995767561    -0.314051581627
    H            3.563939586720    -0.900256440352    -0.679647909350
    H            2.619945350697    -0.557734938557     0.737997119145
    H            3.530191859013     1.500720173719    -1.327918946515
    H            4.205406737215     1.289436680193     0.274687745347
    H            2.572988228765     1.886882530522     0.085501853717
    H           -2.252206565474    -1.036161671839     2.410163086060
    H           -2.937638992118     0.586910017455     2.272304222859
    H           -1.184784671941     0.345358821026     2.384516875881

  Mulliken Charges: (a.u.)
   Center  Symbol    Alpha    Beta     Spin     Total
       1     O     4.17716  4.17716  0.00000 -0.35432
       2     C     2.85908  2.85908  0.00000  0.28184
       3     C     3.09738  3.09738  0.00000 -0.19477
       4     C     3.15562  3.15562  0.00000 -0.31124
       5     C     3.11015  3.11015  0.00000 -0.22030
       6     H     0.43809  0.43809  0.00000  0.12381
       7     H     0.44890  0.44890  0.00000  0.10220
       8     C     3.10195  3.10195  0.00000 -0.20391
       9     H     0.43431  0.43431  0.00000  0.13137
      10     H     0.45071  0.45071  0.00000  0.09858
      11     C     3.09028  3.09028  0.00000 -0.18056
      12     H     0.44548  0.44548  0.00000  0.10903
      13     H     0.44810  0.44810  0.00000  0.10380
      14     C     3.14956  3.14956  0.00000 -0.29913
      15     H     0.44734  0.44734  0.00000  0.10533
      16     H     0.45568  0.45568  0.00000  0.08864
      17     H     0.45326  0.45326  0.00000  0.09347
      18     H     0.44707  0.44707  0.00000  0.10586
      19     H     0.45444  0.45444  0.00000  0.09112
      20     H     0.44830  0.44830  0.00000  0.10341
      21     H     0.43595  0.43595  0.00000  0.12810
      22     H     0.45116  0.45116  0.00000  0.09767

   Total alpha = 32.00000, Total beta = 32.00000, Total charge = -0.00000

*** Psi4 exiting successfully. Buy a developer a beer!
