                              Psi4 1.0.54 Driver

  ==> Input File <==

--------------------------------------------------------------------------
set {
	reference rhf
	basis cc-pvtz
}

set_num_threads( 4 )
memory 2 gb

molecule MOL {
0 1

O	 1.521685	 1.362867	 1.549800
C	 0.687311	 1.242414	 0.698901
C	 -0.355347	 2.323655	 0.502396
N	 0.622280	 0.144970	 -0.099307
H	 -1.356906	 1.935193	 0.637757
H	 -0.167859	 3.089308	 1.236641
H	 -0.293120	 2.756376	 -0.488490
C	 1.664396	 -0.854993	 0.000772
C	 -0.214945	 0.048549	 -1.271276
H	 2.462727	 -0.615153	 -0.690869
H	 1.261798	 -1.821849	 -0.240651
H	 2.081615	 -0.891605	 1.003877
H	 -0.532249	 -0.978495	 -1.398305
H	 -1.100590	 0.653566	 -1.179179
H	 0.313681	 0.347587	 -2.173592

	symmetry c1
}
set optking {
	frozen_dihedral = ("
		2 4 8 10
	")
}

ee,wfn = optimize('scf', return_wfn=True)
oeprop( wfn, 'DIPOLE', 'QUADRUPOLE', 'MULLIKEN_CHARGES')
f=open( 'psi4out.xyz', 'w' )
f.write( "15  " )
f.write( str(ee) + "\n" )
f.write( MOL.save_string_xyz() )
f.close()
--------------------------------------------------------------------------

    Molecular point group: c1
  Charge       = 0
  Multiplicity = 1
  Basis Set: CC-PVTZ
  Basis Set:
  @DF-RHF Final Energy:  -286.13516686359998
    Total Energy =                       -286.1351668636004320
    Molecular point group: c1
  Basis Set: CC-PVTZ
  Basis Set:
  Basis Set: CC-PVTZ
  Basis Set:
  @DF-RHF Final Energy:  -286.13553186499917
    Total Energy =                       -286.1355318649990522
  Basis Set: CC-PVTZ
  Basis Set:
  Basis Set: CC-PVTZ
  Basis Set:
  @DF-RHF Final Energy:  -286.13541508035826
    Total Energy =                       -286.1354150803582002
  Basis Set: CC-PVTZ
  Basis Set:
  Basis Set: CC-PVTZ
  Basis Set:
  @DF-RHF Final Energy:  -286.13560306780460
    Total Energy =                       -286.1356030678045954
  Basis Set: CC-PVTZ
  Basis Set:
  Basis Set: CC-PVTZ
  Basis Set:
  @DF-RHF Final Energy:  -286.13560585957100
    Total Energy =                       -286.1356058595710010
  Basis Set: CC-PVTZ
  Basis Set:
  Basis Set: CC-PVTZ
  Basis Set:
  @DF-RHF Final Energy:  -286.13560742603477
    Total Energy =                       -286.1356074260345395
  Basis Set: CC-PVTZ
  Basis Set:
  Charge       = 0
  Multiplicity = 1
  Basis Set: CC-PVTZ
  Basis Set:

    Orbital Energies (a.u.)
    -----------------------

    Doubly Occupied:

       1A    -20.504429     2A    -15.578175     3A    -11.334818
       4A    -11.263913     5A    -11.246511     6A    -11.226561
       7A     -1.387981     8A     -1.245921     9A     -1.015014
      10A     -0.973160    11A     -0.920269    12A     -0.738867
      13A     -0.683078    14A     -0.661583    15A     -0.653842
      16A     -0.590139    17A     -0.578317    18A     -0.568197
      19A     -0.562125    20A     -0.547990    21A     -0.530365
      22A     -0.506294    23A     -0.414391    24A     -0.371002

  @DF-RHF Final Energy:  -286.13560772586595

   => Energetics <=

    Nuclear Repulsion Energy =            252.9713663539887420
    One-Electron Energy =                -890.0080608820646830
    Two-Electron Energy =                 350.9010868022103296
    DFT Exchange-Correlation Energy =       0.0000000000000000
    Empirical Dispersion Energy =           0.0000000000000000
    PCM Polarization Energy =               0.0000000000000000
    EFP Energy =                            0.0000000000000000
    Total Energy =                       -286.1356077258656114
    Molecular point group: c1
  Basis Set: CC-PVTZ
  Basis Set:

  -Total Gradient:
     Atom            X                  Y                   Z
    ------   -----------------  -----------------  -----------------
       1       -0.000033156998     0.000027089546    -0.000026457037
       2        0.000109890608     0.000097029410    -0.000062205660
       3        0.000022357207     0.000019437994     0.000004525666
       4       -0.000112503621    -0.000128613951     0.000178336072
       5        0.000000628318    -0.000000512742     0.000002314436
       6       -0.000004444815     0.000005252116     0.000000452035
       7       -0.000005519368    -0.000001069799     0.000010452809
       8       -0.000082364771    -0.000109661846    -0.000211764686
       9        0.000008499081     0.000009597621     0.000012728645
      10        0.000099399658     0.000101923828     0.000127930152
      11        0.000010444563    -0.000004240237    -0.000011733933
      12       -0.000015459981     0.000002019126    -0.000008764321
      13        0.000000244089    -0.000001078806    -0.000003677004
      14        0.000005361086    -0.000013338893    -0.000004957629
      15       -0.000003375054    -0.000003833366    -0.000007179544

  **** Optimization is complete! (in 7 steps) ****
    Final optimized geometry and variables:
    Molecular point group: c1

    Geometry (in Angstrom), charge = 0, multiplicity = 1:

    O            0.899678511584     0.671657923511     1.291387348236
    C            0.035535886006     0.538043171156     0.473084828129
    C           -1.021849976877     1.609373259038     0.304809354968
    N           -0.047649855646    -0.569718642552    -0.309880737610
    H           -2.017454154768     1.209868315805     0.450398218960
    H           -0.830346009752     2.370139763258     1.043161795752
    H           -0.977661624812     2.052769488685    -0.682426013017
    C            1.015687407221    -1.549484954018    -0.227584806792
    C           -0.893413784456    -0.668029148589    -1.475835417122
    H            1.809931781273    -1.338764689935    -0.939167504653
    H            0.613227396465    -2.530637614746    -0.444236304448
    H            1.436045727435    -1.547168979635     0.762168248599
    H           -1.223575364688    -1.692107231099    -1.592544445056
    H           -1.770937911391    -0.051625907466    -1.382845777747
    H           -0.367735085116    -0.381660450579    -2.384091051516

  Mulliken Charges: (a.u.)
   Center  Symbol    Alpha    Beta     Spin     Total
       1     O     4.21976  4.21976  0.00000 -0.43951
       2     C     2.84511  2.84511  0.00000  0.30978
       3     C     3.16083  3.16083  0.00000 -0.32166
       4     N     3.56330  3.56330  0.00000 -0.12661
       5     H     0.44885  0.44885  0.00000  0.10230
       6     H     0.42865  0.42865  0.00000  0.14269
       7     H     0.44903  0.44903  0.00000  0.10195
       8     C     3.09653  3.09653  0.00000 -0.19306
       9     C     3.09558  3.09558  0.00000 -0.19117
      10     H     0.45706  0.45706  0.00000  0.08587
      11     H     0.45725  0.45725  0.00000  0.08551
      12     H     0.42842  0.42842  0.00000  0.14317
      13     H     0.44907  0.44907  0.00000  0.10186
      14     H     0.44523  0.44523  0.00000  0.10954
      15     H     0.45533  0.45533  0.00000  0.08933

   Total alpha = 24.00000, Total beta = 24.00000, Total charge = -0.00000

*** Psi4 exiting successfully. Buy a developer a beer!
