                              Psi4 1.0.54 Driver

  ==> Input File <==

--------------------------------------------------------------------------
set {
	reference rhf
	basis cc-pvtz
}

set_num_threads( 4 )
memory 2 gb

molecule MOL {
0 1

O	 -2.335117	 -0.244559	 -1.111067
C	 -1.922978	 0.063265	 -0.045005
C	 -2.781957	 0.391970	 1.143507
O	 -0.637375	 0.157174	 0.243149
H	 -2.571735	 1.400388	 1.476102
H	 -3.821533	 0.299253	 0.874576
H	 -2.546193	 -0.279006	 1.959457
C	 0.162530	 -1.009518	 0.097799
C	 1.587210	 -0.664190	 0.477086
H	 0.096803	 -1.356267	 -0.924704
H	 -0.233803	 -1.785900	 0.736810
C	 2.256770	 0.342732	 -0.454344
H	 2.154716	 -1.590834	 0.479041
H	 1.598751	 -0.289614	 1.496104
C	 3.698146	 0.643205	 -0.057145
H	 2.235038	 -0.042575	 -1.470299
H	 1.683491	 1.262594	 -0.461300
H	 4.150202	 1.356548	 -0.736242
H	 4.305463	 -0.255904	 -0.069842
H	 3.749130	 1.061068	 0.942759

	symmetry c1
}
set optking {
	frozen_dihedral = ("
		1 2 4 8
	")
}

ee,wfn = optimize('scf', return_wfn=True)
oeprop( wfn, 'DIPOLE', 'QUADRUPOLE', 'MULLIKEN_CHARGES')
f=open( 'psi4out.xyz', 'w' )
f.write( "20  " )
f.write( str(ee) + "\n" )
f.write( MOL.save_string_xyz() )
f.close()
--------------------------------------------------------------------------

    Molecular point group: c1
  Charge       = 0
  Multiplicity = 1
  Basis Set: CC-PVTZ
  Basis Set:
  @DF-RHF Final Energy:  -384.07342737203356
    Total Energy =                       -384.0734273720337342
    Molecular point group: c1
  Basis Set: CC-PVTZ
  Basis Set:
  Basis Set: CC-PVTZ
  Basis Set:
  @DF-RHF Final Energy:  -383.93788766266056
    Total Energy =                       -383.9378876626605006
  Basis Set: CC-PVTZ
  Basis Set:
  Basis Set: CC-PVTZ
  Basis Set:
  @DF-RHF Final Energy:  -384.03823704265420
    Total Energy =                       -384.0382370426536909
  Basis Set: CC-PVTZ
  Basis Set:
  Basis Set: CC-PVTZ
  Basis Set:
  @DF-RHF Final Energy:  -384.07133590951480
    Total Energy =                       -384.0713359095145734
  Basis Set: CC-PVTZ
  Basis Set:
  @DF-RHF Final Energy:  -384.04159496337280
    Total Energy =                       -384.0415949633727450
  @DF-RHF Final Energy:  -384.07067780544025
    Total Energy =                       -384.0706778054402548
  @DF-RHF Final Energy:  -384.07408540874462
    Total Energy =                       -384.0740854087448497
  @DF-RHF Final Energy:  -384.07363419779165
    Total Energy =                       -384.0736341977914208
  Basis Set: CC-PVTZ
  Basis Set:
  @DF-RHF Final Energy:  -384.07442539774138
    Total Energy =                       -384.0744253977417202
  Basis Set: CC-PVTZ
  Basis Set:
  Basis Set: CC-PVTZ
  Basis Set:
  @DF-RHF Final Energy:  -384.07444721283554
    Total Energy =                       -384.0744472128355937
  Basis Set: CC-PVTZ
  Basis Set:
  Basis Set: CC-PVTZ
  Basis Set:
  @DF-RHF Final Energy:  -384.07444899899497
    Total Energy =                       -384.0744489989950807
  Basis Set: CC-PVTZ
  Basis Set:
  Charge       = 0
  Multiplicity = 1
  Basis Set: CC-PVTZ
  Basis Set:

    Orbital Energies (a.u.)
    -----------------------

    Doubly Occupied:

       1A    -20.580046     2A    -20.541015     3A    -11.369108
       4A    -11.286057     5A    -11.233747     6A    -11.224093
       7A    -11.216379     8A    -11.209952     9A     -1.462673
      10A     -1.367318    11A     -1.084961    12A     -1.025316
      13A     -0.985086    14A     -0.880701    15A     -0.809124
      16A     -0.776589    17A     -0.697228    18A     -0.683910
      19A     -0.659381    20A     -0.631823    21A     -0.611179
      22A     -0.592923    23A     -0.577373    24A     -0.557788
      25A     -0.542546    26A     -0.532927    27A     -0.502897
      28A     -0.484553    29A     -0.479586    30A     -0.473669
      31A     -0.449385    32A     -0.438253

  @DF-RHF Final Energy:  -384.07444923823971

   => Energetics <=

    Nuclear Repulsion Energy =            384.7515201088103822
    One-Electron Energy =               -1285.7167657502504881
    Two-Electron Energy =                 516.8907964031997153
    DFT Exchange-Correlation Energy =       0.0000000000000000
    Empirical Dispersion Energy =           0.0000000000000000
    PCM Polarization Energy =               0.0000000000000000
    EFP Energy =                            0.0000000000000000
    Total Energy =                       -384.0744492382403905
    Molecular point group: c1
  Basis Set: CC-PVTZ
  Basis Set:

  -Total Gradient:
     Atom            X                  Y                   Z
    ------   -----------------  -----------------  -----------------
       1        0.000945639379     0.007774429088    -0.002361881064
       2       -0.002252459590    -0.012114633284     0.006402534263
       3       -0.000022532680    -0.000035142177     0.000025188448
       4        0.003153906075     0.005766132349    -0.010084990149
       5        0.000003410352     0.000011813972    -0.000011804531
       6       -0.000008901298     0.000001134319    -0.000001670922
       7        0.000002277911     0.000001618875     0.000006956943
       8       -0.001821133055    -0.001432531062     0.006042362742
       9       -0.000008452988    -0.000012722390    -0.000029721819
      10       -0.000000339862     0.000012499113    -0.000004638297
      11       -0.000009146136     0.000003317563     0.000001496094
      12       -0.000003504483     0.000037250424     0.000037477851
      13        0.000004299552    -0.000002168743     0.000004875489
      14       -0.000002684489     0.000007679441    -0.000015146179
      15        0.000017906101    -0.000017864777    -0.000022653632
      16        0.000001628720    -0.000007588512     0.000013737921
      17       -0.000009790211     0.000003553404     0.000000513036
      18        0.000013575696     0.000001668201    -0.000005690533
      19        0.000007932304    -0.000000782583     0.000004328964
      20       -0.000011631306     0.000002336779    -0.000001274630

  **** Optimization is complete! (in 12 steps) ****
    Final optimized geometry and variables:
    Molecular point group: c1

    Geometry (in Angstrom), charge = 0, multiplicity = 1:

    O           -2.243810607393     0.028983629767    -1.200885489496
    C           -1.891468396144     0.308168641642    -0.111201897146
    C           -2.788655852327     0.854274572196     0.961688799119
    O           -0.607770548429     0.261262145100     0.271242060941
    H           -2.404449779579     1.809732699406     1.295282924498
    H           -3.793578971879     0.963541085325     0.587110087697
    H           -2.778662610968     0.185683424693     1.814443300847
    C            0.057591311004    -0.992727400510     0.189947018305
    C            1.521415901310    -0.793047547322     0.520294846603
    H           -0.067109564753    -1.399144266783    -0.804931635623
    H           -0.400664732727    -1.672393368694     0.900529100273
    C            2.273919277315     0.063161464166    -0.494281227040
    H            1.978605553224    -1.777183998354     0.579562833293
    H            1.599824390123    -0.351248612719     1.508836588760
    C            3.746446304527     0.236620780963    -0.138101658498
    H            2.190186091395    -0.392719698515    -1.476812097115
    H            1.799492197764     1.034614395227    -0.564949912326
    H            4.257080680898     0.844628920888    -0.875546554641
    H            4.255579344347    -0.720424826436    -0.088996299604
    H            3.861367367889     0.720951507272     0.825932132347

  Mulliken Charges: (a.u.)
   Center  Symbol    Alpha    Beta     Spin     Total
       1     O     4.17927  4.17927  0.00000 -0.35853
       2     C     2.80564  2.80564  0.00000  0.38872
       3     C     3.13839  3.13839  0.00000 -0.27679
       4     O     4.17119  4.17119  0.00000 -0.34238
       5     H     0.44392  0.44392  0.00000  0.11215
       6     H     0.43786  0.43786  0.00000  0.12428
       7     H     0.45011  0.45011  0.00000  0.09978
       8     C     2.98698  2.98698  0.00000  0.02603
       9     C     3.08777  3.08777  0.00000 -0.17555
      10     H     0.44635  0.44635  0.00000  0.10730
      11     H     0.45615  0.45615  0.00000  0.08771
      12     C     3.08497  3.08497  0.00000 -0.16993
      13     H     0.45302  0.45302  0.00000  0.09395
      14     H     0.45190  0.45190  0.00000  0.09619
      15     C     3.15020  3.15020  0.00000 -0.30040
      16     H     0.45347  0.45347  0.00000  0.09307
      17     H     0.44494  0.44494  0.00000  0.11011
      18     H     0.44685  0.44685  0.00000  0.10629
      19     H     0.45618  0.45618  0.00000  0.08764
      20     H     0.45482  0.45482  0.00000  0.09035

   Total alpha = 32.00000, Total beta = 32.00000, Total charge = -0.00000

*** Psi4 exiting successfully. Buy a developer a beer!
