  ==> Input File <==

--------------------------------------------------------------------------
set {
	reference rhf
	basis 6-31G*
}

set_num_threads( 4 )
memory 2 gb

molecule MOL {
0 1

H	 -2.098997	 -0.674324	 -0.616650
O	 -2.035884	 -0.060112	 0.102722
C	 -0.955155	 0.788182	 -0.092531
C	 0.353668	 0.040312	 -0.004810
H	 -0.985057	 1.290372	 -1.054184
H	 -0.974469	 1.533190	 0.688632
F	 0.175635	 -1.247228	 -0.278883
F	 1.221104	 0.521222	 -0.880870
F	 0.900190	 0.118278	 1.191344

	symmetry c1
}
set optking {
	frozen_dihedral = ("
		7 4 3 5
	")
}

ee = optimize('scf')
oeprop('DIPOLE', 'QUADRUPOLE', 'MULLIKEN_CHARGES')
f=open( 'psi4out.xyz', 'w' )
f.write( "9  " )
f.write( str(ee) + "\n" )
f.write( MOL.save_string_xyz() )
f.close()
--------------------------------------------------------------------------

    Molecular point group: c1
  Charge       = 0
  Multiplicity = 1
  Basis Set: 6-31G*
  Basis Set:
  @DF-RHF Final Energy:  -450.65763133175301
    Total Energy =                       -450.6576313317531230
    Molecular point group: c1
  Basis Set: 6-31G*
  Basis Set:
  Basis Set: 6-31G*
  Basis Set:
  @DF-RHF Final Energy:  -450.65808374150373
    Total Energy =                       -450.6580837415039014
  Basis Set: 6-31G*
  Basis Set:
  Basis Set: 6-31G*
  Basis Set:
  @DF-RHF Final Energy:  -450.65843975918904
    Total Energy =                       -450.6584397591889797
  Basis Set: 6-31G*
  Basis Set:
  Basis Set: 6-31G*
  Basis Set:
  @DF-RHF Final Energy:  -450.65845588444273
    Total Energy =                       -450.6584558844426738
  Basis Set: 6-31G*
  Basis Set:
  Basis Set: 6-31G*
  Basis Set:
  @DF-RHF Final Energy:  -450.65845758309956
    Total Energy =                       -450.6584575830993344
  Basis Set: 6-31G*
  Basis Set:
  Charge       = 0
  Multiplicity = 1
  Basis Set: 6-31G*
  Basis Set:

    Orbital Energies (a.u.)
    -----------------------

    Doubly Occupied:

       1A    -26.345295     2A    -26.344026     3A    -26.338138
       4A    -20.590126     5A    -11.502257     6A    -11.309502
       7A     -1.741190     8A     -1.640918     9A     -1.635568
      10A     -1.402539    11A     -1.045149    12A     -0.924502
      13A     -0.829798    14A     -0.829268    15A     -0.809831
      16A     -0.723070    17A     -0.712176    18A     -0.699475
      19A     -0.664859    20A     -0.659969    21A     -0.642527
      22A     -0.627598    23A     -0.614627    24A     -0.527470
      25A     -0.479868

  @DF-RHF Final Energy:  -450.65845769782345

   => Energetics <=

    Nuclear Repulsion Energy =            276.4396629857325252
    One-Electron Energy =               -1174.9167478986901187
    Two-Electron Energy =                 447.8186272151341427
    DFT Exchange-Correlation Energy =       0.0000000000000000
    Empirical Dispersion Energy =           0.0000000000000000
    PCM Polarization Energy =               0.0000000000000000
    EFP Energy =                            0.0000000000000000
    Total Energy =                       -450.6584576978234509
    Molecular point group: c1
  Basis Set: 6-31G*
  Basis Set:

  -Total Gradient:
     Atom            X                  Y                   Z
    ------   -----------------  -----------------  -----------------
       1       -0.000015243230    -0.000006300014     0.000002401460
       2        0.000021044574    -0.000011128159    -0.000021704761
       3       -0.003196121270    -0.005796153020    -0.001495904391
       4        0.001632902085     0.002175822952    -0.005457877546
       5        0.002402630794     0.004512435952     0.002412546928
       6        0.000001167233    -0.000001243157     0.000003089238
       7       -0.000875707430    -0.000909134615     0.004555265916
       8        0.000012250856     0.000019653664    -0.000026242624
       9        0.000017076391     0.000016046391     0.000028425781

  **** Optimization is complete! (in 6 steps) ****
    Final optimized geometry and variables:
    Molecular point group: c1

    Geometry (in Angstrom), charge = 0, multiplicity = 1:

    H           -2.099454118219    -0.708893484607    -0.546314380307
    O           -2.062157302553    -0.024633471865     0.108231863325
    C           -0.964140505030     0.789235990023    -0.111878881139
    C            0.357709223347     0.035022988020    -0.016910955874
    H           -0.987134097954     1.312905939393    -1.062144153908
    H           -0.963693581113     1.539866212002     0.664626211665
    F            0.205986562265    -1.246529544846    -0.314985806099
    F            1.255157763176     0.544845123991    -0.844447972532
    F            0.872903448261     0.088066954907     1.199728558296

  Mulliken Charges: (a.u.)
   Center  Symbol    Alpha    Beta     Spin     Total
       1     H     0.27229  0.27229  0.00000  0.45543
       2     O     4.35945  4.35945  0.00000 -0.71890
       3     C     3.06653  3.06653  0.00000 -0.13306
       4     C     2.45588  2.45588  0.00000  1.08824
       5     H     0.40760  0.40760  0.00000  0.18481
       6     H     0.39282  0.39282  0.00000  0.21436
       7     F     4.68373  4.68373  0.00000 -0.36746
       8     F     4.68230  4.68230  0.00000 -0.36460
       9     F     4.67941  4.67941  0.00000 -0.35883

   Total alpha = 25.00000, Total beta = 25.00000, Total charge =  0.00000
