  ==> Input File <==

--------------------------------------------------------------------------
set {
	reference rhf
	basis 6-31G*
}

set_num_threads( 4 )
memory 2 gb

molecule MOL {
0 1

H	 -0.367348	 2.047014	 -0.308205
C	 0.352277	 1.337084	 0.083769
N	 -0.000016	 0.000074	 -0.335546
H	 1.328359	 1.600444	 -0.307950
H	 0.381933	 1.450534	 1.172486
C	 0.612154	 -1.006924	 0.500800
C	 -1.430979	 -0.175976	 -0.433049
H	 0.384289	 -1.993942	 0.114506
H	 1.689560	 -0.886087	 0.493189
H	 0.273361	 -0.963355	 1.541090
H	 -1.845001	 0.551216	 -1.122361
H	 -1.654625	 -1.164842	 -0.817192
H	 -1.942993	 -0.061650	 0.528044

	symmetry c1
}
set optking {
	frozen_dihedral = ("
		6 3 2 1
	")
}

ee = optimize('scf')
oeprop('DIPOLE', 'QUADRUPOLE', 'MULLIKEN_CHARGES')
f=open( 'psi4out.xyz', 'w' )
f.write( "13  " )
f.write( str(ee) + "\n" )
f.write( MOL.save_string_xyz() )
f.close()
--------------------------------------------------------------------------

    Molecular point group: c1
  Charge       = 0
  Multiplicity = 1
  Basis Set: 6-31G*
  Basis Set:
  @DF-RHF Final Energy:  -173.26665618795619
    Total Energy =                       -173.2666561879561300
    Molecular point group: c1
  Basis Set: 6-31G*
  Basis Set:
  Basis Set: 6-31G*
  Basis Set:
  @DF-RHF Final Energy:  -173.26692498036778
    Total Energy =                       -173.2669249803677474
  Basis Set: 6-31G*
  Basis Set:
  Basis Set: 6-31G*
  Basis Set:
  @DF-RHF Final Energy:  -173.26696997413697
    Total Energy =                       -173.2669699741369413
  Basis Set: 6-31G*
  Basis Set:
  Charge       = 0
  Multiplicity = 1
  Basis Set: 6-31G*
  Basis Set:

    Orbital Energies (a.u.)
    -----------------------

    Doubly Occupied:

       1A    -15.543811     2A    -11.235834     3A    -11.235813
       4A    -11.235582     5A     -1.224283     6A     -0.951398
       7A     -0.950488     8A     -0.807514     9A     -0.640763
      10A     -0.630293    11A     -0.628866    12A     -0.547464
      13A     -0.544295    14A     -0.516245    15A     -0.500381
      16A     -0.499068    17A     -0.347416

  @DF-RHF Final Energy:  -173.26697131457402

   => Energetics <=

    Nuclear Repulsion Energy =            139.2446410665849328
    One-Electron Energy =                -508.9441938665971747
    Two-Electron Energy =                 196.4325814854382202
    DFT Exchange-Correlation Energy =       0.0000000000000000
    Empirical Dispersion Energy =           0.0000000000000000
    PCM Polarization Energy =               0.0000000000000000
    EFP Energy =                            0.0000000000000000
    Total Energy =                       -173.2669713145740502
    Molecular point group: c1
  Basis Set: 6-31G*
  Basis Set:

  -Total Gradient:
     Atom            X                  Y                   Z
    ------   -----------------  -----------------  -----------------
       1       -0.002842700689    -0.000535304914     0.004144271369
       2        0.002492894922     0.000690549647    -0.004408452082
       3        0.003337910266    -0.000188695802    -0.001996206693
       4       -0.000002903310    -0.000019259548     0.000008480225
       5       -0.000005266152     0.000040269574     0.000030248458
       6       -0.003108130347     0.000135198844     0.002196464388
       7        0.000129678043    -0.000085422736    -0.000028632637
       8        0.000016038784    -0.000038882376     0.000014982302
       9       -0.000005357702     0.000008301777    -0.000002356237
      10        0.000006041642    -0.000004190455     0.000026069643
      11        0.000030348978     0.000007251243     0.000018218451
      12       -0.000059200632    -0.000028033494    -0.000010224001
      13        0.000010646196     0.000018218238     0.000007136813

  **** Optimization is complete! (in 4 steps) ****
    Final optimized geometry and variables:
    Molecular point group: c1

    Geometry (in Angstrom), charge = 0, multiplicity = 1:

    H           -0.221378918803     2.018461703947    -0.280938948518
    C            0.487285916782     1.297115478626     0.107252915169
    N            0.124210291804    -0.039989007613    -0.321263308685
    H            1.482818852888     1.551768771002    -0.239044082382
    H            0.469247615870     1.403722301336     1.196031118183
    C            0.732091995848    -1.045543619532     0.521434244187
    C           -1.310153710935    -0.221524960501    -0.390747709971
    H            0.520808009394    -2.034557406365     0.130763735213
    H            1.808913393483    -0.915450687946     0.532535657163
    H            0.376003923763    -1.002105130327     1.555449985302
    H           -1.739447558341     0.490093994657    -1.086332576543
    H           -1.534395808440    -1.218040361654    -0.754309212790
    H           -1.807538932026    -0.096035180012     0.576485002697

  Mulliken Charges: (a.u.)
   Center  Symbol    Alpha    Beta     Spin     Total
       1     H     0.41847  0.41847  0.00000  0.16306
       2     C     3.14385  3.14385  0.00000 -0.28770
       3     N     3.76520  3.76520  0.00000 -0.53040
       4     H     0.41459  0.41459  0.00000  0.17082
       5     H     0.43339  0.43339  0.00000  0.13322
       6     C     3.14427  3.14427  0.00000 -0.28855
       7     C     3.14403  3.14403  0.00000 -0.28806
       8     H     0.41658  0.41658  0.00000  0.16683
       9     H     0.41657  0.41657  0.00000  0.16687
      10     H     0.43458  0.43458  0.00000  0.13084
      11     H     0.41616  0.41616  0.00000  0.16767
      12     H     0.41701  0.41701  0.00000  0.16598
      13     H     0.43530  0.43530  0.00000  0.12940

   Total alpha = 17.00000, Total beta = 17.00000, Total charge =  0.00000
