  ==> Input File <==

--------------------------------------------------------------------------
set {
	reference rhf
	basis 6-31G*
}

set_num_threads( 1 )
memory 2 gb

molecule MOL {
0 1

H	 -2.430392	 -0.435864	 1.200613
O	 -2.059198	 0.370765	 1.529175
C	 -1.042969	 0.808173	 0.667236
C	 0.212338	 -0.031600	 0.824251
H	 -1.363982	 0.795217	 -0.370618
H	 -0.826511	 1.833643	 0.931827
O	 1.171513	 0.459272	 -0.058250
H	 -0.007957	 -1.078745	 0.607601
H	 0.561110	 0.021710	 1.853862
C	 2.397842	 -0.198080	 -0.002151
H	 2.508049	 -0.905315	 -0.822092
H	 3.173794	 0.550865	 -0.078850
H	 2.517602	 -0.735921	 0.936026

	symmetry c1
}
set optking {
	frozen_dihedral = ("
		8 4 3 5,
		1 2 3 5,
		10 7 4 8
	")
}

ee = energy('scf')
oeprop('DIPOLE', 'QUADRUPOLE', 'MULLIKEN_CHARGES')
f=open( 'psi4out.xyz', 'w' )
f.write( "13  " )
f.write( str(ee) + "\n" )
f.write( MOL.save_string_xyz() )
f.close()
--------------------------------------------------------------------------

    Molecular point group: c1

    Geometry (in Angstrom), charge = 0, multiplicity = 1:

       Center              X                  Y                   Z               Mass
    ------------   -----------------  -----------------  -----------------  -----------------
           H         -2.545735192332    -0.702314839555     0.599829527812     1.007825032070
           O         -2.174541192332     0.104314160445     0.928391527812    15.994914619560
           C         -1.158312192332     0.541722160445     0.066452527812    12.000000000000
           C          0.096994807668    -0.298050839555     0.223467527812    12.000000000000
           H         -1.479325192332     0.528766160445    -0.971401472188     1.007825032070
           H         -0.941854192332     1.567192160445     0.331043527812     1.007825032070
           O          1.056169807668     0.192821160445    -0.659033472188    15.994914619560
           H         -0.123300192332    -1.345195839555     0.006817527812     1.007825032070
           H          0.445766807668    -0.244740839555     1.253078527812     1.007825032070
           C          2.282498807668    -0.464530839555    -0.602934472188    12.000000000000
           H          2.392705807668    -1.171765839555    -1.422875472188     1.007825032070
           H          3.058450807668     0.284414160445    -0.679633472188     1.007825032070
           H          2.402258807668    -1.002371839555     0.335242527812     1.007825032070

  Charge       = 0
  Multiplicity = 1
  Basis Set: 6-31G*
  Basis Set:

    Orbital Energies (a.u.)
    -----------------------

    Doubly Occupied:

       1A    -20.560244     2A    -20.560006     3A    -11.271311
       4A    -11.269437     5A    -11.268681     6A     -1.388123
       7A     -1.365018     8A     -1.018142     9A     -0.913116
      10A     -0.842705    11A     -0.709356    12A     -0.671989
      13A     -0.659893    14A     -0.638332    15A     -0.595193
      16A     -0.569469    17A     -0.546371    18A     -0.490691
      19A     -0.482340    20A     -0.438257    21A     -0.417993

  @DF-RHF Final Energy:  -267.94745142796597

   => Energetics <=

    Nuclear Repulsion Energy =            190.2714524892530221
    One-Electron Energy =                -743.0844942059634377
    Two-Electron Energy =                 284.8655902887441584
    DFT Exchange-Correlation Energy =       0.0000000000000000
    Empirical Dispersion Energy =           0.0000000000000000
    PCM Polarization Energy =               0.0000000000000000
    EFP Energy =                            0.0000000000000000
    Total Energy =                       -267.9474514279662003

  Mulliken Charges: (a.u.)
   Center  Symbol    Alpha    Beta     Spin     Total
       1     H     0.28128  0.28128  0.00000  0.43743
       2     O     4.37088  4.37088  0.00000 -0.74177
       3     C     3.00494  3.00494  0.00000 -0.00989
       4     C     2.99803  2.99803  0.00000  0.00393
       5     H     0.42227  0.42227  0.00000  0.15547
       6     H     0.40852  0.40852  0.00000  0.18295
       7     O     4.30882  4.30882  0.00000 -0.61764
       8     H     0.43756  0.43756  0.00000  0.12488
       9     H     0.42249  0.42249  0.00000  0.15502
      10     C     3.07799  3.07799  0.00000 -0.15597
      11     H     0.42400  0.42400  0.00000  0.15201
      12     H     0.41468  0.41468  0.00000  0.17064
      13     H     0.42854  0.42854  0.00000  0.14292

   Total alpha = 21.00000, Total beta = 21.00000, Total charge = -0.00000
