                              Psi4 1.0.54 Driver

  ==> Input File <==

--------------------------------------------------------------------------
set {
	reference rhf
	basis cc-pvtz
}

set_num_threads( 4 )
memory 2 gb

molecule MOL {
0 1

H	 -3.144994	 -1.202467	 -0.018751
O	 -2.321472	 -0.864941	 -0.318626
C	 -2.021813	 0.336996	 0.342658
C	 -0.669613	 0.837286	 -0.127252
H	 -2.780861	 1.084746	 0.127159
H	 -2.006390	 0.184138	 1.420053
C	 0.490865	 -0.082543	 0.241244
H	 -0.708709	 0.967192	 -1.204587
H	 -0.507562	 1.822272	 0.303070
C	 0.343247	 -0.704410	 1.626920
H	 1.418305	 0.476399	 0.191279
H	 0.567965	 -0.875162	 -0.500329
C	 1.498790	 -1.629922	 1.992889
H	 0.268199	 0.086755	 2.367952
H	 -0.590853	 -1.258093	 1.677718
H	 2.443415	 -1.096497	 1.985361
H	 1.365785	 -2.053539	 2.981910
H	 1.579771	 -2.452083	 1.289370

	symmetry c1
}
set optking {
	frozen_dihedral = ("
		10 7 4 8
	")
}

ee,wfn = optimize('scf', return_wfn=True)
oeprop( wfn, 'DIPOLE', 'QUADRUPOLE', 'MULLIKEN_CHARGES')
f=open( 'psi4out.xyz', 'w' )
f.write( "18  " )
f.write( str(ee) + "\n" )
f.write( MOL.save_string_xyz() )
f.close()
--------------------------------------------------------------------------

    Molecular point group: c1
  Charge       = 0
  Multiplicity = 1
  Basis Set: CC-PVTZ
  Basis Set:
  @DF-RHF Final Energy:  -271.28118170113379
    Total Energy =                       -271.2811817011339599
    Molecular point group: c1
  Basis Set: CC-PVTZ
  Basis Set:
  Basis Set: CC-PVTZ
  Basis Set:
  @DF-RHF Final Energy:  -271.23795435467639
    Total Energy =                       -271.2379543546766172
  Basis Set: CC-PVTZ
  Basis Set:
  Basis Set: CC-PVTZ
  Basis Set:
  @DF-RHF Final Energy:  -271.28003355417275
    Total Energy =                       -271.2800335541728600
  Basis Set: CC-PVTZ
  Basis Set:
  Basis Set: CC-PVTZ
  Basis Set:
  @DF-RHF Final Energy:  -271.28296269311534
    Total Energy =                       -271.2829626931152234
  Basis Set: CC-PVTZ
  Basis Set:
  Basis Set: CC-PVTZ
  Basis Set:
  @DF-RHF Final Energy:  -271.28324247137800
    Total Energy =                       -271.2832424713779460
  Basis Set: CC-PVTZ
  Basis Set:
  Basis Set: CC-PVTZ
  Basis Set:
  @DF-RHF Final Energy:  -271.28325143305887
    Total Energy =                       -271.2832514330585809
  Basis Set: CC-PVTZ
  Basis Set:
  Basis Set: CC-PVTZ
  Basis Set:
  @DF-RHF Final Energy:  -271.28325982833837
    Total Energy =                       -271.2832598283384868
  Basis Set: CC-PVTZ
  Basis Set:
  Charge       = 0
  Multiplicity = 1
  Basis Set: CC-PVTZ
  Basis Set:

    Orbital Energies (a.u.)
    -----------------------

    Doubly Occupied:

       1A    -20.547153     2A    -11.265093     3A    -11.211180
       4A    -11.207100     5A    -11.205861     6A    -11.201994
       7A     -1.364685     8A     -1.074621     9A     -1.007590
      10A     -0.914074    11A     -0.833662    12A     -0.766903
      13A     -0.708555    14A     -0.645966    15A     -0.627918
      16A     -0.585752    17A     -0.562914    18A     -0.553464
      19A     -0.539919    20A     -0.498628    21A     -0.491340
      22A     -0.463652    23A     -0.456245    24A     -0.447171
      25A     -0.432080

  @DF-RHF Final Energy:  -271.28326018807525

   => Energetics <=

    Nuclear Repulsion Energy =            255.3698534584785023
    One-Electron Energy =                -874.0791833147677607
    Two-Electron Energy =                 347.4260696682142679
    DFT Exchange-Correlation Energy =       0.0000000000000000
    Empirical Dispersion Energy =           0.0000000000000000
    PCM Polarization Energy =               0.0000000000000000
    EFP Energy =                            0.0000000000000000
    Total Energy =                       -271.2832601880750190
    Molecular point group: c1
  Basis Set: CC-PVTZ
  Basis Set:

  -Total Gradient:
     Atom            X                  Y                   Z
    ------   -----------------  -----------------  -----------------
       1        0.000016226295     0.000006771822     0.000001566467
       2       -0.000005784988    -0.000002838323     0.000022620178
       3       -0.000018610868    -0.000005988291    -0.000067532155
       4        0.001823690413     0.004135094004     0.000199405462
       5        0.000001301868     0.000020948378     0.000018861584
       6        0.000010085592    -0.000004489982    -0.000007354925
       7        0.000581188783     0.003600640899     0.002182944238
       8       -0.001746362869    -0.004524517223    -0.000712447871
       9        0.000002706977    -0.000009418708    -0.000006273250
      10       -0.000665442489    -0.003219801230    -0.001622737715
      11       -0.000002108327    -0.000015351339     0.000010560705
      12       -0.000000299192    -0.000001180327     0.000020189193
      13        0.000011103082     0.000005980353    -0.000018922701
      14        0.000003121128    -0.000009922308    -0.000021784985
      15        0.000012522096     0.000017929376    -0.000000924797
      16       -0.000009886626    -0.000014199280    -0.000004153964
      17       -0.000006045448     0.000007064949    -0.000007341941
      18       -0.000007405429     0.000013277232     0.000013326477

  **** Optimization is complete! (in 8 steps) ****
    Final optimized geometry and variables:
    Molecular point group: c1

    Geometry (in Angstrom), charge = 0, multiplicity = 1:

    H           -2.199673506663    -1.507343220033    -1.154590177991
    O           -1.430792062629    -0.974810918385    -1.239926972399
    C           -1.639988078516     0.277828678525    -0.639493838663
    C           -0.383437011528     1.115483961662    -0.800420939520
    H           -2.469170178197     0.792222633943    -1.118792316846
    H           -1.894771324124     0.158997388174     0.409431909035
    C            0.891103995208     0.526803461504    -0.178121983946
    H           -0.227254233163     1.224724017715    -1.868418528662
    H           -0.586178219316     2.099815410327    -0.389243085953
    C            0.725525588451    -0.134579878140     1.188559085783
    H            1.633384215120     1.316803915093    -0.109931397970
    H            1.297753701159    -0.213376653592    -0.858880294637
    C            2.056419994143    -0.595326750244     1.774693769466
    H            0.252062846042     0.557379203207     1.881791040352
    H            0.063754811636    -0.987291350612     1.098211425907
    H            2.733342270970     0.240312736473     1.918540930752
    H            1.916745361365    -1.076836140315     2.735967460578
    H            2.545916421143    -1.306071559135     1.117196316897

  Mulliken Charges: (a.u.)
   Center  Symbol    Alpha    Beta     Spin     Total
       1     H     0.39533  0.39533  0.00000  0.20934
       2     O     4.20156  4.20156  0.00000 -0.40311
       3     C     2.98408  2.98408  0.00000  0.03183
       4     C     3.09948  3.09948  0.00000 -0.19897
       5     H     0.45812  0.45812  0.00000  0.08376
       6     H     0.46658  0.46658  0.00000  0.06683
       7     C     3.08513  3.08513  0.00000 -0.17026
       8     H     0.44939  0.44939  0.00000  0.10122
       9     H     0.45167  0.45167  0.00000  0.09666
      10     C     3.08918  3.08918  0.00000 -0.17835
      11     H     0.45156  0.45156  0.00000  0.09689
      12     H     0.44997  0.44997  0.00000  0.10005
      13     C     3.15144  3.15144  0.00000 -0.30287
      14     H     0.45703  0.45703  0.00000  0.08593
      15     H     0.44971  0.44971  0.00000  0.10057
      16     H     0.45585  0.45585  0.00000  0.08829
      17     H     0.44974  0.44974  0.00000  0.10051
      18     H     0.45417  0.45417  0.00000  0.09167

   Total alpha = 25.00000, Total beta = 25.00000, Total charge =  0.00000

*** Psi4 exiting successfully. Buy a developer a beer!
