                              Psi4 1.0.54 Driver

  ==> Input File <==

--------------------------------------------------------------------------
set {
	reference rhf
	basis cc-pvtz
}

set_num_threads( 4 )
memory 2 gb

molecule MOL {
0 1

O	 0.944546	 -3.083325	 -4.336060
C	 0.814061	 -1.923132	 -4.116160
C	 0.552058	 -1.418293	 -2.710976
C	 0.920432	 -0.892122	 -5.214555
C	 1.861984	 -1.265595	 -1.927638
H	 -0.084701	 -2.140942	 -2.216580
H	 0.029028	 -0.468436	 -2.743799
C	 1.630207	 -0.772146	 -0.501001
H	 2.366971	 -2.223283	 -1.920485
H	 2.518517	 -0.569119	 -2.443567
C	 2.907848	 -0.545876	 0.309149
H	 0.994258	 -1.481516	 0.022775
H	 1.076036	 0.161635	 -0.540386
C	 3.373802	 0.906639	 0.372125
H	 3.699140	 -1.146831	 -0.127906
H	 2.764321	 -0.923458	 1.318191
H	 3.519798	 1.311927	 -0.623875
H	 4.316899	 0.983758	 0.900700
H	 2.661122	 1.540651	 0.885346
H	 -0.052544	 -0.438028	 -5.373032
H	 1.254503	 -1.356499	 -6.129606
H	 1.601705	 -0.098155	 -4.929822

	symmetry c1
}
set optking {
	frozen_dihedral = ("
		12 8 11 15
	")
}

ee,wfn = optimize('scf', return_wfn=True)
oeprop( wfn, 'DIPOLE', 'QUADRUPOLE', 'MULLIKEN_CHARGES')
f=open( 'psi4out.xyz', 'w' )
f.write( "22  " )
f.write( str(ee) + "\n" )
f.write( MOL.save_string_xyz() )
f.close()
--------------------------------------------------------------------------

    Molecular point group: c1
  Charge       = 0
  Multiplicity = 1
  Basis Set: CC-PVTZ
  Basis Set:
  @DF-RHF Final Energy:  -348.22048135168433
    Total Energy =                       -348.2204813516846684
    Molecular point group: c1
  Basis Set: CC-PVTZ
  Basis Set:
  Basis Set: CC-PVTZ
  Basis Set:
  @DF-RHF Final Energy:  -348.22083575433879
    Total Energy =                       -348.2208357543387365
  Basis Set: CC-PVTZ
  Basis Set:
  Basis Set: CC-PVTZ
  Basis Set:
  @DF-RHF Final Energy:  -348.22076796342662
    Total Energy =                       -348.2207679634268516
  Basis Set: CC-PVTZ
  Basis Set:
  Basis Set: CC-PVTZ
  Basis Set:
  @DF-RHF Final Energy:  -348.22083527073238
    Total Energy =                       -348.2208352707324366
  Basis Set: CC-PVTZ
  Basis Set:
  Basis Set: CC-PVTZ
  Basis Set:
  @DF-RHF Final Energy:  -348.22084351312645
    Total Energy =                       -348.2208435131265105
  Basis Set: CC-PVTZ
  Basis Set:
  Basis Set: CC-PVTZ
  Basis Set:
  @DF-RHF Final Energy:  -348.22086702735112
    Total Energy =                       -348.2208670273513462
  Basis Set: CC-PVTZ
  Basis Set:
  Basis Set: CC-PVTZ
  Basis Set:
  @DF-RHF Final Energy:  -348.22087418376327
    Total Energy =                       -348.2208741837632715
  Basis Set: CC-PVTZ
  Basis Set:
  Charge       = 0
  Multiplicity = 1
  Basis Set: CC-PVTZ
  Basis Set:

    Orbital Energies (a.u.)
    -----------------------

    Doubly Occupied:

       1A    -20.536836     2A    -11.319379     3A    -11.228988
       4A    -11.227643     5A    -11.226982     6A    -11.220242
       7A    -11.218862     8A    -11.212006     9A     -1.396998
      10A     -1.097111    11A     -1.046175    12A     -1.001185
      13A     -0.939420    14A     -0.852390    15A     -0.795764
      16A     -0.734250    17A     -0.662332    18A     -0.649315
      19A     -0.629025    20A     -0.618585    21A     -0.599920
      22A     -0.587065    23A     -0.556862    24A     -0.546831
      25A     -0.540355    26A     -0.514193    27A     -0.500946
      28A     -0.492687    29A     -0.473146    30A     -0.464896
      31A     -0.461241    32A     -0.398596

  @DF-RHF Final Energy:  -348.22087458183341

   => Energetics <=

    Nuclear Repulsion Energy =            372.0006273828036001
    One-Electron Energy =               -1208.9425488121405579
    Two-Electron Energy =                 488.7210468475036578
    DFT Exchange-Correlation Energy =       0.0000000000000000
    Empirical Dispersion Energy =           0.0000000000000000
    PCM Polarization Energy =               0.0000000000000000
    EFP Energy =                            0.0000000000000000
    Total Energy =                       -348.2208745818333000
    Molecular point group: c1
  Basis Set: CC-PVTZ
  Basis Set:

  -Total Gradient:
     Atom            X                  Y                   Z
    ------   -----------------  -----------------  -----------------
       1        0.000006306413     0.000077293435     0.000013630448
       2       -0.000007352636    -0.000023788499    -0.000004509422
       3        0.000004977434    -0.000016274314    -0.000001961712
       4       -0.000018314783    -0.000047872312    -0.000029454432
       5        0.000041145601    -0.000026571052    -0.000002999666
       6        0.000013396679     0.000016157578    -0.000013932952
       7        0.000014501164    -0.000023958761     0.000012321947
       8        0.001929225844    -0.002383097658    -0.002452800662
       9        0.000004039801     0.000020772979    -0.000002540536
      10       -0.000030243313    -0.000021416633     0.000005772230
      11       -0.001300772300    -0.002585033093     0.002784569875
      12       -0.001396555015     0.002460246949     0.001602211519
      13        0.000027392068    -0.000006437694     0.000059897356
      14       -0.000032214484     0.000057259119    -0.000033518570
      15        0.000727751717     0.002468314298    -0.001924276287
      16       -0.000006499875     0.000020319185    -0.000049925636
      17       -0.000001176355     0.000003029990     0.000045963164
      18       -0.000005467416     0.000004794239    -0.000013871349
      19        0.000014954110    -0.000006549808    -0.000023704170
      20        0.000006642801    -0.000003745573     0.000000351958
      21       -0.000009018584     0.000015989443     0.000015678115
      22        0.000017281129     0.000000568175     0.000013098789

  **** Optimization is complete! (in 8 steps) ****
    Final optimized geometry and variables:
    Molecular point group: c1

    Geometry (in Angstrom), charge = 0, multiplicity = 1:

    O           -0.675141799666    -1.939065357714    -2.095475675245
    C           -0.802497250183    -0.782253992703    -1.857390934842
    C           -1.084920234421    -0.300103592329    -0.448376004123
    C           -0.673626293293     0.266693389581    -2.936184164520
    C            0.213013796291    -0.149406904434     0.353867820407
    H           -1.722831183979    -1.033885824830     0.027569237642
    H           -1.613639506890     0.646831365918    -0.474139883002
    C           -0.031336974794     0.308762244876     1.788761192437
    H            0.730254545113    -1.102280876205     0.359380036740
    H            0.871291291095     0.558740044779    -0.142969953512
    C            1.261120616566     0.525475883219     2.594258815670
    H           -0.671090316960    -0.406160472164     2.295873711684
    H           -0.598335796866     1.236236010354     1.773357625217
    C            1.708113454905     1.985895518258     2.631290535186
    H            2.061486126794    -0.061636382728     2.154548601381
    H            1.130920527438     0.169189224577     3.609297351294
    H            1.851138007698     2.379857031007     1.630263328813
    H            2.645718127977     2.095962429489     3.164049263166
    H            0.970000404100     2.607346111834     3.126769320420
    H           -1.643047765538     0.724498828304    -3.105290525242
    H           -0.323447621448    -0.183265354553    -3.852357678469
    H            0.003126775207     1.055030297863    -2.626254550735

  Mulliken Charges: (a.u.)
   Center  Symbol    Alpha    Beta     Spin     Total
       1     O     4.17767  4.17767  0.00000 -0.35535
       2     C     2.85803  2.85803  0.00000  0.28393
       3     C     3.09906  3.09906  0.00000 -0.19812
       4     C     3.15528  3.15528  0.00000 -0.31056
       5     C     3.10130  3.10130  0.00000 -0.20260
       6     H     0.43901  0.43901  0.00000  0.12198
       7     H     0.44867  0.44867  0.00000  0.10266
       8     C     3.09690  3.09690  0.00000 -0.19381
       9     H     0.43995  0.43995  0.00000  0.12010
      10     H     0.45139  0.45139  0.00000  0.09723
      11     C     3.09147  3.09147  0.00000 -0.18294
      12     H     0.44437  0.44437  0.00000  0.11125
      13     H     0.45562  0.45562  0.00000  0.08876
      14     C     3.14748  3.14748  0.00000 -0.29496
      15     H     0.45349  0.45349  0.00000  0.09303
      16     H     0.44617  0.44617  0.00000  0.10767
      17     H     0.45643  0.45643  0.00000  0.08714
      18     H     0.44770  0.44770  0.00000  0.10460
      19     H     0.45470  0.45470  0.00000  0.09059
      20     H     0.44829  0.44829  0.00000  0.10343
      21     H     0.43598  0.43598  0.00000  0.12805
      22     H     0.45104  0.45104  0.00000  0.09793

   Total alpha = 32.00000, Total beta = 32.00000, Total charge = -0.00000

*** Psi4 exiting successfully. Buy a developer a beer!
