  ==> Input File <==

--------------------------------------------------------------------------
set {
	reference rhf
	basis cc-pvtz
}

set_num_threads( 4 )
memory 2 gb

molecule MOL {
0 1

H	 1.924390	 -0.742500	 -0.921942
O	 1.107568	 -0.711462	 -0.459899
C	 0.700177	 0.619554	 -0.266242
C	 -0.713111	 0.588314	 0.266177
H	 0.722600	 1.167231	 -1.203510
H	 1.347463	 1.123910	 0.446516
O	 -1.421673	 -0.521378	 -0.196983
H	 -1.244794	 1.469161	 -0.069059
H	 -0.685100	 0.604721	 1.352683
H	 -0.933408	 -1.297830	 0.014544

	symmetry c1
}
set optking {
	frozen_dihedral = ("
		5 3 4 7
	")
}

ee = optimize('scf')
oeprop('DIPOLE', 'QUADRUPOLE', 'MULLIKEN_CHARGES')
f=open( 'psi4out.xyz', 'w' )
f.write( "10  " )
f.write( str(ee) + "\n" )
f.write( MOL.save_string_xyz() )
f.close()
--------------------------------------------------------------------------

    Molecular point group: c1
  Charge       = 0
  Multiplicity = 1
  Basis Set: CC-PVTZ
  Basis Set:
  @DF-RHF Final Energy:  -229.02181628437339
    Total Energy =                       -229.0218162843734717
    Molecular point group: c1
  Basis Set: CC-PVTZ
  Basis Set:
  Basis Set: CC-PVTZ
  Basis Set:
  @DF-RHF Final Energy:  -229.02351455382197
    Total Energy =                       -229.0235145538219683
  Basis Set: CC-PVTZ
  Basis Set:
  Basis Set: CC-PVTZ
  Basis Set:
  @DF-RHF Final Energy:  -229.02385636412802
    Total Energy =                       -229.0238563641279654
  Basis Set: CC-PVTZ
  Basis Set:
  Basis Set: CC-PVTZ
  Basis Set:
  @DF-RHF Final Energy:  -229.02390241526172
    Total Energy =                       -229.0239024152616025
  Basis Set: CC-PVTZ
  Basis Set:
  Basis Set: CC-PVTZ
  Basis Set:
  @DF-RHF Final Energy:  -229.02392682939669
    Total Energy =                       -229.0239268293967712
  Basis Set: CC-PVTZ
  Basis Set:
  Basis Set: CC-PVTZ
  Basis Set:
  @DF-RHF Final Energy:  -229.02393393341799
    Total Energy =                       -229.0239339334181636
  Basis Set: CC-PVTZ
  Basis Set:
  Charge       = 0
  Multiplicity = 1
  Basis Set: CC-PVTZ
  Basis Set:

    Orbital Energies (a.u.)
    -----------------------

    Doubly Occupied:

       1A    -20.567069     2A    -20.536797     3A    -11.277963
       4A    -11.267222     5A     -1.391892     6A     -1.352250
       7A     -1.001684     8A     -0.847029     9A     -0.732029
      10A     -0.682540    11A     -0.657421    12A     -0.597394
      13A     -0.582285    14A     -0.542392    15A     -0.489761
      16A     -0.459581    17A     -0.426554

  @DF-RHF Final Energy:  -229.02393458444337

   => Energetics <=

    Nuclear Repulsion Energy =            135.0580155074819970
    One-Electron Energy =                -581.3401731573508187
    Two-Electron Energy =                 217.2582230654255113
    DFT Exchange-Correlation Energy =       0.0000000000000000
    Empirical Dispersion Energy =           0.0000000000000000
    PCM Polarization Energy =               0.0000000000000000
    EFP Energy =                            0.0000000000000000
    Total Energy =                       -229.0239345844433387
    Molecular point group: c1
  Basis Set: CC-PVTZ
  Basis Set:

  -Total Gradient:
     Atom            X                  Y                   Z
    ------   -----------------  -----------------  -----------------
       1        0.000002385605    -0.000002836653     0.000016306884
       2       -0.000025410769     0.000062116517    -0.000009085308
       3       -0.001206499725    -0.009711937701    -0.003067113694
       4       -0.002433711197     0.006167857507    -0.005654901315
       5        0.001575112631     0.006769374106     0.003814272062
       6        0.000003204576     0.000004309515    -0.000006735729
       7        0.002091832320    -0.003288060191     0.004882394247
       8       -0.000002058414     0.000000822283     0.000009372996
       9       -0.000003891993     0.000006157008     0.000008608141
      10       -0.000000963037    -0.000007802392     0.000006881716

  **** Optimization is complete! (in 7 steps) ****
    Final optimized geometry and variables:
    Molecular point group: c1

    Geometry (in Angstrom), charge = 0, multiplicity = 1:

    H            2.057980813795    -0.702643279953    -0.668370945141
    O            1.207303594526    -0.673974351683    -0.272351206346
    C            0.761661523992     0.647867639596    -0.154477318775
    C           -0.645833342599     0.639041972616     0.441036719256
    H            0.779496269732     1.179608384710    -1.101344887073
    H            1.408170521079     1.208272157096     0.516769391452
    O           -1.399751398016    -0.458981650884     0.032313224904
    H           -1.170575208560     1.538153967514     0.147655979804
    H           -0.567427764205     0.642406927921     1.525652908620
    H           -0.832504647106    -1.207976514639    -0.022799180126

  Mulliken Charges: (a.u.)
   Center  Symbol    Alpha    Beta     Spin     Total
       1     H     0.39203  0.39203  0.00000  0.21593
       2     O     4.20163  4.20163  0.00000 -0.40327
       3     C     2.96752  2.96752  0.00000  0.06495
       4     C     2.95905  2.95905  0.00000  0.08190
       5     H     0.47422  0.47422  0.00000  0.05156
       6     H     0.47478  0.47478  0.00000  0.05043
       7     O     4.20908  4.20908  0.00000 -0.41817
       8     H     0.46239  0.46239  0.00000  0.07522
       9     H     0.47686  0.47686  0.00000  0.04627
      10     H     0.38242  0.38242  0.00000  0.23517

   Total alpha = 17.00000, Total beta = 17.00000, Total charge =  0.00000
