  ==> Input File <==

--------------------------------------------------------------------------
set {
	reference rhf
	basis cc-pvtz
}

set_num_threads( 4 )
memory 2 gb

molecule MOL {
0 1

H	 -0.000105	 1.988529	 0.748933
O	 -0.000098	 1.879786	 -0.188206
C	 -0.000014	 0.545691	 -0.532416
C	 -1.286000	 -0.125171	 -0.046657
C	 1.286016	 -0.125031	 -0.046584
H	 0.000021	 0.481103	 -1.610604
F	 -2.096877	 0.786907	 0.430263
F	 -1.911748	 -0.756376	 -1.007767
F	 -1.041958	 -0.986021	 0.918099
F	 2.317750	 0.468717	 -0.594166
F	 1.336617	 -1.393765	 -0.365123
F	 1.414467	 -0.024806	 1.259108

	symmetry c1
}
set optking {
	frozen_dihedral = ("
		7 4 3 6
	")
}

ee = optimize('scf')
oeprop('DIPOLE', 'QUADRUPOLE', 'MULLIKEN_CHARGES')
f=open( 'psi4out.xyz', 'w' )
f.write( "12  " )
f.write( str(ee) + "\n" )
f.write( MOL.save_string_xyz() )
f.close()
--------------------------------------------------------------------------

    Molecular point group: c1
  Charge       = 0
  Multiplicity = 1
  Basis Set: CC-PVTZ
  Basis Set:
  @DF-RHF Final Energy:  -786.58215575523604
    Total Energy =                       -786.5821557552355898
    Molecular point group: c1
  Basis Set: CC-PVTZ
  Basis Set:
  Basis Set: CC-PVTZ
  Basis Set:
  @DF-RHF Final Energy:  -786.58306374697906
    Total Energy =                       -786.5830637469790645
  Basis Set: CC-PVTZ
  Basis Set:
  Basis Set: CC-PVTZ
  Basis Set:
  @DF-RHF Final Energy:  -786.58386700479207
    Total Energy =                       -786.5838670047920687
  Basis Set: CC-PVTZ
  Basis Set:
  Basis Set: CC-PVTZ
  Basis Set:
  @DF-RHF Final Energy:  -786.58393272015326
    Total Energy =                       -786.5839327201537117
  Basis Set: CC-PVTZ
  Basis Set:
  Basis Set: CC-PVTZ
  Basis Set:
  @DF-RHF Final Energy:  -786.58394327856968
    Total Energy =                       -786.5839432785692225
  Basis Set: CC-PVTZ
  Basis Set:
  Basis Set: CC-PVTZ
  Basis Set:
  @DF-RHF Final Energy:  -786.58394522816536
    Total Energy =                       -786.5839452281652484
  Basis Set: CC-PVTZ
  Basis Set:
  Charge       = 0
  Multiplicity = 1
  Basis Set: CC-PVTZ
  Basis Set:

    Orbital Energies (a.u.)
    -----------------------

    Doubly Occupied:

       1A    -26.357064     2A    -26.356887     3A    -26.356477
       4A    -26.356055     5A    -26.354827     6A    -26.352360
       7A    -20.609735     8A    -11.521468     9A    -11.517561
      10A    -11.351707    11A     -1.771641    12A     -1.765395
      13A     -1.665197    14A     -1.663821    15A     -1.663616
      16A     -1.658941    17A     -1.439657    18A     -1.100995
      19A     -1.000255    20A     -0.943911    21A     -0.871748
      22A     -0.865683    23A     -0.857651    24A     -0.853540
      25A     -0.840829    26A     -0.819401    27A     -0.740375
      28A     -0.737041    29A     -0.734681    30A     -0.729650
      31A     -0.694970    32A     -0.690851    33A     -0.689423
      34A     -0.684159    35A     -0.674528    36A     -0.668340
      37A     -0.662318    38A     -0.655569    39A     -0.622651
      40A     -0.551353    41A     -0.509453

  @DF-RHF Final Energy:  -786.58394554228198

   => Energetics <=

    Nuclear Repulsion Energy =            670.1139447906687110
    One-Electron Energy =               -2427.4722093842574395
    Two-Electron Energy =                 970.7743190513065201
    DFT Exchange-Correlation Energy =       0.0000000000000000
    Empirical Dispersion Energy =           0.0000000000000000
    PCM Polarization Energy =               0.0000000000000000
    EFP Energy =                            0.0000000000000000
    Total Energy =                       -786.5839455422822084
    Molecular point group: c1
  Basis Set: CC-PVTZ
  Basis Set:

  -Total Gradient:
     Atom            X                  Y                   Z
    ------   -----------------  -----------------  -----------------
       1       -0.000004841497    -0.000000895378    -0.000007581136
       2        0.000005851931    -0.000011801221     0.000015602615
       3       -0.001244069580     0.002556675162     0.000347224140
       4       -0.000794152172    -0.000181161680    -0.002417036447
       5       -0.000010262708     0.000021028845     0.000036408530
       6        0.001261805011    -0.002177344442     0.000137384219
       7        0.000806232683    -0.000199429817     0.001936948616
       8        0.000010863450     0.000012203444    -0.000008809109
       9        0.000027243968     0.000004001943    -0.000025915763
      10       -0.000021001328     0.000006992812     0.000012392041
      11       -0.000033316052    -0.000036336706    -0.000005615749
      12       -0.000004353708     0.000006067038    -0.000021001961

  **** Optimization is complete! (in 7 steps) ****
    Final optimized geometry and variables:
    Molecular point group: c1

    Geometry (in Angstrom), charge = 0, multiplicity = 1:

    H           -0.008424741235     2.048831297599     0.746685826054
    O            0.040079610157     1.919571237295    -0.185916783241
    C            0.004225303083     0.585945933489    -0.516084825259
    C           -1.288175443675    -0.125541674038    -0.035421990050
    C            1.280146793147    -0.112948163165    -0.048102263931
    H            0.013460831519     0.512352782221    -1.592498037200
    F           -2.147998238140     0.744716317579     0.432401049836
    F           -1.852705795628    -0.764559132115    -1.032517535875
    F           -1.069554999175    -0.999876862233     0.920399344294
    F            2.317190653802     0.432006799098    -0.635129588760
    F            1.269074878497    -1.387733440770    -0.354954568846
    F            1.452385303689     0.004013446535     1.249927040132

  Mulliken Charges: (a.u.)
   Center  Symbol    Alpha    Beta     Spin     Total
       1     H     0.38326  0.38326  0.00000  0.23348
       2     O     4.18263  4.18263  0.00000 -0.36527
       3     C     3.01910  3.01910  0.00000 -0.03819
       4     C     2.67550  2.67550  0.00000  0.64900
       5     C     2.67888  2.67888  0.00000  0.64224
       6     H     0.42882  0.42882  0.00000  0.14236
       7     F     4.60325  4.60325  0.00000 -0.20649
       8     F     4.60518  4.60518  0.00000 -0.21036
       9     F     4.60424  4.60424  0.00000 -0.20848
      10     F     4.60206  4.60206  0.00000 -0.20411
      11     F     4.60606  4.60606  0.00000 -0.21212
      12     F     4.61102  4.61102  0.00000 -0.22205

   Total alpha = 41.00000, Total beta = 41.00000, Total charge = -0.00000
