  ==> Input File <==

--------------------------------------------------------------------------
set {
	reference rhf
	basis 6-31G*
}

set_num_threads( 4 )
memory 2 gb

molecule MOL {
0 1

O	 -2.042549	 -1.228399	 -0.269030
C	 -1.653912	 -0.146171	 0.050137
C	 -0.332303	 0.024011	 0.778412
C	 -2.438579	 1.106236	 -0.272369
C	 0.845713	 -0.001731	 -0.208243
H	 -0.323783	 0.953829	 1.340327
H	 -0.235459	 -0.796807	 1.480410
C	 2.200309	 0.136118	 0.488247
H	 0.733710	 0.800019	 -0.936072
H	 0.811185	 -0.933796	 -0.764304
C	 2.995200	 -1.168967	 0.498654
H	 2.783199	 0.911128	 -0.004729
H	 2.044335	 0.473096	 1.510346
H	 3.196709	 -1.514208	 -0.511423
H	 2.450944	 -1.954812	 1.014091
H	 3.948903	 -1.042278	 1.001075
H	 -3.277823	 0.863061	 -0.908988
H	 -1.806773	 1.843019	 -0.759671
H	 -2.802853	 1.554979	 0.648059

	symmetry c1
}
set optking {
	frozen_dihedral = ("
		11 8 5 9
	")
}

ee = optimize('scf')
oeprop('DIPOLE', 'QUADRUPOLE', 'MULLIKEN_CHARGES')
f=open( 'psi4out.xyz', 'w' )
f.write( "19  " )
f.write( str(ee) + "\n" )
f.write( MOL.save_string_xyz() )
f.close()
--------------------------------------------------------------------------

    Molecular point group: c1
  Charge       = 0
  Multiplicity = 1
  Basis Set: 6-31G*
  Basis Set:
  @DF-RHF Final Energy:  -309.05961224181647
    Total Energy =                       -309.0596122418161258
    Molecular point group: c1
  Basis Set: 6-31G*
  Basis Set:
  Basis Set: 6-31G*
  Basis Set:
  @DF-RHF Final Energy:  -309.05976648553678
    Total Energy =                       -309.0597664855366702
  Basis Set: 6-31G*
  Basis Set:
  Basis Set: 6-31G*
  Basis Set:
  @DF-RHF Final Energy:  -309.05990289729709
    Total Energy =                       -309.0599028972966948
  Basis Set: 6-31G*
  Basis Set:
  Basis Set: 6-31G*
  Basis Set:
  @DF-RHF Final Energy:  -309.05988724887681
    Total Energy =                       -309.0598872488769757
  Basis Set: 6-31G*
  Basis Set:
  Basis Set: 6-31G*
  Basis Set:
  @DF-RHF Final Energy:  -309.05993686099021
    Total Energy =                       -309.0599368609902626
  Basis Set: 6-31G*
  Basis Set:
  Basis Set: 6-31G*
  Basis Set:
  @DF-RHF Final Energy:  -309.05989638062601
    Total Energy =                       -309.0598963806259007
  Basis Set: 6-31G*
  Basis Set:
  Basis Set: 6-31G*
  Basis Set:
  @DF-RHF Final Energy:  -309.05996091291087
    Total Energy =                       -309.0599609129108671
  Basis Set: 6-31G*
  Basis Set:
  Charge       = 0
  Multiplicity = 1
  Basis Set: 6-31G*
  Basis Set:

    Orbital Energies (a.u.)
    -----------------------

    Doubly Occupied:

       1A    -20.547693     2A    -11.324548     3A    -11.230248
       4A    -11.229675     5A    -11.228321     6A    -11.224282
       7A    -11.213684     8A     -1.393356     9A     -1.088896
      10A     -1.028028    11A     -0.982733    12A     -0.891353
      13A     -0.804911    14A     -0.735307    15A     -0.653879
      16A     -0.651641    17A     -0.617113    18A     -0.608666
      19A     -0.593143    20A     -0.576124    21A     -0.543858
      22A     -0.533870    23A     -0.523358    24A     -0.496330
      25A     -0.480477    26A     -0.473283    27A     -0.463031
      28A     -0.396744

  @DF-RHF Final Energy:  -309.05996123001870

   => Energetics <=

    Nuclear Repulsion Energy =            302.4697056327458426
    One-Electron Energy =               -1017.9902324007962306
    Two-Electron Energy =                 406.4605655380313465
    DFT Exchange-Correlation Energy =       0.0000000000000000
    Empirical Dispersion Energy =           0.0000000000000000
    PCM Polarization Energy =               0.0000000000000000
    EFP Energy =                            0.0000000000000000
    Total Energy =                       -309.0599612300189847
    Molecular point group: c1
  Basis Set: 6-31G*
  Basis Set:

  -Total Gradient:
     Atom            X                  Y                   Z
    ------   -----------------  -----------------  -----------------
       1       -0.000009734410     0.000003528632     0.000004292048
       2        0.000014393008    -0.000002710383    -0.000003147458
       3       -0.000012218546    -0.000008613300     0.000012561622
       4       -0.000000597395     0.000001442708    -0.000000385376
       5       -0.000962249774     0.002015704085     0.001513637469
       6       -0.000001498812     0.000002833965     0.000002780582
       7        0.000002700427     0.000000132599    -0.000000230192
       8       -0.000791797844    -0.000955732327     0.001806217688
       9        0.000996597320    -0.001478525373    -0.001746749859
      10        0.000006496010    -0.000002336924    -0.000013246193
      11        0.000770087003     0.000432859974    -0.001591522874
      12       -0.000008272496    -0.000013598864     0.000017593738
      13        0.000007537216     0.000012402752    -0.000000179023
      14       -0.000009694574    -0.000011807955    -0.000001084373
      15        0.000000527299    -0.000004813764     0.000007413619
      16        0.000001008928     0.000012612332    -0.000005535710
      17       -0.000001797678    -0.000000007830    -0.000000834931
      18       -0.000000354149    -0.000000709263     0.000000219725
      19       -0.000001131527    -0.000002661063    -0.000001800503

  **** Optimization is complete! (in 8 steps) ****
    Final optimized geometry and variables:
    Molecular point group: c1

    Geometry (in Angstrom), charge = 0, multiplicity = 1:

    O           -1.969257186804    -1.045702063757    -0.418956234621
    C           -1.598296590643     0.042736496854    -0.099670759161
    C           -0.279730221812     0.234316904494     0.628733898165
    C           -2.402891739818     1.282350953498    -0.422331106323
    C            0.900909046918     0.218010410996    -0.355365335632
    H           -0.283046877588     1.167148404498     1.185360089932
    H           -0.172124449748    -0.581328509717     1.335722802668
    C            2.273752029767     0.323802009362     0.343935182934
    H            0.790024310805     1.017513469547    -1.083194216645
    H            0.850871570813    -0.705003305678    -0.924469794730
    C            3.046948094270    -0.995408261706     0.352813481452
    H            2.878344352209     1.076371423598    -0.153762006954
    H            2.143166516334     0.674523439007     1.364239773622
    H            3.257073200810    -1.327982677334    -0.659144399651
    H            2.482336618396    -1.781093426878     0.847152324408
    H            3.994364566584    -0.890968251175     0.872505835243
    H           -3.238649453729     1.025605430205    -1.058223672316
    H           -1.782810345656     2.028411834399    -0.910635472688
    H           -2.773480124618     1.726180241444     0.497955370454

  Mulliken Charges: (a.u.)
   Center  Symbol    Alpha    Beta     Spin     Total
       1     O     4.26206  4.26206  0.00000 -0.52411
       2     C     2.73773  2.73773  0.00000  0.52455
       3     C     3.20126  3.20126  0.00000 -0.40253
       4     C     3.28951  3.28951  0.00000 -0.57902
       5     C     3.16647  3.16647  0.00000 -0.33295
       6     H     0.41633  0.41633  0.00000  0.16734
       7     H     0.40100  0.40100  0.00000  0.19800
       8     C     3.15515  3.15515  0.00000 -0.31030
       9     H     0.41796  0.41796  0.00000  0.16408
      10     H     0.40398  0.40398  0.00000  0.19204
      11     C     3.24060  3.24060  0.00000 -0.48120
      12     H     0.41807  0.41807  0.00000  0.16385
      13     H     0.41944  0.41944  0.00000  0.16111
      14     H     0.41902  0.41902  0.00000  0.16197
      15     H     0.41890  0.41890  0.00000  0.16219
      16     H     0.41898  0.41898  0.00000  0.16204
      17     H     0.39702  0.39702  0.00000  0.20597
      18     H     0.40976  0.40976  0.00000  0.18048
      19     H     0.40676  0.40676  0.00000  0.18647

   Total alpha = 28.00000, Total beta = 28.00000, Total charge = -0.00000
