                              Psi4 1.0.54 Driver

  ==> Input File <==

--------------------------------------------------------------------------
set {
	reference rhf
	basis cc-pvtz
}

set_num_threads( 4 )
memory 2 gb

molecule MOL {
0 1

O	 -2.817697	 1.304178	 0.001046
C	 -2.664672	 0.129869	 0.003507
C	 -3.797908	 -0.860100	 -0.001145
O	 -1.481217	 -0.452708	 0.001092
H	 -4.408836	 -0.679689	 -0.875387
H	 -3.443486	 -1.878443	 -0.002770
H	 -4.412123	 -0.683688	 0.871605
C	 -0.332055	 0.384012	 -0.000250
C	 0.892252	 -0.506059	 -0.000295
H	 -0.360822	 1.020205	 -0.874146
H	 -0.359817	 1.021310	 0.872861
C	 2.187875	 0.299026	 0.039197
H	 0.871887	 -1.132365	 -0.886295
H	 0.843318	 -1.171869	 0.855256
C	 3.436813	 -0.578059	 0.040340
H	 2.223814	 0.970304	 -0.815246
H	 2.194924	 0.931410	 0.923513
C	 4.731718	 0.226041	 0.080996
H	 3.431794	 -1.209214	 -0.843783
H	 3.402099	 -1.249195	 0.893838
H	 4.811888	 0.882683	 -0.778795
H	 5.597831	 -0.425383	 0.080984
H	 4.781807	 0.842645	 0.972143

	symmetry c1
}
set optking {
	frozen_dihedral = ("
		13 9 8 10
	")
}

ee,wfn = optimize('scf', return_wfn=True)
oeprop( wfn, 'DIPOLE', 'QUADRUPOLE', 'MULLIKEN_CHARGES')
f=open( 'psi4out.xyz', 'w' )
f.write( "23  " )
f.write( str(ee) + "\n" )
f.write( MOL.save_string_xyz() )
f.close()
--------------------------------------------------------------------------

    Molecular point group: c1
  Charge       = 0
  Multiplicity = 1
  Basis Set: CC-PVTZ
  Basis Set:
  @DF-RHF Final Energy:  -423.13480330207898
    Total Energy =                       -423.1348033020788080
    Molecular point group: c1
  Basis Set: CC-PVTZ
  Basis Set:
  Basis Set: CC-PVTZ
  Basis Set:
  @DF-RHF Final Energy:  -423.13457173699578
    Total Energy =                       -423.1345717369960084
  Basis Set: CC-PVTZ
  Basis Set:
  Basis Set: CC-PVTZ
  Basis Set:
  @DF-RHF Final Energy:  -423.13480776098982
    Total Energy =                       -423.1348077609899292
  Basis Set: CC-PVTZ
  Basis Set:
  Basis Set: CC-PVTZ
  Basis Set:
  @DF-RHF Final Energy:  -423.13480915625388
    Total Energy =                       -423.1348091562537093
  Basis Set: CC-PVTZ
  Basis Set:
  Charge       = 0
  Multiplicity = 1
  Basis Set: CC-PVTZ
  Basis Set:

    Orbital Energies (a.u.)
    -----------------------

    Doubly Occupied:

       1A    -20.595874     2A    -20.529487     3A    -11.366355
       4A    -11.279477     5A    -11.230634     6A    -11.222331
       7A    -11.221343     8A    -11.219474     9A    -11.210902
      10A     -1.471123    11A     -1.363960    12A     -1.095336
      13A     -1.043275    14A     -1.004262    15A     -0.931702
      16A     -0.842338    17A     -0.803055    18A     -0.776004
      19A     -0.694952    20A     -0.688280    21A     -0.671143
      22A     -0.648217    23A     -0.607104    24A     -0.589171
      25A     -0.584074    26A     -0.567228    27A     -0.559669
      28A     -0.538521    29A     -0.524132    30A     -0.505577
      31A     -0.491851    32A     -0.478209    33A     -0.471401
      34A     -0.466871    35A     -0.455262    36A     -0.438878

  @DF-RHF Final Energy:  -423.13480927859928

   => Energetics <=

    Nuclear Repulsion Energy =            450.4647464761440006
    One-Electron Energy =               -1468.8241710447423429
    Two-Electron Energy =                 595.2246152899986100
    DFT Exchange-Correlation Energy =       0.0000000000000000
    Empirical Dispersion Energy =           0.0000000000000000
    PCM Polarization Energy =               0.0000000000000000
    EFP Energy =                            0.0000000000000000
    Total Energy =                       -423.1348092785997324
    Molecular point group: c1
  Basis Set: CC-PVTZ
  Basis Set:

  -Total Gradient:
     Atom            X                  Y                   Z
    ------   -----------------  -----------------  -----------------
       1        0.000009526346    -0.000058454722    -0.000005144502
       2       -0.000013394169     0.000010519016    -0.000002291371
       3       -0.000003588719     0.000027147349     0.000008914925
       4       -0.000066211867     0.000012555763    -0.000012439818
       5        0.000027841809     0.000000361670     0.000028463980
       6        0.000000683412     0.000000873903    -0.000000146266
       7        0.000021997145    -0.000000938525    -0.000029640002
       8        0.000269764205     0.000364619772     0.000227316656
       9       -0.000252000134    -0.000350563180     0.000132531099
      10       -0.000178239553    -0.000242354908    -0.000175982509
      11        0.000008492461    -0.000003121020    -0.000019333027
      12       -0.000001116597    -0.000001724252     0.000019535923
      13        0.000165732262     0.000231952215    -0.000169804354
      14        0.000001670150     0.000007664103    -0.000008482038
      15        0.000003429079     0.000001958263     0.000008353738
      16       -0.000001818608    -0.000005547974     0.000002988650
      17        0.000005658124     0.000004454204    -0.000000760605
      18        0.000002228958    -0.000000807338    -0.000003876011
      19       -0.000001425093     0.000001677398     0.000003381920
      20        0.000000996612     0.000001695839    -0.000000731473
      21        0.000000210293     0.000000218835     0.000001735125
      22        0.000000983649     0.000001574534    -0.000001913952
      23       -0.000001419769    -0.000003760944    -0.000002676088

  **** Optimization is complete! (in 5 steps) ****
    Final optimized geometry and variables:
    Molecular point group: c1

    Geometry (in Angstrom), charge = 0, multiplicity = 1:

    O           -2.816705857484     1.304829544705    -0.029758065892
    C           -2.664259290833     0.130427983868    -0.024304040942
    C           -3.798040553121    -0.859036693700    -0.026095603307
    O           -1.481111207637    -0.452389488809    -0.015820480392
    H           -4.406720308270    -0.682928013549    -0.902776738125
    H           -3.444145554064    -1.877587578883    -0.021386641201
    H           -4.414186351910    -0.677539649032     0.844266733584
    C           -0.331744759971     0.384088011676    -0.013043371091
    C            0.892076076026    -0.506687282883    -0.008993611956
    H           -0.357743211565     1.018662017333    -0.888229634388
    H           -0.362241606425     1.021920389680     0.859621649756
    C            2.187769976575     0.298702844205     0.028634043192
    H            0.873551898908    -1.134578439646    -0.893984678487
    H            0.842352235342    -1.169571999450     0.848697817368
    C            3.436767356462    -0.578175448934     0.025869244673
    H            2.221771868099     0.971087263307    -0.825142815639
    H            2.196588154860     0.930050396096     0.913713285934
    C            4.731597376340     0.226158721330     0.063910254902
    H            3.429710277385    -1.208613612375    -0.858828041422
    H            3.404356111022    -1.250108983865     0.878910834187
    H            4.809310764582     0.883932067276    -0.795307685379
    H            5.597758525987    -0.425256418741     0.060650149398
    H            4.784119216958     0.841677154797     0.955721113564

  Mulliken Charges: (a.u.)
   Center  Symbol    Alpha    Beta     Spin     Total
       1     O     4.20247  4.20247  0.00000 -0.40493
       2     C     2.81527  2.81527  0.00000  0.36945
       3     C     3.14005  3.14005  0.00000 -0.28011
       4     O     4.14461  4.14461  0.00000 -0.28921
       5     H     0.44211  0.44211  0.00000  0.11578
       6     H     0.44186  0.44186  0.00000  0.11628
       7     H     0.44213  0.44213  0.00000  0.11574
       8     C     2.97903  2.97903  0.00000  0.04194
       9     C     3.08094  3.08094  0.00000 -0.16189
      10     H     0.45380  0.45380  0.00000  0.09240
      11     H     0.45417  0.45417  0.00000  0.09166
      12     C     3.09771  3.09771  0.00000 -0.19543
      13     H     0.45092  0.45092  0.00000  0.09816
      14     H     0.45070  0.45070  0.00000  0.09859
      15     C     3.08502  3.08502  0.00000 -0.17005
      16     H     0.45297  0.45297  0.00000  0.09406
      17     H     0.45287  0.45287  0.00000  0.09426
      18     C     3.14956  3.14956  0.00000 -0.29911
      19     H     0.45350  0.45350  0.00000  0.09301
      20     H     0.45350  0.45350  0.00000  0.09300
      21     H     0.45455  0.45455  0.00000  0.09089
      22     H     0.44770  0.44770  0.00000  0.10461
      23     H     0.45455  0.45455  0.00000  0.09090

   Total alpha = 36.00000, Total beta = 36.00000, Total charge = -0.00000

*** Psi4 exiting successfully. Buy a developer a beer!
