                              Psi4 1.0.54 Driver

  ==> Input File <==

--------------------------------------------------------------------------
set {
	reference rhf
	basis cc-pvtz
}

set_num_threads( 4 )
memory 2 gb

molecule MOL {
0 1

O	 3.219313	 0.959291	 -0.614106
C	 2.698710	 0.058177	 -0.050237
C	 1.246364	 -0.005813	 0.348416
O	 3.344101	 -1.038700	 0.312317
C	 0.453207	 1.232821	 -0.049003
H	 0.839270	 -0.907818	 -0.092281
H	 1.216683	 -0.160521	 1.422434
C	 -0.998367	 1.217982	 0.432195
H	 0.481498	 1.345443	 -1.127236
H	 0.951413	 2.105557	 0.354893
C	 -1.882951	 0.151251	 -0.211235
H	 -1.429490	 2.193659	 0.228843
H	 -1.019755	 1.099323	 1.513279
C	 -3.342450	 0.243269	 0.226009
H	 -1.826223	 0.246578	 -1.293162
H	 -1.508033	 -0.839650	 0.027695
C	 -3.671715	 1.529790	 0.977820
H	 -3.583019	 -0.610210	 0.855326
H	 -3.984818	 0.165824	 -0.648194
C	 -5.131002	 1.613511	 1.412847
H	 -3.030774	 1.608474	 1.851733
H	 -3.434451	 2.383780	 0.349119
H	 -5.330843	 2.537728	 1.942820
H	 -5.390550	 0.791778	 2.072013
H	 -5.797365	 1.572187	 0.557592
C	 4.720529	 -1.114346	 0.001449
H	 4.874321	 -1.055557	 -1.065852
H	 5.057824	 -2.067950	 0.373977
H	 5.264321	 -0.313596	 0.480350

	symmetry c1
}
set optking {
	frozen_dihedral = ("
		17 14 11 15
	")
}

ee,wfn = optimize('scf', return_wfn=True)
oeprop( wfn, 'DIPOLE', 'QUADRUPOLE', 'MULLIKEN_CHARGES')
f=open( 'psi4out.xyz', 'w' )
f.write( "29  " )
f.write( str(ee) + "\n" )
f.write( MOL.save_string_xyz() )
f.close()
--------------------------------------------------------------------------

    Molecular point group: c1
  Charge       = 0
  Multiplicity = 1
  Basis Set: CC-PVTZ
  Basis Set:
  @DF-RHF Final Energy:  -501.21067864622444
    Total Energy =                       -501.2106786462247783
    Molecular point group: c1
  Basis Set: CC-PVTZ
  Basis Set:
  Basis Set: CC-PVTZ
  Basis Set:
  @DF-RHF Final Energy:  -501.17835635378083
    Total Energy =                       -501.1783563537809414
  Basis Set: CC-PVTZ
  Basis Set:
  Basis Set: CC-PVTZ
  Basis Set:
  @DF-RHF Final Energy:  -501.21286295072957
    Total Energy =                       -501.2128629507298001
  Basis Set: CC-PVTZ
  Basis Set:
  Basis Set: CC-PVTZ
  Basis Set:
  @DF-RHF Final Energy:  -501.21512806125213
    Total Energy =                       -501.2151280612522442
  Basis Set: CC-PVTZ
  Basis Set:
  @DF-RHF Final Energy:  -501.21539578842612
    Total Energy =                       -501.2153957884253259
  @DF-RHF Final Energy:  -501.21523998400448
    Total Energy =                       -501.2152399840042563
  Basis Set: CC-PVTZ
  Basis Set:
  @DF-RHF Final Energy:  -501.21543949734587
    Total Energy =                       -501.2154394973447324
  Basis Set: CC-PVTZ
  Basis Set:
  Basis Set: CC-PVTZ
  Basis Set:
  @DF-RHF Final Energy:  -501.21542440754877
    Total Energy =                       -501.2154244075477436
  Basis Set: CC-PVTZ
  Basis Set:
  Basis Set: CC-PVTZ
  Basis Set:
  @DF-RHF Final Energy:  -501.21544274235657
    Total Energy =                       -501.2154427423571406
  Basis Set: CC-PVTZ
  Basis Set:
  Charge       = 0
  Multiplicity = 1
  Basis Set: CC-PVTZ
  Basis Set:

    Orbital Energies (a.u.)
    -----------------------

    Doubly Occupied:

       1A    -20.595924     2A    -20.533769     3A    -11.364193
       4A    -11.278198     5A    -11.232809     6A    -11.216925
       7A    -11.215333     8A    -11.214156     9A    -11.213458
      10A    -11.212856    11A    -11.206700    12A     -1.471824
      13A     -1.365397    14A     -1.097568    15A     -1.065621
      16A     -1.018391    17A     -0.976722    18A     -0.929719
      19A     -0.863655    20A     -0.820779    21A     -0.774371
      22A     -0.758511    23A     -0.703075    24A     -0.685196
      25A     -0.675968    26A     -0.646941    27A     -0.628817
      28A     -0.608150    29A     -0.593513    30A     -0.582672
      31A     -0.565930    32A     -0.553096    33A     -0.548338
      34A     -0.525494    35A     -0.521632    36A     -0.498463
      37A     -0.492663    38A     -0.485918    39A     -0.482725
      40A     -0.460637    41A     -0.451061    42A     -0.447154
      43A     -0.441321    44A     -0.439909

  @DF-RHF Final Energy:  -501.21544296518971

   => Energetics <=

    Nuclear Repulsion Energy =            615.2646117830619232
    One-Electron Energy =               -1902.0290253113250856
    Two-Electron Energy =                 785.5489705630732260
    DFT Exchange-Correlation Energy =       0.0000000000000000
    Empirical Dispersion Energy =           0.0000000000000000
    PCM Polarization Energy =               0.0000000000000000
    EFP Energy =                            0.0000000000000000
    Total Energy =                       -501.2154429651898226
    Molecular point group: c1
  Basis Set: CC-PVTZ
  Basis Set:

  -Total Gradient:
     Atom            X                  Y                   Z
    ------   -----------------  -----------------  -----------------
       1        0.000013718886     0.000012113314    -0.000000053244
       2       -0.000000962869    -0.000024435446    -0.000016382693
       3       -0.000009177658     0.000003124677    -0.000003649879
       4        0.000010838557     0.000001452482     0.000004983596
       5        0.000002745190    -0.000002090674     0.000015293135
       6       -0.000004909167    -0.000008859981     0.000001395717
       7       -0.000005435279     0.000003447771     0.000002645613
       8        0.000002393836     0.000009128379    -0.000004011368
       9        0.000001023329    -0.000002919176    -0.000001289446
      10       -0.000002167024    -0.000000841305     0.000002961863
      11        0.000176697565     0.004731823289     0.002032168892
      12       -0.000008294215     0.000003337651    -0.000000310752
      13        0.000005395971    -0.000001755297    -0.000008315334
      14       -0.001939109950     0.001112421114    -0.004091080861
      15        0.000378432270    -0.004382782966    -0.000651334225
      16        0.000008746939    -0.000005752050    -0.000002549052
      17        0.001399043629    -0.001455887150     0.002729685368
      18       -0.000001386761     0.000002893768     0.000004699834
      19        0.000002163812    -0.000005533172    -0.000004511334
      20       -0.000006460948    -0.000000967376    -0.000004683906
      21       -0.000002913390     0.000003330767     0.000002949845
      22        0.000004666184    -0.000000793637    -0.000008511802
      23       -0.000001436244     0.000000892344     0.000000810489
      24       -0.000001506586     0.000001249757     0.000001677965
      25       -0.000006568716    -0.000002449875    -0.000001565396
      26       -0.000014563540     0.000006936495    -0.000001786545
      27        0.000002373089     0.000000524602    -0.000005339219
      28       -0.000006086132    -0.000000860205     0.000003745260
      29        0.000002739217     0.000003251903     0.000002357480

  **** Optimization is complete! (in 10 steps) ****
    Final optimized geometry and variables:
    Molecular point group: c1

    Geometry (in Angstrom), charge = 0, multiplicity = 1:

    O            2.927803594997     0.964655610752    -1.263643542158
    C            2.590385989278    -0.012393671192    -0.686979441169
    C            1.229438029425    -0.249813735371    -0.083571534573
    O            3.388119878577    -1.050385119928    -0.493610104098
    C            0.269162567157     0.917316875796    -0.277203631032
    H            0.850292938712    -1.166762580679    -0.517926386418
    H            1.380125457644    -0.460585301703     0.970574099166
    C           -1.081169598963     0.737604450539     0.420205559041
    H            0.115541964110     1.082742682327    -1.337929939066
    H            0.741859693093     1.816232567039     0.098994724670
    C           -1.944340840418    -0.377721459812    -0.169908690838
    H           -1.611865017225     1.680072283337     0.356849940090
    H           -0.913491310167     0.554573121003     1.478456348901
    C           -3.352027486774    -0.588314796911     0.444394687008
    H           -2.041172031508    -0.226653056126    -1.241187330041
    H           -1.408694170432    -1.316428615270    -0.077934936880
    C           -3.909780335938     0.525322253259     1.331543775964
    H           -3.336190803938    -1.495804784280     1.041153967594
    H           -4.057454995902    -0.779538250181    -0.357502666712
    C           -5.296472976827     0.186905026240     1.870243023273
    H           -3.240543498174     0.706456533434     2.165039439998
    H           -3.965343596734     1.456068763863     0.774801565144
    H           -5.677102450611     0.982723972115     2.500200726058
    H           -5.275599845436    -0.722154237757     2.462329791019
    H           -6.005238634204     0.036808384801     1.062633622495
    C            4.701169648959    -0.964313385941    -1.008723907111
    H            4.682758702489    -0.838846619177    -2.081190353873
    H            5.183496512763    -1.893233668730    -0.751053258515
    H            5.230980340559    -0.133913425179    -0.565981659595

  Mulliken Charges: (a.u.)
   Center  Symbol    Alpha    Beta     Spin     Total
       1     O     4.19715  4.19715  0.00000 -0.39430
       2     C     2.80538  2.80538  0.00000  0.38925
       3     C     3.10106  3.10106  0.00000 -0.20212
       4     O     4.14720  4.14720  0.00000 -0.29440
       5     C     3.09283  3.09283  0.00000 -0.18566
       6     H     0.43895  0.43895  0.00000  0.12209
       7     H     0.44012  0.44012  0.00000  0.11975
       8     C     3.10886  3.10886  0.00000 -0.21771
       9     H     0.44618  0.44618  0.00000  0.10765
      10     H     0.43929  0.43929  0.00000  0.12142
      11     C     3.10119  3.10119  0.00000 -0.20238
      12     H     0.44025  0.44025  0.00000  0.11949
      13     H     0.45182  0.45182  0.00000  0.09635
      14     C     3.08968  3.08968  0.00000 -0.17936
      15     H     0.45016  0.45016  0.00000  0.09967
      16     H     0.45110  0.45110  0.00000  0.09780
      17     C     3.08972  3.08972  0.00000 -0.17945
      18     H     0.45396  0.45396  0.00000  0.09209
      19     H     0.44999  0.44999  0.00000  0.10001
      20     C     3.15147  3.15147  0.00000 -0.30294
      21     H     0.45096  0.45096  0.00000  0.09809
      22     H     0.45264  0.45264  0.00000  0.09472
      23     H     0.44796  0.44796  0.00000  0.10407
      24     H     0.45544  0.45544  0.00000  0.08912
      25     H     0.45462  0.45462  0.00000  0.09075
      26     C     3.03814  3.03814  0.00000 -0.07628
      27     H     0.45434  0.45434  0.00000  0.09133
      28     H     0.44529  0.44529  0.00000  0.10943
      29     H     0.45425  0.45425  0.00000  0.09151

   Total alpha = 44.00000, Total beta = 44.00000, Total charge =  0.00000

*** Psi4 exiting successfully. Buy a developer a beer!
