                              Psi4 1.0.54 Driver

  ==> Input File <==

--------------------------------------------------------------------------
set {
	reference rhf
	basis cc-pvtz
}

set_num_threads( 4 )
memory 2 gb

molecule MOL {
0 1

O	 2.469510	 1.969942	 0.394574
C	 1.610951	 2.067711	 1.209084
C	 0.354328	 1.222131	 1.167549
C	 1.717356	 3.052117	 2.351821
C	 0.288398	 0.247429	 0.000314
H	 0.283990	 0.693546	 2.115557
H	 -0.496082	 1.900047	 1.152107
C	 -0.993089	 -0.581367	 -0.000217
H	 1.151104	 -0.408028	 0.035370
H	 0.370481	 0.799584	 -0.928944
C	 -2.258482	 0.271340	 0.000669
H	 -1.002280	 -1.233920	 -0.870484
H	 -1.002061	 -1.235367	 0.868958
C	 -3.544441	 -0.550271	 -0.000253
H	 -2.250545	 0.925250	 -0.867923
H	 -2.250598	 0.923423	 0.870642
C	 -4.804551	 0.308747	 0.000556
H	 -3.553737	 -1.201524	 -0.870151
H	 -3.553831	 -1.203282	 0.868313
H	 -4.842050	 0.949078	 -0.874436
H	 -5.698404	 -0.304480	 -0.000254
H	 -4.842277	 0.947103	 0.876982
H	 1.670126	 2.529880	 3.301077
H	 2.647092	 3.595326	 2.281776
H	 0.885479	 3.747317	 2.325009

	symmetry c1
}
set optking {
	frozen_dihedral = ("
		9 5 8 12
	")
}

ee,wfn = optimize('scf', return_wfn=True)
oeprop( wfn, 'DIPOLE', 'QUADRUPOLE', 'MULLIKEN_CHARGES')
f=open( 'psi4out.xyz', 'w' )
f.write( "25  " )
f.write( str(ee) + "\n" )
f.write( MOL.save_string_xyz() )
f.close()
--------------------------------------------------------------------------

    Molecular point group: c1
  Charge       = 0
  Multiplicity = 1
  Basis Set: CC-PVTZ
  Basis Set:
  @DF-RHF Final Energy:  -387.27116077146525
    Total Energy =                       -387.2711607714653610
    Molecular point group: c1
  Basis Set: CC-PVTZ
  Basis Set:
  Basis Set: CC-PVTZ
  Basis Set:
  @DF-RHF Final Energy:  -387.27125561162086
    Total Energy =                       -387.2712556116208589
  Basis Set: CC-PVTZ
  Basis Set:
  Basis Set: CC-PVTZ
  Basis Set:
  @DF-RHF Final Energy:  -387.27252302806443
    Total Energy =                       -387.2725230280643700
  Basis Set: CC-PVTZ
  Basis Set:
  Basis Set: CC-PVTZ
  Basis Set:
  @DF-RHF Final Energy:  -387.27244948557495
    Total Energy =                       -387.2724494855750663
  Basis Set: CC-PVTZ
  Basis Set:
  Basis Set: CC-PVTZ
  Basis Set:
  @DF-RHF Final Energy:  -387.27250723867559
    Total Energy =                       -387.2725072386756437
  Basis Set: CC-PVTZ
  Basis Set:
  Basis Set: CC-PVTZ
  Basis Set:
  @DF-RHF Final Energy:  -387.27260077144740
    Total Energy =                       -387.2726007714474008
  Basis Set: CC-PVTZ
  Basis Set:
  Charge       = 0
  Multiplicity = 1
  Basis Set: CC-PVTZ
  Basis Set:

    Orbital Energies (a.u.)
    -----------------------

    Doubly Occupied:

       1A    -20.538727     2A    -11.320364     3A    -11.229497
       4A    -11.226456     5A    -11.215631     6A    -11.215516
       7A    -11.215002     8A    -11.214248     9A    -11.208812
      10A     -1.398801    11A     -1.096203    12A     -1.057010
      13A     -1.015558    14A     -0.968854    15A     -0.899150
      16A     -0.816828    17A     -0.787778    18A     -0.731372
      19A     -0.660511    20A     -0.653572    21A     -0.637964
      22A     -0.623501    23A     -0.598370    24A     -0.581872
      25A     -0.568464    26A     -0.566327    27A     -0.544010
      28A     -0.529321    29A     -0.517585    30A     -0.495549
      31A     -0.490474    32A     -0.477663    33A     -0.463300
      34A     -0.459603    35A     -0.448036    36A     -0.402735

  @DF-RHF Final Energy:  -387.27260087469290

   => Energetics <=

    Nuclear Repulsion Energy =            445.7025281023102252
    One-Electron Energy =               -1408.2009158924524854
    Two-Electron Energy =                 575.2257869154495893
    DFT Exchange-Correlation Energy =       0.0000000000000000
    Empirical Dispersion Energy =           0.0000000000000000
    PCM Polarization Energy =               0.0000000000000000
    EFP Energy =                            0.0000000000000000
    Total Energy =                       -387.2726008746926709
    Molecular point group: c1
  Basis Set: CC-PVTZ
  Basis Set:

  -Total Gradient:
     Atom            X                  Y                   Z
    ------   -----------------  -----------------  -----------------
       1        0.000051756230    -0.000003322299    -0.000012426752
       2       -0.000031410032     0.000029135194    -0.000005992790
       3       -0.000001658494    -0.000041534772    -0.000005074677
       4       -0.000000033160    -0.000011299933    -0.000012902365
       5       -0.000164993482     0.000252311461    -0.002624375116
       6       -0.000008734096    -0.000009168968     0.000023843725
       7       -0.000025409136     0.000014213266    -0.000002033084
       8        0.001043890314    -0.001634346616     0.001657297641
       9       -0.000045164179     0.000047488744     0.001934079621
      10        0.000020180644     0.000016598910    -0.000018023481
      11        0.000037755850    -0.000016508923     0.000069410654
      12       -0.000878687963     0.001349962280    -0.001034367846
      13       -0.000023712846     0.000011240141     0.000015782503
      14        0.000020041924    -0.000014480115     0.000011338572
      15        0.000007307859     0.000014146760     0.000008230900
      16        0.000021386796     0.000011450670     0.000039197945
      17       -0.000003711351    -0.000006022281    -0.000046697274
      18       -0.000000991341    -0.000034695818    -0.000017664470
      19       -0.000006183050     0.000006529554     0.000022188199
      20       -0.000008149449     0.000022940763    -0.000018526918
      21       -0.000018950196    -0.000005158932    -0.000014042293
      22        0.000008485368    -0.000002798164     0.000018053526
      23       -0.000000955513    -0.000011239890     0.000018231539
      24        0.000020597188     0.000007957964    -0.000001317540
      25       -0.000012657891     0.000006601002    -0.000004210218

  **** Optimization is complete! (in 7 steps) ****
    Final optimized geometry and variables:
    Molecular point group: c1

    Geometry (in Angstrom), charge = 0, multiplicity = 1:

    O            3.143479970792     0.924976736660    -0.082786357444
    C            2.280097993899     1.105514176370     0.712144663877
    C            0.942594573624     0.396186602310     0.635679225305
    C            2.459896790386     2.067895355137     1.864718503245
    C            0.816707702416    -0.568946011332    -0.537517517006
    H            0.794560755699    -0.124599026319     1.579649016878
    H            0.175626277204     1.164113019906     0.605354106985
    C           -0.475608075352    -1.387783106554    -0.540785725289
    H            1.660629893527    -1.246766543227    -0.502519564497
    H            0.906841828617    -0.015765134859    -1.465476177848
    C           -1.766236334891    -0.569757374134    -0.573166443319
    H           -0.461765098023    -2.026246433687    -1.419323821550
    H           -0.490831590728    -2.048812994604     0.322482470503
    C           -3.014643137475    -1.432846521274    -0.737509670549
    H           -1.716956043194     0.145913374854    -1.391300628569
    H           -1.863935561289     0.014019207963     0.337568690226
    C           -4.305904463638    -0.621916523061    -0.765397986539
    H           -2.932777301418    -2.010534015501    -1.653931638961
    H           -3.060415228324    -2.154786058593     0.073508332858
    H           -4.304264116006     0.088426448098    -1.585566306261
    H           -5.170698770868    -1.264072197670    -0.886736358491
    H           -4.437019435229    -0.061931064865     0.154742473086
    H            2.334643628082     1.548715483305     2.808565035930
    H            3.442718928225     2.511463129293     1.821659551207
    H            1.706080353873     2.846394507326     1.822643105254

  Mulliken Charges: (a.u.)
   Center  Symbol    Alpha    Beta     Spin     Total
       1     O     4.17037  4.17037  0.00000 -0.34074
       2     C     2.86136  2.86136  0.00000  0.27727
       3     C     3.11553  3.11553  0.00000 -0.23106
       4     C     3.15085  3.15085  0.00000 -0.30170
       5     C     3.09258  3.09258  0.00000 -0.18516
       6     H     0.44511  0.44511  0.00000  0.10979
       7     H     0.44323  0.44323  0.00000  0.11354
       8     C     3.10053  3.10053  0.00000 -0.20107
       9     H     0.43993  0.43993  0.00000  0.12014
      10     H     0.44530  0.44530  0.00000  0.10940
      11     C     3.09103  3.09103  0.00000 -0.18206
      12     H     0.44661  0.44661  0.00000  0.10679
      13     H     0.45280  0.45280  0.00000  0.09440
      14     C     3.08426  3.08426  0.00000 -0.16851
      15     H     0.45339  0.45339  0.00000  0.09323
      16     H     0.45493  0.45493  0.00000  0.09015
      17     C     3.14974  3.14974  0.00000 -0.29948
      18     H     0.45281  0.45281  0.00000  0.09437
      19     H     0.45458  0.45458  0.00000  0.09084
      20     H     0.45479  0.45479  0.00000  0.09042
      21     H     0.44787  0.44787  0.00000  0.10426
      22     H     0.45605  0.45605  0.00000  0.08790
      23     H     0.45057  0.45057  0.00000  0.09885
      24     H     0.43521  0.43521  0.00000  0.12959
      25     H     0.45058  0.45058  0.00000  0.09884

   Total alpha = 36.00000, Total beta = 36.00000, Total charge = -0.00000

*** Psi4 exiting successfully. Buy a developer a beer!
