  ==> Input File <==

--------------------------------------------------------------------------
set {
	reference rhf
	basis 6-31G*
}

set_num_threads( 1 )
memory 2 gb

molecule MOL {
0 1

O	 -2.821601	 1.309235	 -0.001213
C	 -2.668563	 0.129746	 -0.000350
C	 -3.801572	 -0.864014	 -0.000442
O	 -1.481751	 -0.454642	 0.000584
H	 -4.417280	 -0.689587	 -0.874708
H	 -3.443784	 -1.883046	 -0.000565
H	 -4.417179	 -0.689832	 0.873954
C	 -0.334255	 0.388708	 0.000906
C	 0.891947	 -0.504646	 0.000751
H	 -0.365390	 1.025305	 -0.873475
H	 -0.365484	 1.024911	 0.875569
C	 2.191998	 0.301789	 0.000897
H	 0.855148	 -1.151283	 -0.871571
H	 0.855132	 -1.151660	 0.872805
C	 3.441114	 -0.581407	 0.000108
H	 2.215074	 0.954890	 -0.869742
H	 2.215465	 0.953923	 0.872248
C	 4.382542	 -0.279807	 -1.165060
H	 3.142101	 -1.626499	 -0.037971
H	 3.974398	 -0.450245	 0.938977
H	 3.887558	 -0.434774	 -2.119519
H	 5.257730	 -0.921352	 -1.138564
H	 4.726372	 0.750188	 -1.135045

	symmetry c1
}
set optking {
	frozen_dihedral = ("
		13 9 8 10,
		2 4 8 10,
		16 12 9 13,
		1 2 4 8
	")
}

ee = energy('scf')
oeprop('DIPOLE', 'QUADRUPOLE', 'MULLIKEN_CHARGES')
f=open( 'psi4out.xyz', 'w' )
f.write( "23  " )
f.write( str(ee) + "\n" )
f.write( MOL.save_string_xyz() )
f.close()
--------------------------------------------------------------------------

    Molecular point group: c1

    Geometry (in Angstrom), charge = 0, multiplicity = 1:

       Center              X                  Y                   Z               Mass
    ------------   -----------------  -----------------  -----------------  -----------------
           O         -2.780379693137     1.367414008913     0.133170718661    15.994914619560
           C         -2.627341693137     0.187925008913     0.134033718661    12.000000000000
           C         -3.760350693137    -0.805834991087     0.133941718661    12.000000000000
           O         -1.440529693137    -0.396462991087     0.134967718661    15.994914619560
           H         -4.376058693137    -0.631407991087    -0.740324281339     1.007825032070
           H         -3.402562693137    -1.824866991087     0.133818718661     1.007825032070
           H         -4.375957693137    -0.631652991087     1.008337718661     1.007825032070
           C         -0.293033693137     0.446887008913     0.135289718661    12.000000000000
           C          0.933168306863    -0.446466991087     0.135134718661    12.000000000000
           H         -0.324168693137     1.083484008913    -0.739091281339     1.007825032070
           H         -0.324262693137     1.083090008913     1.009952718661     1.007825032070
           C          2.233219306863     0.359968008913     0.135280718661    12.000000000000
           H          0.896369306863    -1.093103991087    -0.737187281339     1.007825032070
           H          0.896353306863    -1.093480991087     1.007188718661     1.007825032070
           C          3.482335306863    -0.523227991087     0.134491718661    12.000000000000
           H          2.256295306863     1.013069008913    -0.735358281339     1.007825032070
           H          2.256686306863     1.012102008913     1.006631718661     1.007825032070
           C          4.423763306863    -0.221627991087    -1.030676281339    12.000000000000
           H          3.183322306863    -1.568319991087     0.096412718661     1.007825032070
           H          4.015619306863    -0.392065991087     1.073360718661     1.007825032070
           H          3.928779306863    -0.376594991087    -1.985135281339     1.007825032070
           H          5.298951306863    -0.863172991087    -1.004180281339     1.007825032070
           H          4.767593306863     0.808367008913    -1.000661281339     1.007825032070

  Charge       = 0
  Multiplicity = 1
  Basis Set: 6-31G*
  Basis Set:

    Orbital Energies (a.u.)
    -----------------------

    Doubly Occupied:

       1A    -20.602881     2A    -20.540448     3A    -11.374006
       4A    -11.281008     5A    -11.232364     6A    -11.224655
       7A    -11.222328     8A    -11.220017     9A    -11.213235
      10A     -1.467864    11A     -1.360645    12A     -1.094412
      13A     -1.041938    14A     -1.002961    15A     -0.930613
      16A     -0.844263    17A     -0.801377    18A     -0.773911
      19A     -0.691376    20A     -0.685264    21A     -0.668859
      22A     -0.638892    23A     -0.611229    24A     -0.593789
      25A     -0.581283    26A     -0.570928    27A     -0.550954
      28A     -0.533829    29A     -0.527156    30A     -0.503928
      31A     -0.499105    32A     -0.475768    33A     -0.464240
      34A     -0.463438    35A     -0.451257    36A     -0.435120

  @DF-RHF Final Energy:  -422.97366780582166

   => Energetics <=

    Nuclear Repulsion Energy =            451.0550040005470578
    One-Electron Energy =               -1469.7066734967154389
    Two-Electron Energy =                 595.6780016903489923
    DFT Exchange-Correlation Energy =       0.0000000000000000
    Empirical Dispersion Energy =           0.0000000000000000
    PCM Polarization Energy =               0.0000000000000000
    EFP Energy =                            0.0000000000000000
    Total Energy =                       -422.9736678058193320

  Mulliken Charges: (a.u.)
   Center  Symbol    Alpha    Beta     Spin     Total
       1     O     4.28392  4.28392  0.00000 -0.56783
       2     C     2.61534  2.61534  0.00000  0.76933
       3     C     3.28774  3.28774  0.00000 -0.57548
       4     O     4.31267  4.31267  0.00000 -0.62534
       5     H     0.39751  0.39751  0.00000  0.20498
       6     H     0.39990  0.39990  0.00000  0.20020
       7     H     0.39751  0.39751  0.00000  0.20498
       8     C     2.99626  2.99626  0.00000  0.00749
       9     C     3.16748  3.16748  0.00000 -0.33495
      10     H     0.41062  0.41062  0.00000  0.17876
      11     H     0.41069  0.41069  0.00000  0.17862
      12     C     3.16341  3.16341  0.00000 -0.32681
      13     H     0.41407  0.41407  0.00000  0.17187
      14     H     0.41361  0.41361  0.00000  0.17277
      15     C     3.15418  3.15418  0.00000 -0.30836
      16     H     0.41788  0.41788  0.00000  0.16424
      17     H     0.41815  0.41815  0.00000  0.16369
      18     C     3.24112  3.24112  0.00000 -0.48225
      19     H     0.41854  0.41854  0.00000  0.16293
      20     H     0.41864  0.41864  0.00000  0.16272
      21     H     0.42127  0.42127  0.00000  0.15746
      22     H     0.41920  0.41920  0.00000  0.16160
      23     H     0.42031  0.42031  0.00000  0.15939

   Total alpha = 36.00000, Total beta = 36.00000, Total charge =  0.00000
