  ==> Input File <==

--------------------------------------------------------------------------
set {
	reference rhf
	basis cc-pvtz
}

set_num_threads( 4 )
memory 2 gb

molecule MOL {
0 1

H	 -1.753821	 -0.908456	 0.388009
O	 -2.041679	 -0.058866	 0.103463
C	 -0.959304	 0.780994	 -0.094939
C	 0.354905	 0.037902	 -0.006215
H	 -0.985899	 1.279578	 -1.057596
H	 -0.969809	 1.529522	 0.682889
F	 0.412060	 -0.931028	 -0.902708
F	 1.359641	 0.856111	 -0.239961
F	 0.545380	 -0.506387	 1.171682

	symmetry c1
}
set optking {
	frozen_dihedral = ("
		1 2 3 5
	")
}

ee = optimize('scf')
oeprop('DIPOLE', 'QUADRUPOLE', 'MULLIKEN_CHARGES')
f=open( 'psi4out.xyz', 'w' )
f.write( "9  " )
f.write( str(ee) + "\n" )
f.write( MOL.save_string_xyz() )
f.close()
--------------------------------------------------------------------------

    Molecular point group: c1
  Charge       = 0
  Multiplicity = 1
  Basis Set: CC-PVTZ
  Basis Set:
  @DF-RHF Final Energy:  -450.84249948841159
    Total Energy =                       -450.8424994884117041
    Molecular point group: c1
  Basis Set: CC-PVTZ
  Basis Set:
  Basis Set: CC-PVTZ
  Basis Set:
  @DF-RHF Final Energy:  -450.84341349781101
    Total Energy =                       -450.8434134978108432
  Basis Set: CC-PVTZ
  Basis Set:
  Basis Set: CC-PVTZ
  Basis Set:
  @DF-RHF Final Energy:  -450.84361258349259
    Total Energy =                       -450.8436125834927566
  Basis Set: CC-PVTZ
  Basis Set:
  Basis Set: CC-PVTZ
  Basis Set:
  @DF-RHF Final Energy:  -450.84362518303465
    Total Energy =                       -450.8436251830346464
  Basis Set: CC-PVTZ
  Basis Set:
  Charge       = 0
  Multiplicity = 1
  Basis Set: CC-PVTZ
  Basis Set:

    Orbital Energies (a.u.)
    -----------------------

    Doubly Occupied:

       1A    -26.346176     2A    -26.345727     3A    -26.343601
       4A    -20.580661     5A    -11.501772     6A    -11.310115
       7A     -1.755034     8A     -1.652428     9A     -1.649231
      10A     -1.403522    11A     -1.054179    12A     -0.935068
      13A     -0.844218    14A     -0.843652    15A     -0.821624
      16A     -0.727357    17A     -0.726193    18A     -0.686115
      19A     -0.678944    20A     -0.677303    21A     -0.656361
      22A     -0.647452    23A     -0.625529    24A     -0.527937
      25A     -0.481955

  @DF-RHF Final Energy:  -450.84362755336525

   => Energetics <=

    Nuclear Repulsion Energy =            277.9929849128347428
    One-Electron Energy =               -1178.0289174160350285
    Two-Electron Energy =                 449.1923049498351475
    DFT Exchange-Correlation Energy =       0.0000000000000000
    Empirical Dispersion Energy =           0.0000000000000000
    PCM Polarization Energy =               0.0000000000000000
    EFP Energy =                            0.0000000000000000
    Total Energy =                       -450.8436275533650814
    Molecular point group: c1
  Basis Set: CC-PVTZ
  Basis Set:

  -Total Gradient:
     Atom            X                  Y                   Z
    ------   -----------------  -----------------  -----------------
       1        0.000124036330    -0.000581350512    -0.001641957742
       2        0.000019521757     0.000396880551     0.001934635658
       3       -0.000953438759     0.001360965721     0.000296134514
       4       -0.000066218260    -0.000036829028     0.000216138126
       5        0.000813996141    -0.001179828370    -0.000536040328
       6        0.000003392723     0.000015360623     0.000009309937
       7        0.000061028677    -0.000090374242    -0.000115370476
       8        0.000029558556     0.000008528355    -0.000009536725
       9       -0.000031877165     0.000106646903    -0.000153312962

  **** Optimization is complete! (in 5 steps) ****
    Final optimized geometry and variables:
    Molecular point group: c1

    Geometry (in Angstrom), charge = 0, multiplicity = 1:

    H           -1.804172216690    -0.904678422583     0.423689931187
    O           -2.058161096166    -0.056042681131     0.108323198888
    C           -0.964431636439     0.774489175003    -0.099394809185
    C            0.354435557191     0.042429924624    -0.028663849675
    H           -1.025728007168     1.212875587620    -1.086278297909
    H           -0.933641595698     1.565567602919     0.639445789514
    F            0.451703797543    -0.888319382702    -0.955140789384
    F            1.353627646833     0.878649762080    -0.189772811253
    F            0.512392581864    -0.558539097019     1.135829008603

  Mulliken Charges: (a.u.)
   Center  Symbol    Alpha    Beta     Spin     Total
       1     H     0.38650  0.38650  0.00000  0.22699
       2     O     4.19574  4.19574  0.00000 -0.39147
       3     C     2.96882  2.96882  0.00000  0.06236
       4     C     2.68993  2.68993  0.00000  0.62013
       5     H     0.46020  0.46020  0.00000  0.07959
       6     H     0.46400  0.46400  0.00000  0.07201
       7     F     4.61189  4.61189  0.00000 -0.22378
       8     F     4.60755  4.60755  0.00000 -0.21510
       9     F     4.61537  4.61537  0.00000 -0.23074

   Total alpha = 25.00000, Total beta = 25.00000, Total charge = -0.00000
