                              Psi4 1.0.54 Driver

  ==> Input File <==

--------------------------------------------------------------------------
set {
	reference rhf
	basis cc-pvtz
}

set_num_threads( 4 )
memory 2 gb

molecule MOL {
0 1

H	 2.646708	 0.758099	 0.000000
O	 2.258158	 -0.097743	 0.000000
C	 0.911162	 -0.015915	 0.000000
C	 0.309113	 0.635917	 -1.063698
C	 0.136781	 -0.553535	 1.010801
H	 0.925545	 1.046772	 -1.838753
C	 -1.064064	 0.743887	 -1.106145
H	 0.603869	 -1.059427	 1.836363
C	 -1.240865	 -0.437595	 0.955045
H	 -1.525152	 1.250110	 -1.932908
C	 -1.850703	 0.209283	 -0.099269
H	 -1.834804	 -0.857995	 1.744239
H	 -2.918672	 0.297270	 -0.139223

	symmetry c1
}
set optking {
	frozen_dihedral = ("
		4 3 2 1
	")
}

ee,wfn = optimize('scf', return_wfn=True)
oeprop( wfn, 'DIPOLE', 'QUADRUPOLE', 'MULLIKEN_CHARGES')
f=open( 'psi4out.xyz', 'w' )
f.write( "13  " )
f.write( str(ee) + "\n" )
f.write( MOL.save_string_xyz() )
f.close()
--------------------------------------------------------------------------

    Molecular point group: c1
  Charge       = 0
  Multiplicity = 1
  Basis Set: CC-PVTZ
  Basis Set:
  @DF-RHF Final Energy:  -305.66591466759314
    Total Energy =                       -305.6659146675933698
    Molecular point group: c1
  Basis Set: CC-PVTZ
  Basis Set:
  Basis Set: CC-PVTZ
  Basis Set:
  @DF-RHF Final Energy:  -305.66722629195510
    Total Energy =                       -305.6672262919549325
  Basis Set: CC-PVTZ
  Basis Set:
  Basis Set: CC-PVTZ
  Basis Set:
  @DF-RHF Final Energy:  -305.66731026959889
    Total Energy =                       -305.6673102695986586
  Basis Set: CC-PVTZ
  Basis Set:
  Basis Set: CC-PVTZ
  Basis Set:
  @DF-RHF Final Energy:  -305.66731932671678
    Total Energy =                       -305.6673193267168358
  Basis Set: CC-PVTZ
  Basis Set:
  Charge       = 0
  Multiplicity = 1
  Basis Set: CC-PVTZ
  Basis Set:

    Orbital Energies (a.u.)
    -----------------------

    Doubly Occupied:

       1A    -20.574609     2A    -11.291010     3A    -11.234060
       4A    -11.233061     5A    -11.226247     6A    -11.224088
       7A    -11.223373     8A     -1.402343     9A     -1.153127
      10A     -1.022384    11A     -1.008379    12A     -0.842784
      13A     -0.827859    14A     -0.739084    15A     -0.685368
      16A     -0.652170    17A     -0.628571    18A     -0.597924
      19A     -0.591885    20A     -0.534259    21A     -0.517341
      22A     -0.497441    23A     -0.475753    24A     -0.342115
      25A     -0.325208

  @DF-RHF Final Energy:  -305.66732158783554

   => Energetics <=

    Nuclear Repulsion Energy =            273.4434245782950939
    One-Electron Energy =                -956.5205985305565264
    Two-Electron Energy =                 377.4098523644258307
    DFT Exchange-Correlation Energy =       0.0000000000000000
    Empirical Dispersion Energy =           0.0000000000000000
    PCM Polarization Energy =               0.0000000000000000
    EFP Energy =                            0.0000000000000000
    Total Energy =                       -305.6673215878356018
    Molecular point group: c1
  Basis Set: CC-PVTZ
  Basis Set:

  -Total Gradient:
     Atom            X                  Y                   Z
    ------   -----------------  -----------------  -----------------
       1       -0.000066549933     0.000024544707     0.002172534465
       2        0.000087508056    -0.000749643895    -0.003125133426
       3        0.000002220024     0.002045152411     0.001839960149
       4       -0.000065634976    -0.001392152462    -0.000829041804
       5        0.000165948440     0.000008515863     0.000005307589
       6       -0.000050845118    -0.000007391403     0.000021636578
       7        0.000073759584     0.000056258787    -0.000015468352
       8        0.000061254382     0.000011224230    -0.000032989659
       9       -0.000186834748     0.000074078743    -0.000073429349
      10       -0.000048482670    -0.000012601634     0.000001684745
      11        0.000015556568    -0.000090477271     0.000119043121
      12        0.000016112373     0.000004959321    -0.000020974703
      13       -0.000004011978     0.000027532604    -0.000063129355

  **** Optimization is complete! (in 5 steps) ****
    Final optimized geometry and variables:
    Molecular point group: c1

    Geometry (in Angstrom), charge = 0, multiplicity = 1:

    H            2.687349966842     0.628249321652     0.069977296805
    O            2.258384314333    -0.208750617250     0.083746255378
    C            0.904470477307    -0.057647782929     0.035846760442
    C            0.295340513517     0.576322753920    -1.031458862158
    C            0.140027505273    -0.610067769430     1.044497940579
    H            0.898469818698     0.978673886127    -1.823222766339
    C           -1.082046119798     0.676689683212    -1.072804108968
    H            0.631599813793    -1.108948968068     1.856462362287
    C           -1.237682957987    -0.515990642458     0.988391360931
    H           -1.551513570008     1.173432085295    -1.900502213118
    C           -1.855024953035     0.130921977320    -0.065358323774
    H           -1.828764775822    -0.947224868476     1.773731992453
    H           -2.924485586388     0.204759216980    -0.104337332680

  Mulliken Charges: (a.u.)
   Center  Symbol    Alpha    Beta     Spin     Total
       1     H     0.38625  0.38625  0.00000  0.22749
       2     O     4.18872  4.18872  0.00000 -0.37743
       3     C     2.86948  2.86948  0.00000  0.26104
       4     C     3.11956  3.11956  0.00000 -0.23912
       5     C     3.10753  3.10753  0.00000 -0.21506
       6     H     0.42208  0.42208  0.00000  0.15584
       7     C     3.06807  3.06807  0.00000 -0.13614
       8     H     0.41651  0.41651  0.00000  0.16698
       9     C     3.06491  3.06491  0.00000 -0.12981
      10     H     0.42201  0.42201  0.00000  0.15598
      11     C     3.08971  3.08971  0.00000 -0.17941
      12     H     0.42186  0.42186  0.00000  0.15628
      13     H     0.42331  0.42331  0.00000  0.15338

   Total alpha = 25.00000, Total beta = 25.00000, Total charge = -0.00000

*** Psi4 exiting successfully. Buy a developer a beer!
