  ==> Input File <==

--------------------------------------------------------------------------
set {
	reference rhf
	basis cc-pvtz
}

set_num_threads( 4 )
memory 2 gb

molecule MOL {
0 1

H	 -2.177745	 -0.608770	 -3.386952
C	 -1.356956	 -0.594689	 -2.696864
C	 -1.243214	 -1.571034	 -1.717248
C	 -0.399928	 0.390677	 -2.767768
H	 -1.980609	 -2.348066	 -1.646530
C	 -0.193224	 -1.556787	 -0.831053
H	 -0.470975	 1.154562	 -3.518847
C	 0.667084	 0.419999	 -1.880618
H	 -0.096105	 -2.306381	 -0.070562
C	 0.771229	 -0.557524	 -0.908156
H	 1.395170	 1.200193	 -1.962165
O	 1.760432	 -0.625184	 0.000000
C	 2.773565	 0.334879	 0.000000
H	 2.728295	 0.960928	 -0.884150
H	 3.706387	 -0.206610	 0.000000
H	 2.728295	 0.960928	 0.884150

	symmetry c1
}
set optking {
	frozen_dihedral = ("
		10 12 13 14
	")
}

ee = optimize('scf')
oeprop('DIPOLE', 'QUADRUPOLE', 'MULLIKEN_CHARGES')
f=open( 'psi4out.xyz', 'w' )
f.write( "16  " )
f.write( str(ee) + "\n" )
f.write( MOL.save_string_xyz() )
f.close()
--------------------------------------------------------------------------

    Molecular point group: c1
  Charge       = 0
  Multiplicity = 1
  Basis Set: CC-PVTZ
  Basis Set:
  @DF-RHF Final Energy:  -344.69594403407126
    Total Energy =                       -344.6959440340713172
    Molecular point group: c1
  Basis Set: CC-PVTZ
  Basis Set:
  Basis Set: CC-PVTZ
  Basis Set:
  @DF-RHF Final Energy:  -344.69470660964680
    Total Energy =                       -344.6947066096470849
  Basis Set: CC-PVTZ
  Basis Set:
  Basis Set: CC-PVTZ
  Basis Set:
  @DF-RHF Final Energy:  -344.69831998561767
    Total Energy =                       -344.6983199856175588
  Basis Set: CC-PVTZ
  Basis Set:
  Basis Set: CC-PVTZ
  Basis Set:
  @DF-RHF Final Energy:  -344.69882109499929
    Total Energy =                       -344.6988210949991753
  Basis Set: CC-PVTZ
  Basis Set:
  @DF-RHF Final Energy:  -344.69966067273447
    Total Energy =                       -344.6996606727345807
  Basis Set: CC-PVTZ
  Basis Set:
  @DF-RHF Final Energy:  -344.69982888656847
    Total Energy =                       -344.6998288865683548
  Basis Set: CC-PVTZ
  Basis Set:
  Basis Set: CC-PVTZ
  Basis Set:
  @DF-RHF Final Energy:  -344.69984528319463
    Total Energy =                       -344.6998452831945770
  Basis Set: CC-PVTZ
  Basis Set:
  Basis Set: CC-PVTZ
  Basis Set:
  @DF-RHF Final Energy:  -344.69984997300566
    Total Energy =                       -344.6998499730058825
  Basis Set: CC-PVTZ
  Basis Set:
  Charge       = 0
  Multiplicity = 1
  Basis Set: CC-PVTZ
  Basis Set:

    Orbital Energies (a.u.)
    -----------------------

    Doubly Occupied:

       1A    -20.573477     2A    -11.291848     3A    -11.277030
       4A    -11.231546     5A    -11.230127     6A    -11.222706
       7A    -11.218687     8A    -11.218593     9A     -1.412079
      10A     -1.151274    11A     -1.023993    12A     -1.017254
      13A     -0.941647    14A     -0.835900    15A     -0.808737
      16A     -0.723043    17A     -0.667327    18A     -0.666847
      19A     -0.652454    20A     -0.617688    21A     -0.593377
      22A     -0.584163    23A     -0.528263    24A     -0.518104
      25A     -0.511451    26A     -0.484039    27A     -0.455639
      28A     -0.339535    29A     -0.313202

  @DF-RHF Final Energy:  -344.69985063620396

   => Energetics <=

    Nuclear Repulsion Energy =            348.3741131998568221
    One-Electron Energy =               -1157.9278692641964881
    Two-Electron Energy =                 464.8539054281352492
    DFT Exchange-Correlation Energy =       0.0000000000000000
    Empirical Dispersion Energy =           0.0000000000000000
    PCM Polarization Energy =               0.0000000000000000
    EFP Energy =                            0.0000000000000000
    Total Energy =                       -344.6998506362044736
    Molecular point group: c1
  Basis Set: CC-PVTZ
  Basis Set:

  -Total Gradient:
     Atom            X                  Y                   Z
    ------   -----------------  -----------------  -----------------
       1       -0.000005195367    -0.000017858997    -0.000001414627
       2        0.000043366053     0.000056305918    -0.000018867610
       3       -0.000011270084     0.000002130127     0.000061482587
       4       -0.000075301654    -0.000022264919    -0.000045862434
       5       -0.000000203769     0.000005792643    -0.000021041913
       6        0.000016206846    -0.000033761059     0.000020957289
       7        0.000000553612    -0.000008281264     0.000002887670
       8        0.000040734094    -0.000014717782     0.000061276209
       9       -0.000000554813     0.000004959153    -0.000003253116
      10        0.000623523843    -0.001788921251    -0.000715290611
      11       -0.000008705376    -0.000013286187     0.000013562905
      12       -0.001323055530     0.003329225477     0.000929842697
      13        0.001629670170    -0.003627314082    -0.000504191105
      14       -0.000943811124     0.002137846044     0.000247524041
      15        0.000011886783    -0.000003381804    -0.000014244952
      16        0.000002156318    -0.000006472016    -0.000013367032

  **** Optimization is complete! (in 9 steps) ****
    Final optimized geometry and variables:
    Molecular point group: c1

    Geometry (in Angstrom), charge = 0, multiplicity = 1:

    H           -2.466497820659    -0.347180266187    -2.230458338371
    C           -1.703330387628    -0.254124701249    -1.482591229944
    C           -1.542368391956    -1.234474563408    -0.518267650025
    C           -0.872348887254     0.846157379460    -1.464570745377
    H           -2.182903930467    -2.095981182987    -0.517227707465
    C           -0.559820249682    -1.121482995499     0.441349017229
    H           -0.991252464538     1.620493729071    -2.198626462724
    C            0.113076455388     0.976467426232    -0.501039145546
    H           -0.425049611868    -1.875991739451     1.191124309998
    C            0.276068035156    -0.015263511629     0.450641253223
    H            0.733331595129     1.850582938025    -0.488227947723
    O            1.186457684169     0.053275141895     1.442998673494
    C            2.452399284488     0.612301775778     1.213663117026
    H            2.630621202677     0.791093144751     0.162775440720
    H            3.195822236583    -0.074684452749     1.592778924236
    H            2.540781314695     1.553441344012     1.742835656940

  Mulliken Charges: (a.u.)
   Center  Symbol    Alpha    Beta     Spin     Total
       1     H     0.42421  0.42421  0.00000  0.15158
       2     C     3.09718  3.09718  0.00000 -0.19435
       3     C     3.06028  3.06028  0.00000 -0.12055
       4     C     3.06476  3.06476  0.00000 -0.12951
       5     H     0.42278  0.42278  0.00000  0.15444
       6     C     3.11082  3.11082  0.00000 -0.22163
       7     H     0.42285  0.42285  0.00000  0.15431
       8     C     3.12904  3.12904  0.00000 -0.25808
       9     H     0.41922  0.41922  0.00000  0.16156
      10     C     2.85666  2.85666  0.00000  0.28668
      11     H     0.42345  0.42345  0.00000  0.15309
      12     O     4.16394  4.16394  0.00000 -0.32789
      13     C     3.03917  3.03917  0.00000 -0.07833
      14     H     0.46424  0.46424  0.00000  0.07151
      15     H     0.44684  0.44684  0.00000  0.10633
      16     H     0.45457  0.45457  0.00000  0.09086

   Total alpha = 29.00000, Total beta = 29.00000, Total charge =  0.00000
