                              Psi4 1.0.54 Driver

  ==> Input File <==

--------------------------------------------------------------------------
set {
	reference rhf
	basis cc-pvtz
}

set_num_threads( 4 )
memory 2 gb

molecule MOL {
0 1

O	 0.074770	 1.259872	 0.000487
C	 0.029490	 0.077183	 0.000078
C	 -1.232113	 -0.748027	 0.000015
O	 1.106773	 -0.690081	 -0.000204
C	 -2.501422	 0.088592	 -0.000052
H	 -1.188777	 -1.400384	 -0.865133
H	 -1.188857	 -1.400312	 0.865225
H	 -2.548170	 0.725504	 -0.873205
H	 -3.371613	 -0.556398	 -0.000040
H	 -2.548215	 0.725571	 0.873047
C	 1.761680	 -0.888642	 -1.236858
H	 1.098970	 -1.359181	 -1.947944
H	 2.601699	 -1.531342	 -1.029182
H	 2.103279	 0.052084	 -1.642554

	symmetry c1
}
set optking {
	frozen_dihedral = ("
		11 4 2 3
	")
}

ee,wfn = optimize('scf', return_wfn=True)
oeprop( wfn, 'DIPOLE', 'QUADRUPOLE', 'MULLIKEN_CHARGES')
f=open( 'psi4out.xyz', 'w' )
f.write( "14  " )
f.write( str(ee) + "\n" )
f.write( MOL.save_string_xyz() )
f.close()
--------------------------------------------------------------------------

    Molecular point group: c1
  Charge       = 0
  Multiplicity = 1
  Basis Set: CC-PVTZ
  Basis Set:
  @DF-RHF Final Energy:  -305.96837839656348
    Total Energy =                       -305.9683783965634802
    Molecular point group: c1
  Basis Set: CC-PVTZ
  Basis Set:
  Basis Set: CC-PVTZ
  Basis Set:
  @DF-RHF Final Energy:  -305.96912403505632
    Total Energy =                       -305.9691240350563817
  Basis Set: CC-PVTZ
  Basis Set:
  Basis Set: CC-PVTZ
  Basis Set:
  @DF-RHF Final Energy:  -305.96846754080821
    Total Energy =                       -305.9684675408082057
  Basis Set: CC-PVTZ
  Basis Set:
  Basis Set: CC-PVTZ
  Basis Set:
  @DF-RHF Final Energy:  -305.96937619675145
    Total Energy =                       -305.9693761967517389
  Basis Set: CC-PVTZ
  Basis Set:
  Basis Set: CC-PVTZ
  Basis Set:
  @DF-RHF Final Energy:  -305.96940179514428
    Total Energy =                       -305.9694017951441651
  Basis Set: CC-PVTZ
  Basis Set:
  Charge       = 0
  Multiplicity = 1
  Basis Set: CC-PVTZ
  Basis Set:

    Orbital Energies (a.u.)
    -----------------------

    Doubly Occupied:

       1A    -20.578609     2A    -20.546674     3A    -11.368642
       4A    -11.288414     5A    -11.241641     6A    -11.217936
       7A     -1.463140     8A     -1.370281     9A     -1.064493
      10A     -0.976188    11A     -0.891724    12A     -0.767578
      13A     -0.702714    14A     -0.680848    15A     -0.674118
      16A     -0.621961    17A     -0.617513    18A     -0.556902
      19A     -0.545333    20A     -0.525760    21A     -0.511591
      22A     -0.496137    23A     -0.459022    24A     -0.440490

  @DF-RHF Final Energy:  -305.96940333120119

   => Energetics <=

    Nuclear Repulsion Energy =            247.1342131165943101
    One-Electron Energy =                -906.9918112523899936
    Two-Electron Energy =                 353.8881948045946046
    DFT Exchange-Correlation Energy =       0.0000000000000000
    Empirical Dispersion Energy =           0.0000000000000000
    PCM Polarization Energy =               0.0000000000000000
    EFP Energy =                            0.0000000000000000
    Total Energy =                       -305.9694033312010788
    Molecular point group: c1
  Basis Set: CC-PVTZ
  Basis Set:

  -Total Gradient:
     Atom            X                  Y                   Z
    ------   -----------------  -----------------  -----------------
       1       -0.000046593803     0.000016526097     0.000005230005
       2       -0.000877567929    -0.001498041218     0.004919608342
       3        0.000037541507    -0.000008436292    -0.003641541469
       4        0.003163303469     0.004786700986    -0.000636146959
       5       -0.000020731768     0.000011654783     0.000007162035
       6        0.000003850133    -0.000019682123     0.000006460499
       7       -0.000006496183    -0.000020739396     0.000000605603
       8       -0.000000725116    -0.000003989923     0.000009068786
       9       -0.000001900480     0.000002518042    -0.000000987410
      10       -0.000000140088    -0.000002931367    -0.000010312048
      11       -0.002276554048    -0.003246310355    -0.000670786966
      12        0.000025504211    -0.000008710863    -0.000010651407
      13       -0.000000040999     0.000005011522    -0.000004351973
      14        0.000000551093    -0.000013569892     0.000026642962

  **** Optimization is complete! (in 6 steps) ****
    Final optimized geometry and variables:
    Molecular point group: c1

    Geometry (in Angstrom), charge = 0, multiplicity = 1:

    O            0.190533713679     1.397191335085     0.173782254961
    C            0.130590374352     0.222951283535     0.212916155419
    C           -1.144385551328    -0.578365648464     0.241860763351
    O            1.239092859825    -0.546849208977     0.222080129820
    C           -2.405728622482     0.269358109076     0.265352811014
    H           -1.124545412196    -1.231823009294    -0.625224680199
    H           -1.090506251430    -1.236608493935     1.102410699309
    H           -2.462789263942     0.907196527634    -0.606552789845
    H           -3.282899845129    -0.365805430182     0.283230579467
    H           -2.427720058724     0.906518939795     1.139339181345
    C            1.871392596968    -0.755271432203    -1.020919654755
    H            1.216522851871    -1.283135861570    -1.705588985368
    H            2.742274183308    -1.360575052034    -0.829064505616
    H            2.173785628237     0.186230408685    -1.459718709417

  Mulliken Charges: (a.u.)
   Center  Symbol    Alpha    Beta     Spin     Total
       1     O     4.17070  4.17070  0.00000 -0.34139
       2     C     2.79030  2.79030  0.00000  0.41940
       3     C     3.10288  3.10288  0.00000 -0.20575
       4     O     4.16978  4.16978  0.00000 -0.33956
       5     C     3.13883  3.13883  0.00000 -0.27767
       6     H     0.44596  0.44596  0.00000  0.10808
       7     H     0.43904  0.43904  0.00000  0.12192
       8     H     0.44855  0.44855  0.00000  0.10290
       9     H     0.45047  0.45047  0.00000  0.09907
      10     H     0.44670  0.44670  0.00000  0.10660
      11     C     3.03378  3.03378  0.00000 -0.06756
      12     H     0.46770  0.46770  0.00000  0.06461
      13     H     0.44332  0.44332  0.00000  0.11335
      14     H     0.45199  0.45199  0.00000  0.09602

   Total alpha = 24.00000, Total beta = 24.00000, Total charge = -0.00000

*** Psi4 exiting successfully. Buy a developer a beer!
