  ==> Input File <==

--------------------------------------------------------------------------
set {
	reference rhf
	basis 6-31G*
}

set_num_threads( 1 )
memory 2 gb

molecule MOL {
0 1

O	 -2.439739	 -0.935931	 -0.423848
C	 -1.921153	 0.064240	 -0.045697
C	 -2.624470	 1.379923	 0.150949
O	 -0.632575	 0.154573	 0.251549
H	 -2.168117	 2.136577	 -0.476876
H	 -3.669540	 1.273223	 -0.098610
H	 -2.519365	 1.700893	 1.180846
C	 0.160891	 -1.019931	 0.106212
C	 1.589627	 -0.672828	 0.480843
H	 0.089836	 -1.367806	 -0.916050
H	 -0.238459	 -1.792301	 0.749618
C	 1.847138	 -0.644806	 1.988590
H	 1.811266	 0.303360	 0.054386
H	 2.260132	 -1.382504	 0.003306
C	 3.287552	 -0.266047	 2.330277
H	 1.166322	 0.064268	 2.455283
H	 1.617191	 -1.617841	 2.410119
H	 3.444904	 -0.254116	 3.404117
H	 3.536798	 0.720078	 1.948554
H	 3.991167	 -0.973717	 1.901083

	symmetry c1
}
set optking {
	frozen_dihedral = ("
		16 12 9 8,
		2 4 8 10,
		1 2 4 8
	")
}

ee = energy('scf')
oeprop('DIPOLE', 'QUADRUPOLE', 'MULLIKEN_CHARGES')
f=open( 'psi4out.xyz', 'w' )
f.write( "20  " )
f.write( str(ee) + "\n" )
f.write( MOL.save_string_xyz() )
f.close()
--------------------------------------------------------------------------

    Molecular point group: c1

    Geometry (in Angstrom), charge = 0, multiplicity = 1:

       Center              X                  Y                   Z               Mass
    ------------   -----------------  -----------------  -----------------  -----------------
           O         -2.339196924492    -0.698082513542    -1.027659363443    15.994914619560
           C         -1.820610924492     0.302088486458    -0.649508363443    12.000000000000
           C         -2.523927924492     1.617771486458    -0.452862363443    12.000000000000
           O         -0.532032924492     0.392421486458    -0.352262363443    15.994914619560
           H         -2.067574924492     2.374425486458    -1.080687363443     1.007825032070
           H         -3.568997924492     1.511071486458    -0.702421363443     1.007825032070
           H         -2.418822924492     1.938741486458     0.577034636557     1.007825032070
           C          0.261433075508    -0.782082513542    -0.497599363443    12.000000000000
           C          1.690169075508    -0.434979513542    -0.122968363443    12.000000000000
           H          0.190378075508    -1.129957513542    -1.519861363443     1.007825032070
           H         -0.137916924492    -1.554452513542     0.145806636557     1.007825032070
           C          1.947680075508    -0.406957513542     1.384778636557    12.000000000000
           H          1.911808075508     0.541208486458    -0.549425363443     1.007825032070
           H          2.360674075508    -1.144655513542    -0.600505363443     1.007825032070
           C          3.388094075508    -0.028198513542     1.726465636557    12.000000000000
           H          1.266864075508     0.302116486458     1.851471636557     1.007825032070
           H          1.717733075508    -1.379992513542     1.806307636557     1.007825032070
           H          3.545446075508    -0.016267513542     2.800305636557     1.007825032070
           H          3.637340075508     0.957926486458     1.344742636557     1.007825032070
           H          4.091709075508    -0.735868513542     1.297271636557     1.007825032070

  Charge       = 0
  Multiplicity = 1
  Basis Set: 6-31G*
  Basis Set:

    Orbital Energies (a.u.)
    -----------------------

    Doubly Occupied:

       1A    -20.601771     2A    -20.543933     3A    -11.374337
       4A    -11.281816     5A    -11.233337     6A    -11.224760
       7A    -11.221960     8A    -11.213982     9A     -1.467818
      10A     -1.362066    11A     -1.086434    12A     -1.028617
      13A     -0.981271    14A     -0.880377    15A     -0.809183
      16A     -0.779100    17A     -0.689584    18A     -0.682009
      19A     -0.666966    20A     -0.630830    21A     -0.602979
      22A     -0.592528    23A     -0.571748    24A     -0.551516
      25A     -0.545280    26A     -0.528782    27A     -0.513195
      28A     -0.482750    29A     -0.476937    30A     -0.473030
      31A     -0.448048    32A     -0.438303

  @DF-RHF Final Energy:  -383.94434615411660

   => Energetics <=

    Nuclear Repulsion Energy =            383.7006964253268961
    One-Electron Energy =               -1283.3195240179757093
    Two-Electron Energy =                 515.6744814385335758
    DFT Exchange-Correlation Energy =       0.0000000000000000
    Empirical Dispersion Energy =           0.0000000000000000
    PCM Polarization Energy =               0.0000000000000000
    EFP Energy =                            0.0000000000000000
    Total Energy =                       -383.9443461541152374

  Mulliken Charges: (a.u.)
   Center  Symbol    Alpha    Beta     Spin     Total
       1     O     4.28330  4.28330  0.00000 -0.56660
       2     C     2.61943  2.61943  0.00000  0.76113
       3     C     3.28156  3.28156  0.00000 -0.56312
       4     O     4.30914  4.30914  0.00000 -0.61828
       5     H     0.40057  0.40057  0.00000  0.19886
       6     H     0.39689  0.39689  0.00000  0.20621
       7     H     0.40081  0.40081  0.00000  0.19837
       8     C     3.00265  3.00265  0.00000 -0.00531
       9     C     3.16534  3.16534  0.00000 -0.33068
      10     H     0.40795  0.40795  0.00000  0.18411
      11     H     0.41098  0.41098  0.00000  0.17804
      12     C     3.15590  3.15590  0.00000 -0.31180
      13     H     0.41204  0.41204  0.00000  0.17591
      14     H     0.41741  0.41741  0.00000  0.16519
      15     C     3.24055  3.24055  0.00000 -0.48110
      16     H     0.41510  0.41510  0.00000  0.16981
      17     H     0.42149  0.42149  0.00000  0.15703
      18     H     0.41743  0.41743  0.00000  0.16514
      19     H     0.42007  0.42007  0.00000  0.15986
      20     H     0.42140  0.42140  0.00000  0.15721

   Total alpha = 32.00000, Total beta = 32.00000, Total charge = -0.00000
