  ==> Input File <==

--------------------------------------------------------------------------
set {
	reference rhf
	basis 6-31G*
}

set_num_threads( 1 )
memory 2 gb

molecule MOL {
0 1

H	 -3.970404	 -0.412742	 -0.842138
C	 -2.918622	 -0.264501	 -0.673130
C	 -2.423919	 1.015918	 -0.475789
C	 -2.062251	 -1.354074	 -0.653332
H	 -3.089158	 1.860062	 -0.491387
C	 -1.071419	 1.205730	 -0.258539
H	 -2.447549	 -2.345885	 -0.806503
C	 -0.708012	 -1.166465	 -0.436042
H	 -0.671006	 2.189317	 -0.103947
C	 -0.209084	 0.115558	 -0.237923
H	 -0.041688	 -2.006746	 -0.419910
C	 1.239129	 0.373821	 0.000060
O	 1.970282	 -0.730723	 0.000018
O	 1.702205	 1.457476	 0.173591
C	 3.377318	 -0.566646	 -0.000065
H	 3.695437	 -0.028981	 -0.881264
H	 3.789299	 -1.563704	 0.000236
H	 3.695516	 -0.028316	 0.880770

	symmetry c1
}
set optking {
	frozen_dihedral = ("
		12 13 15 16,
		13 12 10 6
	")
}

ee = energy('scf')
oeprop('DIPOLE', 'QUADRUPOLE', 'MULLIKEN_CHARGES')
f=open( 'psi4out.xyz', 'w' )
f.write( "18  " )
f.write( str(ee) + "\n" )
f.write( MOL.save_string_xyz() )
f.close()
--------------------------------------------------------------------------

    Molecular point group: c1

    Geometry (in Angstrom), charge = 0, multiplicity = 1:

       Center              X                  Y                   Z               Mass
    ------------   -----------------  -----------------  -----------------  -----------------
           H         -3.987946932117    -0.424363711788    -0.601603898599     1.007825032070
           C         -2.936164932117    -0.276122711788    -0.432595898599    12.000000000000
           C         -2.441461932117     1.004296288212    -0.235254898599    12.000000000000
           C         -2.079793932117    -1.365695711788    -0.412797898599    12.000000000000
           H         -3.106700932117     1.848440288212    -0.250852898599     1.007825032070
           C         -1.088961932117     1.194108288212    -0.018004898599    12.000000000000
           H         -2.465091932117    -2.357506711788    -0.565968898599     1.007825032070
           C         -0.725554932117    -1.178086711788    -0.195507898599    12.000000000000
           H         -0.688548932117     2.177695288212     0.136587101401     1.007825032070
           C         -0.226626932117     0.103936288212     0.002611101401    12.000000000000
           H         -0.059230932117    -2.018367711788    -0.179375898599     1.007825032070
           C          1.221586067883     0.362199288212     0.240594101401    12.000000000000
           O          1.952739067883    -0.742344711788     0.240552101401    15.994914619560
           O          1.684662067883     1.445854288212     0.414125101401    15.994914619560
           C          3.359775067883    -0.578267711788     0.240469101401    12.000000000000
           H          3.677894067883    -0.040602711788    -0.640729898599     1.007825032070
           H          3.771756067883    -1.575325711788     0.240770101401     1.007825032070
           H          3.677973067883    -0.039937711788     1.121304101401     1.007825032070

  Charge       = 0
  Multiplicity = 1
  Basis Set: 6-31G*
  Basis Set:

    Orbital Energies (a.u.)
    -----------------------

    Doubly Occupied:

       1A    -20.607006     2A    -20.544606     3A    -11.377916
       4A    -11.283120     5A    -11.245573     6A    -11.245355
       7A    -11.244174     8A    -11.241748     9A    -11.237540
      10A    -11.236772    11A     -1.472548    12A     -1.363923
      13A     -1.165332    14A     -1.048054    15A     -1.024848
      16A     -0.978124    17A     -0.860389    18A     -0.834389
      19A     -0.777763    20A     -0.739890    21A     -0.683302
      22A     -0.677187    23A     -0.671800    24A     -0.631188
      25A     -0.623988    26A     -0.597856    27A     -0.585265
      28A     -0.561437    29A     -0.529161    30A     -0.516688
      31A     -0.503344    32A     -0.498953    33A     -0.459075
      34A     -0.444203    35A     -0.344939    36A     -0.341025

  @DF-RHF Final Energy:  -457.35004581908061

   => Energetics <=

    Nuclear Repulsion Energy =            493.0538485814001888
    One-Electron Energy =               -1600.4107229935141277
    Two-Electron Energy =                 650.0068285930334469
    DFT Exchange-Correlation Energy =       0.0000000000000000
    Empirical Dispersion Energy =           0.0000000000000000
    PCM Polarization Energy =               0.0000000000000000
    EFP Energy =                            0.0000000000000000
    Total Energy =                       -457.3500458190804920

  Mulliken Charges: (a.u.)
   Center  Symbol    Alpha    Beta     Spin     Total
       1     H     0.39537  0.39537  0.00000  0.20925
       2     C     3.08998  3.08998  0.00000 -0.17996
       3     C     3.10710  3.10710  0.00000 -0.21420
       4     C     3.10715  3.10715  0.00000 -0.21430
       5     H     0.39535  0.39535  0.00000  0.20930
       6     C     3.08642  3.08642  0.00000 -0.17283
       7     H     0.39625  0.39625  0.00000  0.20750
       8     C     3.08716  3.08716  0.00000 -0.17433
       9     H     0.37596  0.37596  0.00000  0.24808
      10     C     3.07734  3.07734  0.00000 -0.15469
      11     H     0.38047  0.38047  0.00000  0.23906
      12     C     2.57966  2.57966  0.00000  0.84067
      13     O     4.31494  4.31494  0.00000 -0.62989
      14     O     4.29123  4.29123  0.00000 -0.58246
      15     C     3.09294  3.09294  0.00000 -0.18588
      16     H     0.40950  0.40950  0.00000  0.18100
      17     H     0.40790  0.40790  0.00000  0.18421
      18     H     0.40527  0.40527  0.00000  0.18945

   Total alpha = 36.00000, Total beta = 36.00000, Total charge = -0.00000
