  ==> Input File <==

--------------------------------------------------------------------------
set {
	reference rhf
	basis 6-31G*
}

set_num_threads( 1 )
memory 2 gb

molecule MOL {
0 1

O	 0.074228	 1.262779	 -0.000085
C	 0.028650	 0.075053	 -0.000277
C	 -1.233602	 -0.752807	 0.000328
O	 1.109162	 -0.694619	 -0.000298
C	 -2.501530	 0.091881	 0.000126
H	 -1.193807	 -1.406641	 -0.865785
H	 -1.193516	 -1.405779	 0.867015
H	 -2.545121	 0.729328	 -0.874513
H	 -3.377167	 -0.548497	 0.000561
H	 -2.544818	 0.730135	 0.874258
C	 0.911438	 -2.079789	 -0.218925
H	 0.279198	 -2.499191	 0.550352
H	 1.892400	 -2.527243	 -0.182038
H	 0.457590	 -2.251041	 -1.184413

	symmetry c1
}
set optking {
	frozen_dihedral = ("
		4 2 3 6
	")
}

ee = energy('scf')
oeprop('DIPOLE', 'QUADRUPOLE', 'MULLIKEN_CHARGES')
f=open( 'psi4out.xyz', 'w' )
f.write( "14  " )
f.write( str(ee) + "\n" )
f.write( MOL.save_string_xyz() )
f.close()
--------------------------------------------------------------------------

    Molecular point group: c1

    Geometry (in Angstrom), charge = 0, multiplicity = 1:

       Center              X                  Y                   Z               Mass
    ------------   -----------------  -----------------  -----------------  -----------------
           O          0.334322013239     1.627914044061     0.039119358740    15.994914619560
           C          0.288744013239     0.440188044061     0.038927358740    12.000000000000
           C         -0.973507986761    -0.387671955939     0.039532358740    12.000000000000
           O          1.369256013239    -0.329483955939     0.038906358740    15.994914619560
           C         -2.241435986761     0.457016044061     0.039330358740    12.000000000000
           H         -0.933712986761    -1.041505955939    -0.826580641260     1.007825032070
           H         -0.933421986761    -1.040643955939     0.906219358740     1.007825032070
           H         -2.285026986761     1.094463044061    -0.835308641260     1.007825032070
           H         -3.117072986761    -0.183361955939     0.039765358740     1.007825032070
           H         -2.284723986761     1.095270044061     0.913462358740     1.007825032070
           C          1.171532013239    -1.714653955939    -0.179720641260    12.000000000000
           H          0.539292013239    -2.134055955939     0.589556358740     1.007825032070
           H          2.152494013239    -2.162107955939    -0.142833641260     1.007825032070
           H          0.717684013239    -1.885905955939    -1.145208641260     1.007825032070

  Charge       = 0
  Multiplicity = 1
  Basis Set: 6-31G*
  Basis Set:

    Orbital Energies (a.u.)
    -----------------------

    Doubly Occupied:

       1A    -20.609256     2A    -20.544107     3A    -11.375536
       4A    -11.298541     5A    -11.245828     6A    -11.220670
       7A     -1.469815     8A     -1.369999     9A     -1.066556
      10A     -0.990355    11A     -0.908860    12A     -0.764917
      13A     -0.710244    14A     -0.701534    15A     -0.676523
      16A     -0.619453    17A     -0.607489    18A     -0.563644
      19A     -0.558561    20A     -0.524259    21A     -0.514757
      22A     -0.509317    23A     -0.450491    24A     -0.431280

  @DF-RHF Final Energy:  -305.84468297016377

   => Energetics <=

    Nuclear Repulsion Energy =            250.5334286798247945
    One-Electron Energy =                -913.2922891793980398
    Two-Electron Energy =                 356.9141775294094145
    DFT Exchange-Correlation Energy =       0.0000000000000000
    Empirical Dispersion Energy =           0.0000000000000000
    PCM Polarization Energy =               0.0000000000000000
    EFP Energy =                            0.0000000000000000
    Total Energy =                       -305.8446829701638876

  Mulliken Charges: (a.u.)
   Center  Symbol    Alpha    Beta     Spin     Total
       1     O     4.27278  4.27278  0.00000 -0.54555
       2     C     2.59218  2.59218  0.00000  0.81564
       3     C     3.24237  3.24237  0.00000 -0.48474
       4     O     4.29896  4.29896  0.00000 -0.59792
       5     C     3.23337  3.23337  0.00000 -0.46674
       6     H     0.40322  0.40322  0.00000  0.19356
       7     H     0.40014  0.40014  0.00000  0.19971
       8     H     0.40816  0.40816  0.00000  0.18368
       9     H     0.41931  0.41931  0.00000  0.16138
      10     H     0.40765  0.40765  0.00000  0.18471
      11     C     3.10131  3.10131  0.00000 -0.20262
      12     H     0.41426  0.41426  0.00000  0.17147
      13     H     0.39434  0.39434  0.00000  0.21132
      14     H     0.41195  0.41195  0.00000  0.17609

   Total alpha = 24.00000, Total beta = 24.00000, Total charge = -0.00000
