  ==> Input File <==

--------------------------------------------------------------------------
set {
	reference rhf
	basis 6-31G*
}

set_num_threads( 4 )
memory 2 gb

molecule MOL {
0 1

H	 2.176868	 -0.646004	 -0.217325
O	 1.337496	 -0.537251	 0.205931
C	 0.702312	 0.627605	 -0.264544
C	 -0.714990	 0.596302	 0.266387
H	 0.682322	 0.642550	 -1.350929
H	 1.215941	 1.520383	 0.085680
O	 -1.405996	 -0.526611	 -0.195820
H	 -1.257453	 1.468809	 -0.075599
H	 -0.688972	 0.618407	 1.353696
H	 -1.145546	 -1.266044	 0.338426

	symmetry c1
}
set optking {
	frozen_dihedral = ("
		10 7 4 3
	")
}

ee = optimize('scf')
oeprop('DIPOLE', 'QUADRUPOLE', 'MULLIKEN_CHARGES')
f=open( 'psi4out.xyz', 'w' )
f.write( "10  " )
f.write( str(ee) + "\n" )
f.write( MOL.save_string_xyz() )
f.close()
--------------------------------------------------------------------------

    Molecular point group: c1
  Charge       = 0
  Multiplicity = 1
  Basis Set: 6-31G*
  Basis Set:
  @DF-RHF Final Energy:  -228.92375694952034
    Total Energy =                       -228.9237569495204241
    Molecular point group: c1
  Basis Set: 6-31G*
  Basis Set:
  Basis Set: 6-31G*
  Basis Set:
  @DF-RHF Final Energy:  -228.92393536900175
    Total Energy =                       -228.9239353690016969
  Basis Set: 6-31G*
  Basis Set:
  Basis Set: 6-31G*
  Basis Set:
  @DF-RHF Final Energy:  -228.92403563293880
    Total Energy =                       -228.9240356329388533
  Basis Set: 6-31G*
  Basis Set:
  Basis Set: 6-31G*
  Basis Set:
  @DF-RHF Final Energy:  -228.92403948912909
    Total Energy =                       -228.9240394891290293
  Basis Set: 6-31G*
  Basis Set:
  Charge       = 0
  Multiplicity = 1
  Basis Set: 6-31G*
  Basis Set:

    Orbital Energies (a.u.)
    -----------------------

    Doubly Occupied:

       1A    -20.562349     2A    -20.550501     3A    -11.271361
       4A    -11.268592     5A     -1.376302     6A     -1.350897
       7A     -1.001206     8A     -0.839136     9A     -0.724881
      10A     -0.687362    11A     -0.635920    12A     -0.602120
      13A     -0.576046    14A     -0.522107    15A     -0.492411
      16A     -0.448993    17A     -0.432514

  @DF-RHF Final Energy:  -228.92403969323857

   => Energetics <=

    Nuclear Repulsion Energy =            134.0156993807602248
    One-Electron Energy =                -579.1940817938586861
    Two-Electron Energy =                 216.2543427198598920
    DFT Exchange-Correlation Energy =       0.0000000000000000
    Empirical Dispersion Energy =           0.0000000000000000
    PCM Polarization Energy =               0.0000000000000000
    EFP Energy =                            0.0000000000000000
    Total Energy =                       -228.9240396932385693
    Molecular point group: c1
  Basis Set: 6-31G*
  Basis Set:

  -Total Gradient:
     Atom            X                  Y                   Z
    ------   -----------------  -----------------  -----------------
       1        0.000012608371    -0.000004128502     0.000002526951
       2        0.000000936968    -0.000000806275     0.000002088435
       3       -0.000712101562     0.001238044005    -0.001720715661
       4        0.000385607573    -0.001552243576     0.002867056488
       5        0.000006945839     0.000001463342    -0.000009153466
       6        0.000003846786    -0.000015072491     0.000008520434
       7        0.002827537896    -0.000319174048    -0.003424224734
       8        0.000012520500     0.000007119551     0.000001104685
       9        0.000002861350     0.000007280751     0.000010867257
      10       -0.002540763721     0.000637517244     0.002261929612

  **** Optimization is complete! (in 5 steps) ****
    Final optimized geometry and variables:
    Molecular point group: c1

    Geometry (in Angstrom), charge = 0, multiplicity = 1:

    H            2.200569602209    -0.633029987000    -0.208657895755
    O            1.371525790061    -0.518258906028     0.232954315767
    C            0.701686037095     0.606193251581    -0.281292475750
    C           -0.707270099464     0.580659934253     0.267885122810
    H            0.660572587965     0.572592547947    -1.366308331242
    H            1.201226903950     1.526229103655     0.018128520395
    O           -1.428459055162    -0.512862454932    -0.224104589729
    H           -1.233101040462     1.474104259731    -0.047290034921
    H           -0.673199033464     0.576882388000     1.354127932841
    H           -1.186008313607    -1.283791603999     0.269187288943

  Mulliken Charges: (a.u.)
   Center  Symbol    Alpha    Beta     Spin     Total
       1     H     0.27787  0.27787  0.00000  0.44427
       2     O     4.37581  4.37581  0.00000 -0.75161
       3     C     3.00374  3.00374  0.00000 -0.00747
       4     C     3.00385  3.00385  0.00000 -0.00770
       5     H     0.42282  0.42282  0.00000  0.15435
       6     H     0.43169  0.43169  0.00000  0.13661
       7     O     4.36917  4.36917  0.00000 -0.73835
       8     H     0.41726  0.41726  0.00000  0.16548
       9     H     0.42265  0.42265  0.00000  0.15470
      10     H     0.27514  0.27514  0.00000  0.44972

   Total alpha = 17.00000, Total beta = 17.00000, Total charge =  0.00000
