  ==> Input File <==

--------------------------------------------------------------------------
set {
	reference rhf
	basis 6-31G*
}

set_num_threads( 4 )
memory 2 gb

molecule MOL {
0 1

H	 0.244075	 2.501547	 2.169590
C	 -0.236214	 1.572784	 2.501771
C	 -1.466313	 1.178215	 1.724736
O	 0.216975	 0.958654	 3.412383
C	 -1.220012	 1.144545	 0.209990
H	 -1.811166	 0.219304	 2.093892
H	 -2.235247	 1.917381	 1.946162
C	 -0.252658	 0.041456	 -0.226725
H	 -2.173847	 1.006845	 -0.290532
H	 -0.844075	 2.112963	 -0.116499
C	 1.180775	 0.282413	 0.250794
H	 -0.266029	 -0.034465	 -1.312038
H	 -0.597733	 -0.921000	 0.146291
C	 2.148627	 -0.814315	 -0.201312
H	 1.516199	 1.249228	 -0.115937
H	 1.192670	 0.346017	 1.338083
C	 3.580890	 -0.659131	 0.322722
H	 2.166869	 -0.852443	 -1.289387
H	 1.762857	 -1.776509	 0.128956
C	 4.324889	 0.564933	 -0.213704
H	 4.142010	 -1.551473	 0.056605
H	 3.564836	 -0.624694	 1.410140
H	 4.342616	 0.565491	 -1.300421
H	 3.866655	 1.493402	 0.110242
H	 5.353900	 0.572371	 0.132816

	symmetry c1
}
set optking {
	frozen_dihedral = ("
		3 5 8 12
	")
}

ee = optimize('scf')
oeprop('DIPOLE', 'QUADRUPOLE', 'MULLIKEN_CHARGES')
f=open( 'psi4out.xyz', 'w' )
f.write( "25  " )
f.write( str(ee) + "\n" )
f.write( MOL.save_string_xyz() )
f.close()
--------------------------------------------------------------------------

    Molecular point group: c1
  Charge       = 0
  Multiplicity = 1
  Basis Set: 6-31G*
  Basis Set:
  @DF-RHF Final Energy:  -387.11479572684198
    Total Energy =                       -387.1147957268411801
    Molecular point group: c1
  Basis Set: 6-31G*
  Basis Set:
  Basis Set: 6-31G*
  Basis Set:
  @DF-RHF Final Energy:  -387.11818420680470
    Total Energy =                       -387.1181842068046990
  Basis Set: 6-31G*
  Basis Set:
  Basis Set: 6-31G*
  Basis Set:
  @DF-RHF Final Energy:  -387.11873082246478
    Total Energy =                       -387.1187308224643857
  Basis Set: 6-31G*
  Basis Set:
  Basis Set: 6-31G*
  Basis Set:
  @DF-RHF Final Energy:  -387.11898254934374
    Total Energy =                       -387.1189825493435137
  Basis Set: 6-31G*
  Basis Set:
  @DF-RHF Final Energy:  -387.11923422416680
    Total Energy =                       -387.1192342241671440
  @DF-RHF Final Energy:  -387.11937701670774
    Total Energy =                       -387.1193770167070625
  @DF-RHF Final Energy:  -387.11946302938355
    Total Energy =                       -387.1194630293834962
  @DF-RHF Final Energy:  -387.11947964384888
    Total Energy =                       -387.1194796438483081
  @DF-RHF Final Energy:  -387.11949373711121
    Total Energy =                       -387.1194937371114975
  @DF-RHF Final Energy:  -387.11950595092651
    Total Energy =                       -387.1195059509266230
  @DF-RHF Final Energy:  -387.11953232646789
    Total Energy =                       -387.1195323264682884
  Basis Set: 6-31G*
  Basis Set:
  @DF-RHF Final Energy:  -387.11954571342665
    Total Energy =                       -387.1195457134263052
  Basis Set: 6-31G*
  Basis Set:
  Basis Set: 6-31G*
  Basis Set:
  @DF-RHF Final Energy:  -387.11954217621457
    Total Energy =                       -387.1195421762145088
  Basis Set: 6-31G*
  Basis Set:
  Basis Set: 6-31G*
  Basis Set:
  @DF-RHF Final Energy:  -387.11954617463925
    Total Energy =                       -387.1195461746389128
  Basis Set: 6-31G*
  Basis Set:
  Charge       = 0
  Multiplicity = 1
  Basis Set: 6-31G*
  Basis Set:

    Orbital Energies (a.u.)
    -----------------------

    Doubly Occupied:

       1A    -20.561027     2A    -11.326872     3A    -11.235651
       4A    -11.235061     5A    -11.223951     6A    -11.217890
       7A    -11.216161     8A    -11.215265     9A    -11.208395
      10A     -1.401709    11A     -1.102632    12A     -1.067118
      13A     -1.010268    14A     -0.944715    15A     -0.880135
      16A     -0.813050    17A     -0.788726    18A     -0.779884
      19A     -0.662649    20A     -0.654625    21A     -0.640626
      22A     -0.623297    23A     -0.610822    24A     -0.582847
      25A     -0.564661    26A     -0.559824    27A     -0.537048
      28A     -0.523106    29A     -0.508632    30A     -0.504792
      31A     -0.484260    32A     -0.472621    33A     -0.460395
      34A     -0.455551    35A     -0.442721    36A     -0.408879

  @DF-RHF Final Energy:  -387.11954649544538

   => Energetics <=

    Nuclear Repulsion Energy =            453.0190416342822459
    One-Electron Energy =               -1422.4254428169044786
    Two-Electron Energy =                 582.2868546871771969
    DFT Exchange-Correlation Energy =       0.0000000000000000
    Empirical Dispersion Energy =           0.0000000000000000
    PCM Polarization Energy =               0.0000000000000000
    EFP Energy =                            0.0000000000000000
    Total Energy =                       -387.1195464954449790
    Molecular point group: c1
  Basis Set: 6-31G*
  Basis Set:

  -Total Gradient:
     Atom            X                  Y                   Z
    ------   -----------------  -----------------  -----------------
       1        0.000008706245    -0.000008553684     0.000002307594
       2        0.000008246668     0.000002904041     0.000021660753
       3       -0.000149807697    -0.000113749800     0.000006376323
       4       -0.000021722605     0.000015299410    -0.000038425531
       5        0.000180737129     0.000128961681     0.000029749863
       6        0.000007142604    -0.000002184644    -0.000009469461
       7       -0.000003750604    -0.000010714304    -0.000005455645
       8        0.000151813715     0.000154602507    -0.000025677206
       9       -0.000005987686     0.000003828724     0.000002081101
      10        0.000007692630    -0.000006565014     0.000005585582
      11        0.000013737999     0.000001007249    -0.000010423544
      12       -0.000184289613    -0.000172788888     0.000003549875
      13       -0.000004722735     0.000008431565     0.000004366934
      14       -0.000010579495    -0.000001025607     0.000007888899
      15        0.000000769308     0.000011315855     0.000007822881
      16        0.000003338950    -0.000007406395     0.000002600753
      17        0.000005196249     0.000002782384    -0.000009775259
      18       -0.000000990795    -0.000002555325     0.000001610565
      19        0.000003811341    -0.000003277377     0.000001002361
      20       -0.000003815966    -0.000002038067     0.000002500661
      21        0.000002349998     0.000000577181    -0.000000911786
      22       -0.000002025669     0.000000163998    -0.000001420742
      23       -0.000001814109    -0.000000856199     0.000001326940
      24       -0.000004507609     0.000003576475     0.000000689063
      25        0.000000471746    -0.000001735767     0.000000439021

  **** Optimization is complete! (in 15 steps) ****
    Final optimized geometry and variables:
    Molecular point group: c1

    Geometry (in Angstrom), charge = 0, multiplicity = 1:

    H           -0.969455887954     2.255257284625     1.279560729366
    C           -1.350107776164     1.309928260451     1.684887525333
    C           -2.412518936861     0.637161957745     0.852262070864
    O           -0.947584197700     0.900630554245     2.725563091159
    C           -2.110060909494     0.580861598590    -0.653822768165
    H           -2.596875663134    -0.349175720974     1.262861048302
    H           -3.318533215938     1.224433007765     1.001429339609
    C           -1.120885707903    -0.508140810044    -1.088177020257
    H           -3.048539798133     0.411373231102    -1.172549809246
    H           -1.755603454344     1.554296148416    -0.989703938508
    C            0.324961606783    -0.311397495585    -0.622466822150
    H           -1.133719507958    -0.555691636037    -2.174841820452
    H           -1.483539546727    -1.473428377728    -0.740211113984
    C            1.269538485910    -1.368239033944    -1.202988212036
    H            0.658545180280     0.682303668536    -0.913034598168
    H            0.379379104163    -0.353419548861     0.462092439751
    C            2.712633636969    -1.285013491042    -0.693029730927
    H            1.267871365919    -1.294928837180    -2.289473137639
    H            0.875822102732    -2.354150933750    -0.964590395086
    C            3.460477370276    -0.016389007253    -1.107074248779
    H            3.258199227793    -2.148573306802    -1.065428022654
    H            2.715666873238    -1.368688031221     0.391511962043
    H            3.460240336227     0.102304620407    -2.187470784650
    H            3.018117671014     0.875278586506    -0.675372265538
    H            4.494938958904    -0.055673249186    -0.780246260280

  Mulliken Charges: (a.u.)
   Center  Symbol    Alpha    Beta     Spin     Total
       1     H     0.43169  0.43169  0.00000  0.13662
       2     C     2.82786  2.82786  0.00000  0.34427
       3     C     3.20884  3.20884  0.00000 -0.41769
       4     O     4.24182  4.24182  0.00000 -0.48363
       5     C     3.16742  3.16742  0.00000 -0.33485
       6     H     0.39916  0.39916  0.00000  0.20168
       7     H     0.40500  0.40500  0.00000  0.19000
       8     C     3.15131  3.15131  0.00000 -0.30262
       9     H     0.41230  0.41230  0.00000  0.17539
      10     H     0.41971  0.41971  0.00000  0.16058
      11     C     3.16594  3.16594  0.00000 -0.33189
      12     H     0.41903  0.41903  0.00000  0.16193
      13     H     0.41981  0.41981  0.00000  0.16038
      14     C     3.15200  3.15200  0.00000 -0.30400
      15     H     0.42270  0.42270  0.00000  0.15460
      16     H     0.41316  0.41316  0.00000  0.17368
      17     C     3.15318  3.15318  0.00000 -0.30637
      18     H     0.42443  0.42443  0.00000  0.15115
      19     H     0.42114  0.42114  0.00000  0.15773
      20     C     3.24129  3.24129  0.00000 -0.48258
      21     H     0.42080  0.42080  0.00000  0.15839
      22     H     0.41989  0.41989  0.00000  0.16021
      23     H     0.42307  0.42307  0.00000  0.15385
      24     H     0.42008  0.42008  0.00000  0.15983
      25     H     0.41834  0.41834  0.00000  0.16333

   Total alpha = 36.00000, Total beta = 36.00000, Total charge = -0.00000
