  ==> Input File <==

--------------------------------------------------------------------------
set {
	reference rhf
	basis 6-31G*
}

set_num_threads( 4 )
memory 2 gb

molecule MOL {
0 1

O	 -2.324811	 1.361668	 -0.277141
C	 -2.105949	 0.203097	 -0.092081
C	 -0.889235	 -0.467034	 -0.705952
C	 -3.002726	 -0.644460	 0.782455
C	 -1.235301	 -1.878596	 -1.206826
H	 -0.127024	 -0.532644	 0.062836
H	 -0.495143	 0.130644	 -1.522957
C	 -0.021550	 -2.595853	 -1.802614
H	 -1.641539	 -2.442482	 -0.374727
H	 -2.020480	 -1.818259	 -1.958890
C	 -0.326256	 -3.982285	 -2.381421
H	 0.750294	 -2.686546	 -1.040539
H	 0.399885	 -1.975990	 -2.591291
C	 -0.750592	 -5.023492	 -1.344201
H	 0.562608	 -4.341480	 -2.893857
H	 -1.098895	 -3.892297	 -3.142353
H	 -0.000242	 -5.126315	 -0.565018
H	 -0.880057	 -5.996605	 -1.807547
H	 -1.689456	 -4.763732	 -0.866866
H	 -3.496582	 -1.399307	 0.176174
H	 -3.747939	 -0.023774	 1.260148
H	 -2.421318	 -1.168775	 1.535358

	symmetry c1
}
set optking {
	frozen_dihedral = ("
		6 3 2 1
	")
}

ee = optimize('scf')
oeprop('DIPOLE', 'QUADRUPOLE', 'MULLIKEN_CHARGES')
f=open( 'psi4out.xyz', 'w' )
f.write( "22  " )
f.write( str(ee) + "\n" )
f.write( MOL.save_string_xyz() )
f.close()
--------------------------------------------------------------------------

    Molecular point group: c1
  Charge       = 0
  Multiplicity = 1
  Basis Set: 6-31G*
  Basis Set:
  @DF-RHF Final Energy:  -348.09505597765468
    Total Energy =                       -348.0950559776549653
    Molecular point group: c1
  Basis Set: 6-31G*
  Basis Set:
  Basis Set: 6-31G*
  Basis Set:
  @DF-RHF Final Energy:  -348.09666562547875
    Total Energy =                       -348.0966656254786926
  Basis Set: 6-31G*
  Basis Set:
  Basis Set: 6-31G*
  Basis Set:
  @DF-RHF Final Energy:  -348.09630143263894
    Total Energy =                       -348.0963014326388247
  Basis Set: 6-31G*
  Basis Set:
  Basis Set: 6-31G*
  Basis Set:
  @DF-RHF Final Energy:  -348.09737511641674
    Total Energy =                       -348.0973751164167425
  Basis Set: 6-31G*
  Basis Set:
  @DF-RHF Final Energy:  -348.09647334135224
    Total Energy =                       -348.0964733413520662
  @DF-RHF Final Energy:  -348.09724011635279
    Total Energy =                       -348.0972401163527934
  @DF-RHF Final Energy:  -348.09741136449571
    Total Energy =                       -348.0974113644959971
  Basis Set: 6-31G*
  Basis Set:
  @DF-RHF Final Energy:  -348.09741981627178
    Total Energy =                       -348.0974198162721791
  Basis Set: 6-31G*
  Basis Set:
  Basis Set: 6-31G*
  Basis Set:
  @DF-RHF Final Energy:  -348.09744162402495
    Total Energy =                       -348.0974416240246114
  Basis Set: 6-31G*
  Basis Set:
  Basis Set: 6-31G*
  Basis Set:
  @DF-RHF Final Energy:  -348.09744524167093
    Total Energy =                       -348.0974452416708118
  Basis Set: 6-31G*
  Basis Set:
  Charge       = 0
  Multiplicity = 1
  Basis Set: 6-31G*
  Basis Set:

    Orbital Energies (a.u.)
    -----------------------

    Doubly Occupied:

       1A    -20.547228     2A    -11.324663     3A    -11.231959
       4A    -11.230055     5A    -11.227491     6A    -11.224869
       7A    -11.223189     8A    -11.215502     9A     -1.392899
      10A     -1.099071    11A     -1.046185    12A     -0.996585
      13A     -0.941056    14A     -0.863620    15A     -0.789510
      16A     -0.732207    17A     -0.661090    18A     -0.648289
      19A     -0.629332    20A     -0.620667    21A     -0.598661
      22A     -0.587723    23A     -0.555314    24A     -0.546004
      25A     -0.538639    26A     -0.515201    27A     -0.504375
      28A     -0.486508    29A     -0.474295    30A     -0.467202
      31A     -0.464874    32A     -0.396493

  @DF-RHF Final Energy:  -348.09744573333768

   => Energetics <=

    Nuclear Repulsion Energy =            372.7842689152039952
    One-Electron Energy =               -1210.2019185973263120
    Two-Electron Energy =                 489.3202039487845241
    DFT Exchange-Correlation Energy =       0.0000000000000000
    Empirical Dispersion Energy =           0.0000000000000000
    PCM Polarization Energy =               0.0000000000000000
    EFP Energy =                            0.0000000000000000
    Total Energy =                       -348.0974457333378496
    Molecular point group: c1
  Basis Set: 6-31G*
  Basis Set:

  -Total Gradient:
     Atom            X                  Y                   Z
    ------   -----------------  -----------------  -----------------
       1        0.000607777340     0.000252621767     0.000821345081
       2       -0.000704143449    -0.000157167024    -0.001261462635
       3       -0.000289872440    -0.000962773686     0.000722643048
       4        0.000021943556    -0.000016843639     0.000014888996
       5        0.000007189159    -0.000041237529     0.000046175716
       6        0.000392295137     0.000915348680    -0.000342739173
       7       -0.000023828476     0.000076583901     0.000043343268
       8       -0.000012595430     0.000017953209    -0.000010752528
       9       -0.000046464051    -0.000050053886    -0.000013049849
      10        0.000042589412    -0.000022745588     0.000007502266
      11        0.000012457127    -0.000014713370    -0.000014692416
      12        0.000001101424     0.000008978591    -0.000002511150
      13       -0.000001263816     0.000016202693     0.000010285411
      14        0.000002871289     0.000008313447    -0.000010532836
      15       -0.000009992775    -0.000027633596     0.000003548392
      16        0.000006164437    -0.000012325684    -0.000012916726
      17       -0.000003393648     0.000002681742    -0.000004971712
      18       -0.000002447013    -0.000001338430     0.000001591045
      19       -0.000005968570     0.000008099765     0.000006775393
      20       -0.000009082470    -0.000009489530     0.000003499378
      21        0.000014054938     0.000013390984    -0.000010374332
      22        0.000000608319    -0.000003852825     0.000002405360

  **** Optimization is complete! (in 11 steps) ****
    Final optimized geometry and variables:
    Molecular point group: c1

    Geometry (in Angstrom), charge = 0, multiplicity = 1:

    O           -0.935115132304     3.028147755979     0.527817729318
    C           -0.778436580275     1.872779139081     0.782474139853
    C            0.398285084216     1.103121932455     0.206881193701
    C           -1.719666124579     1.148486267753     1.722739879459
    C            0.085065540028    -0.307628189213    -0.304994469473
    H            1.155446660310     1.050052539110     0.989070187474
    H            0.811779360632     1.715815476405    -0.585503680362
    C            1.314282928209    -0.973706358109    -0.929601868814
    H           -0.291776946279    -0.919679050546     0.507958515601
    H           -0.708223525613    -0.254882151357    -1.048536624879
    C            1.048678249356    -2.354431166544    -1.540069616769
    H            2.097670357205    -1.057693870328    -0.178006537777
    H            1.706686626087    -0.321237480262    -1.706027456424
    C            0.661681274841    -3.434330181317    -0.528012599447
    H            1.945280494687    -2.673991998564    -2.064861450109
    H            0.270064652790    -2.269841884826    -2.295259154489
    H            1.416876582913    -3.531486092781     0.247363402458
    H            0.563523331687    -4.399608028177    -1.014638729350
    H           -0.284942382212    -3.218625986060    -0.043425444194
    H           -2.332371829606     0.442527120136     1.169990052313
    H           -2.363722576689     1.869246856773     2.206883554233
    H           -1.169926706198     0.584549317536     2.470117643917

  Mulliken Charges: (a.u.)
   Center  Symbol    Alpha    Beta     Spin     Total
       1     O     4.26229  4.26229  0.00000 -0.52457
       2     C     2.73066  2.73066  0.00000  0.53868
       3     C     3.20735  3.20735  0.00000 -0.41469
       4     C     3.29185  3.29185  0.00000 -0.58369
       5     C     3.16564  3.16564  0.00000 -0.33128
       6     H     0.40871  0.40871  0.00000  0.18258
       7     H     0.39902  0.39902  0.00000  0.20196
       8     C     3.15291  3.15291  0.00000 -0.30581
       9     H     0.41675  0.41675  0.00000  0.16650
      10     H     0.41710  0.41710  0.00000  0.16580
      11     C     3.15327  3.15327  0.00000 -0.30655
      12     H     0.42249  0.42249  0.00000  0.15501
      13     H     0.41803  0.41803  0.00000  0.16393
      14     C     3.24189  3.24189  0.00000 -0.48378
      15     H     0.41857  0.41857  0.00000  0.16286
      16     H     0.42167  0.42167  0.00000  0.15666
      17     H     0.42157  0.42157  0.00000  0.15687
      18     H     0.41716  0.41716  0.00000  0.16568
      19     H     0.42111  0.42111  0.00000  0.15779
      20     H     0.40514  0.40514  0.00000  0.18972
      21     H     0.39587  0.39587  0.00000  0.20825
      22     H     0.41096  0.41096  0.00000  0.17809

   Total alpha = 32.00000, Total beta = 32.00000, Total charge = -0.00000
