  ==> Input File <==

--------------------------------------------------------------------------
set {
	reference rhf
	basis cc-pvtz
}

set_num_threads( 4 )
memory 2 gb

molecule MOL {
0 1

H	 2.933919	 -0.392265	 0.782971
N	 2.433987	 -0.362316	 -0.080024
C	 1.263552	 0.494993	 0.021953
H	 2.170725	 -1.300055	 -0.300647
C	 -0.016533	 -0.325589	 -0.026925
H	 1.280915	 1.180773	 -0.818522
H	 1.263064	 1.106893	 0.925038
C	 -1.280353	 0.525521	 0.047747
H	 -0.016686	 -0.912532	 -0.939714
H	 -0.014099	 -1.037598	 0.796369
C	 -2.560681	 -0.301323	 -0.007747
H	 -1.279957	 1.241025	 -0.770189
H	 -1.270445	 1.110526	 0.963468
H	 -2.617064	 -0.872870	 -0.928010
H	 -3.439525	 0.331102	 0.043462
H	 -2.609427	 -1.002736	 0.818585

	symmetry c1
}
set optking {
	frozen_dihedral = ("
		1 2 3 6
	")
}

ee = optimize('scf')
oeprop('DIPOLE', 'QUADRUPOLE', 'MULLIKEN_CHARGES')
f=open( 'psi4out.xyz', 'w' )
f.write( "16  " )
f.write( str(ee) + "\n" )
f.write( MOL.save_string_xyz() )
f.close()
--------------------------------------------------------------------------

    Molecular point group: c1
  Charge       = 0
  Multiplicity = 1
  Basis Set: CC-PVTZ
  Basis Set:
  @DF-RHF Final Energy:  -212.39574032375583
    Total Energy =                       -212.3957403237560584
    Molecular point group: c1
  Basis Set: CC-PVTZ
  Basis Set:
  Basis Set: CC-PVTZ
  Basis Set:
  @DF-RHF Final Energy:  -212.39681816822844
    Total Energy =                       -212.3968181682284921
  Basis Set: CC-PVTZ
  Basis Set:
  Basis Set: CC-PVTZ
  Basis Set:
  @DF-RHF Final Energy:  -212.39699016431095
    Total Energy =                       -212.3969901643109210
  Basis Set: CC-PVTZ
  Basis Set:
  Basis Set: CC-PVTZ
  Basis Set:
  @DF-RHF Final Energy:  -212.39700677820795
    Total Energy =                       -212.3970067782079809
  Basis Set: CC-PVTZ
  Basis Set:
  Basis Set: CC-PVTZ
  Basis Set:
  @DF-RHF Final Energy:  -212.39700970108197
    Total Energy =                       -212.3970097010820268
  Basis Set: CC-PVTZ
  Basis Set:
  Charge       = 0
  Multiplicity = 1
  Basis Set: CC-PVTZ
  Basis Set:

    Orbital Energies (a.u.)
    -----------------------

    Doubly Occupied:

       1A    -15.522740     2A    -11.237819     3A    -11.215662
       4A    -11.212871     5A    -11.208503     6A     -1.175032
       7A     -1.063189     8A     -0.960844     9A     -0.847871
      10A     -0.797772    11A     -0.671804    12A     -0.633848
      13A     -0.597172    14A     -0.587304    15A     -0.563447
      16A     -0.522480    17A     -0.508977    18A     -0.477592
      19A     -0.472384    20A     -0.465375    21A     -0.374872

  @DF-RHF Final Energy:  -212.39701008852535

   => Energetics <=

    Nuclear Repulsion Energy =            186.4323923228337208
    One-Electron Energy =                -655.4236898641296420
    Two-Electron Energy =                 256.5942874527704021
    DFT Exchange-Correlation Energy =       0.0000000000000000
    Empirical Dispersion Energy =           0.0000000000000000
    PCM Polarization Energy =               0.0000000000000000
    EFP Energy =                            0.0000000000000000
    Total Energy =                       -212.3970100885255192
    Molecular point group: c1
  Basis Set: CC-PVTZ
  Basis Set:

  -Total Gradient:
     Atom            X                  Y                   Z
    ------   -----------------  -----------------  -----------------
       1        0.001208987583     0.001890146615    -0.000573476208
       2       -0.001259276701    -0.002059825644     0.001015112760
       3       -0.000974903689    -0.001230956275    -0.001664508838
       4       -0.000017794432     0.000036577985     0.000002080862
       5        0.000054644179     0.000002915894     0.000003668352
       6        0.001008358548     0.001353511045     0.001214646035
       7        0.000014282618     0.000014985599     0.000016025759
       8       -0.000030608582     0.000006076152    -0.000028551379
       9       -0.000021865556     0.000004406794     0.000015235849
      10       -0.000003275583    -0.000007451927    -0.000001208970
      11        0.000002068578    -0.000000457655     0.000008832257
      12        0.000005061752     0.000003421947    -0.000007732245
      13        0.000008945503    -0.000012067353    -0.000001485176
      14       -0.000002141652     0.000002854969    -0.000005382278
      15        0.000007713000     0.000001604821     0.000005074449
      16       -0.000000195566    -0.000005742967     0.000001668769

  **** Optimization is complete! (in 6 steps) ****
    Final optimized geometry and variables:
    Molecular point group: c1

    Geometry (in Angstrom), charge = 0, multiplicity = 1:

    H            2.962668019818    -0.377026972563     0.799967383882
    N            2.479502511954    -0.323558824469    -0.067889769953
    C            1.267685250096     0.481156735598     0.020929386230
    H            2.299325581939    -1.248806840879    -0.389475159724
    C           -0.022876988756    -0.328168729638    -0.012409027154
    H            1.261153183775     1.208890421918    -0.785511582605
    H            1.300910583980     1.060794415659     0.938126105690
    C           -1.279051890915     0.536177567464     0.034240594419
    H           -0.036851701785    -0.931535632134    -0.918163474394
    H           -0.026721172357    -1.025027876692     0.822452074425
    C           -2.567997330911    -0.277818214780    -0.009292840061
    H           -1.265880871105     1.233842174742    -0.798308933654
    H           -1.265847702829     1.139975373060     0.937623073374
    H           -2.628923299561    -0.865322946940    -0.919321689759
    H           -3.439747495292     0.365193538606     0.027697971422
    H           -2.626724208676    -0.963178544058     0.829699381694

  Mulliken Charges: (a.u.)
   Center  Symbol    Alpha    Beta     Spin     Total
       1     H     0.42651  0.42651  0.00000  0.14698
       2     N     3.70020  3.70020  0.00000 -0.40040
       3     C     3.01727  3.01727  0.00000 -0.03453
       4     H     0.42671  0.42671  0.00000  0.14657
       5     C     3.08746  3.08746  0.00000 -0.17491
       6     H     0.46042  0.46042  0.00000  0.07915
       7     H     0.46149  0.46149  0.00000  0.07703
       8     C     3.08992  3.08992  0.00000 -0.17985
       9     H     0.45710  0.45710  0.00000  0.08580
      10     H     0.45745  0.45745  0.00000  0.08509
      11     C     3.14896  3.14896  0.00000 -0.29791
      12     H     0.45363  0.45363  0.00000  0.09275
      13     H     0.45472  0.45472  0.00000  0.09056
      14     H     0.45479  0.45479  0.00000  0.09043
      15     H     0.44821  0.44821  0.00000  0.10357
      16     H     0.45517  0.45517  0.00000  0.08967

   Total alpha = 21.00000, Total beta = 21.00000, Total charge =  0.00000
