                              Psi4 1.0.54 Driver

  ==> Input File <==

--------------------------------------------------------------------------
set {
	reference rhf
	basis cc-pvtz
}

set_num_threads( 4 )
memory 2 gb

molecule MOL {
0 1

O	 3.219313	 0.959291	 -0.614106
C	 2.698710	 0.058177	 -0.050237
C	 1.246364	 -0.005813	 0.348416
O	 3.344101	 -1.038700	 0.312317
C	 0.453207	 1.232821	 -0.049003
H	 0.839270	 -0.907818	 -0.092281
H	 1.216683	 -0.160521	 1.422434
C	 -0.998367	 1.217982	 0.432195
H	 0.481498	 1.345443	 -1.127236
H	 0.951413	 2.105557	 0.354893
C	 -1.882951	 0.151251	 -0.211235
H	 -1.429490	 2.193659	 0.228843
H	 -1.019755	 1.099323	 1.513279
C	 -3.342450	 0.243269	 0.226009
H	 -1.826223	 0.246578	 -1.293162
H	 -1.508033	 -0.839650	 0.027695
C	 -4.246806	 0.904464	 -0.810204
H	 -3.403155	 0.797738	 1.159400
H	 -3.716369	 -0.755001	 0.441665
C	 -5.702782	 0.994342	 -0.365422
H	 -3.874555	 1.902129	 -1.026569
H	 -4.189429	 0.349841	 -1.742919
H	 -6.316743	 1.467883	 -1.122914
H	 -5.798140	 1.573640	 0.546954
H	 -6.115116	 0.009158	 -0.174107
C	 4.720529	 -1.114346	 0.001449
H	 4.874321	 -1.055557	 -1.065852
H	 5.057824	 -2.067950	 0.373977
H	 5.264321	 -0.313596	 0.480350

	symmetry c1
}
set optking {
	frozen_dihedral = ("
		17 14 11 15
	")
}

ee,wfn = optimize('scf', return_wfn=True)
oeprop( wfn, 'DIPOLE', 'QUADRUPOLE', 'MULLIKEN_CHARGES')
f=open( 'psi4out.xyz', 'w' )
f.write( "29  " )
f.write( str(ee) + "\n" )
f.write( MOL.save_string_xyz() )
f.close()
--------------------------------------------------------------------------

    Molecular point group: c1
  Charge       = 0
  Multiplicity = 1
  Basis Set: CC-PVTZ
  Basis Set:
  @DF-RHF Final Energy:  -501.22030892440102
    Total Energy =                       -501.2203089244021612
    Molecular point group: c1
  Basis Set: CC-PVTZ
  Basis Set:
  Basis Set: CC-PVTZ
  Basis Set:
  @DF-RHF Final Energy:  -501.22056580380809
    Total Energy =                       -501.2205658038080855
  Basis Set: CC-PVTZ
  Basis Set:
  Basis Set: CC-PVTZ
  Basis Set:
  @DF-RHF Final Energy:  -501.22061558809560
    Total Energy =                       -501.2206155880954839
  Basis Set: CC-PVTZ
  Basis Set:
  Basis Set: CC-PVTZ
  Basis Set:
  @DF-RHF Final Energy:  -501.22048449327076
    Total Energy =                       -501.2204844932695096
  Basis Set: CC-PVTZ
  Basis Set:
  Basis Set: CC-PVTZ
  Basis Set:
  @DF-RHF Final Energy:  -501.22063729383797
    Total Energy =                       -501.2206372938376262
  Basis Set: CC-PVTZ
  Basis Set:
  Charge       = 0
  Multiplicity = 1
  Basis Set: CC-PVTZ
  Basis Set:

    Orbital Energies (a.u.)
    -----------------------

    Doubly Occupied:

       1A    -20.595959     2A    -20.533816     3A    -11.364213
       4A    -11.278219     5A    -11.232905     6A    -11.216840
       7A    -11.215682     8A    -11.214019     9A    -11.213584
      10A    -11.212105    11A    -11.206769    12A     -1.471871
      13A     -1.365470    14A     -1.098760    15A     -1.067114
      16A     -1.019570    17A     -0.977449    18A     -0.928753
      19A     -0.862935    20A     -0.805964    21A     -0.786493
      22A     -0.765621    23A     -0.703189    24A     -0.685381
      25A     -0.675790    26A     -0.640035    27A     -0.627811
      28A     -0.615442    29A     -0.597690    30A     -0.580722
      31A     -0.562098    32A     -0.557373    33A     -0.536930
      34A     -0.529567    35A     -0.523301    36A     -0.503172
      37A     -0.496947    38A     -0.480242    39A     -0.473626
      40A     -0.463424    41A     -0.459221    42A     -0.446992
      43A     -0.445240    44A     -0.438966

  @DF-RHF Final Energy:  -501.22063744665206

   => Energetics <=

    Nuclear Repulsion Energy =            612.5883370836879749
    One-Electron Energy =               -1896.6634091432633795
    Two-Electron Energy =                 782.8544346129235691
    DFT Exchange-Correlation Energy =       0.0000000000000000
    Empirical Dispersion Energy =           0.0000000000000000
    PCM Polarization Energy =               0.0000000000000000
    EFP Energy =                            0.0000000000000000
    Total Energy =                       -501.2206374466518355
    Molecular point group: c1
  Basis Set: CC-PVTZ
  Basis Set:

  -Total Gradient:
     Atom            X                  Y                   Z
    ------   -----------------  -----------------  -----------------
       1       -0.000076227972    -0.000105855242    -0.000075234959
       2        0.000111870497     0.000186809700     0.000271899730
       3       -0.000023881456    -0.000045505501    -0.000118829162
       4       -0.000033641895    -0.000040475610    -0.000090699370
       5        0.000059423232     0.000038990809     0.000056608774
       6       -0.000024137352    -0.000000715663     0.000014203820
       7        0.000024175826     0.000016881001    -0.000029374138
       8       -0.000045510489    -0.000037446621    -0.000075525918
       9        0.000000246456     0.000002312686     0.000023503842
      10        0.000018203620    -0.000033425614    -0.000010303698
      11       -0.000496459602    -0.004179169210    -0.000584447963
      12       -0.000012987042    -0.000029379929    -0.000010043636
      13       -0.000006984520    -0.000009588372    -0.000035932716
      14        0.000625213845     0.003368276024     0.001200714284
      15        0.000250225240     0.002901918622     0.000328296087
      16        0.000020348390    -0.000048829239    -0.000015758023
      17       -0.000372451433    -0.001997079112    -0.000867249344
      18       -0.000001032016     0.000020976848    -0.000033820236
      19       -0.000007069423    -0.000004740949    -0.000006890853
      20       -0.000019191713     0.000039817271     0.000006958853
      21       -0.000021933620    -0.000076575889     0.000039071324
      22        0.000009424808    -0.000000737436     0.000019995151
      23        0.000002609877     0.000003161330     0.000023240031
      24       -0.000013597411    -0.000020741482     0.000002415249
      25        0.000042517363     0.000052805314    -0.000031392876
      26        0.000008432147     0.000009771232    -0.000007958314
      27        0.000002408297    -0.000006169395     0.000025052784
      28       -0.000008226418     0.000010537851    -0.000008999813
      29       -0.000011767234    -0.000015823428    -0.000009498909

  **** Optimization is complete! (in 6 steps) ****
    Final optimized geometry and variables:
    Molecular point group: c1

    Geometry (in Angstrom), charge = 0, multiplicity = 1:

    O            3.192730197381     0.729235960492    -0.546340106565
    C            2.704649103138    -0.192177937745     0.013726299572
    C            1.258373353411    -0.304061265658     0.423649170630
    O            3.385675205079    -1.273080648607     0.358628632283
    C            0.424882937888     0.914250237638     0.046349618864
    H            0.874692890931    -1.213004600842    -0.023796279010
    H            1.242405378305    -0.471375664216     1.496044198419
    C           -1.020614954914     0.849758953485     0.540355055778
    H            0.439651635371     1.038027701501    -1.030955044332
    H            0.900419552244     1.797675317532     0.454401070397
    C           -1.875106016827    -0.251439054137    -0.091814944313
    H           -1.487636442251     1.809508468234     0.339199716550
    H           -1.028996682825     0.732549032253     1.621605450428
    C           -3.357092025744    -0.165343749764     0.314035575045
    H           -1.792113200033    -0.160599276118    -1.171424068681
    H           -1.477486217675    -1.223731274818     0.173894633968
    C           -4.245087200085     0.486203721566    -0.744250301798
    H           -3.448976327236     0.379404467531     1.249415709733
    H           -3.740989062136    -1.161871632172     0.511058707583
    C           -5.699919491799     0.618783551895    -0.307962281906
    H           -3.853522757346     1.469258437809    -0.992629558250
    H           -4.193507305551    -0.100378060382    -1.656943011369
    H           -6.303422678685     1.074503020094    -1.084530444671
    H           -5.787566709502     1.232881701514     0.582137461371
    H           -6.129935184283    -0.351338475016    -0.081695273004
    C            4.760663388156    -1.304678478186     0.034139512769
    H            4.902364018063    -1.230303474689    -1.033832301883
    H            5.129601368267    -2.251666623793     0.393275437267
    H            5.285173051500    -0.493198851125     0.516422731169

  Mulliken Charges: (a.u.)
   Center  Symbol    Alpha    Beta     Spin     Total
       1     O     4.19696  4.19696  0.00000 -0.39392
       2     C     2.80520  2.80520  0.00000  0.38960
       3     C     3.10174  3.10174  0.00000 -0.20347
       4     O     4.14718  4.14718  0.00000 -0.29437
       5     C     3.09316  3.09316  0.00000 -0.18632
       6     H     0.43915  0.43915  0.00000  0.12170
       7     H     0.43982  0.43982  0.00000  0.12037
       8     C     3.10205  3.10205  0.00000 -0.20411
       9     H     0.44593  0.44593  0.00000  0.10814
      10     H     0.43968  0.43968  0.00000  0.12064
      11     C     3.10549  3.10549  0.00000 -0.21097
      12     H     0.44445  0.44445  0.00000  0.11110
      13     H     0.45346  0.45346  0.00000  0.09308
      14     C     3.09504  3.09504  0.00000 -0.19009
      15     H     0.45324  0.45324  0.00000  0.09352
      16     H     0.44465  0.44465  0.00000  0.11070
      17     C     3.08084  3.08084  0.00000 -0.16168
      18     H     0.45432  0.45432  0.00000  0.09136
      19     H     0.44830  0.44830  0.00000  0.10340
      20     C     3.15099  3.15099  0.00000 -0.30198
      21     H     0.45436  0.45436  0.00000  0.09128
      22     H     0.45378  0.45378  0.00000  0.09243
      23     H     0.44830  0.44830  0.00000  0.10340
      24     H     0.45481  0.45481  0.00000  0.09039
      25     H     0.45513  0.45513  0.00000  0.08974
      26     C     3.03810  3.03810  0.00000 -0.07620
      27     H     0.45435  0.45435  0.00000  0.09130
      28     H     0.44527  0.44527  0.00000  0.10946
      29     H     0.45425  0.45425  0.00000  0.09150

   Total alpha = 44.00000, Total beta = 44.00000, Total charge = -0.00000

*** Psi4 exiting successfully. Buy a developer a beer!
