  ==> Input File <==

--------------------------------------------------------------------------
set {
	reference rhf
	basis 6-31G*
}

set_num_threads( 4 )
memory 2 gb

molecule MOL {
0 1

H	 2.230341	 -1.068358	 -0.904933
O	 2.016064	 -0.864478	 0.000222
C	 1.050492	 0.053836	 0.000068
C	 -0.318135	 -0.576402	 0.000164
O	 1.285279	 1.218255	 -0.000078
C	 -1.454360	 0.441875	 -0.000474
H	 -0.374042	 -1.230163	 -0.866135
H	 -0.374274	 -1.229227	 0.867154
C	 -2.826123	 -0.230780	 0.000056
H	 -1.357605	 1.085198	 -0.868380
H	 -1.357504	 1.086451	 0.866496
H	 -2.959731	 -0.858053	 -0.876869
H	 -3.619374	 0.509403	 -0.000080
H	 -2.959371	 -0.857318	 0.877556

	symmetry c1
}
set optking {
	frozen_dihedral = ("
		1 2 3 5
	")
}

ee = optimize('scf')
oeprop('DIPOLE', 'QUADRUPOLE', 'MULLIKEN_CHARGES')
f=open( 'psi4out.xyz', 'w' )
f.write( "14  " )
f.write( str(ee) + "\n" )
f.write( MOL.save_string_xyz() )
f.close()
--------------------------------------------------------------------------

    Molecular point group: c1
  Charge       = 0
  Multiplicity = 1
  Basis Set: 6-31G*
  Basis Set:
  @DF-RHF Final Energy:  -305.85768503713985
    Total Energy =                       -305.8576850371396176
    Molecular point group: c1
  Basis Set: 6-31G*
  Basis Set:
  Basis Set: 6-31G*
  Basis Set:
  @DF-RHF Final Energy:  -305.85829061506951
    Total Energy =                       -305.8582906150696772
  Basis Set: 6-31G*
  Basis Set:
  Basis Set: 6-31G*
  Basis Set:
  @DF-RHF Final Energy:  -305.85919131964982
    Total Energy =                       -305.8591913196499945
  Basis Set: 6-31G*
  Basis Set:
  Basis Set: 6-31G*
  Basis Set:
  @DF-RHF Final Energy:  -305.85945441676176
    Total Energy =                       -305.8594544167616505
  Basis Set: 6-31G*
  Basis Set:
  Basis Set: 6-31G*
  Basis Set:
  @DF-RHF Final Energy:  -305.85945778970563
    Total Energy =                       -305.8594577897056865
  Basis Set: 6-31G*
  Basis Set:
  Basis Set: 6-31G*
  Basis Set:
  @DF-RHF Final Energy:  -305.85945967207590
    Total Energy =                       -305.8594596720755590
  Basis Set: 6-31G*
  Basis Set:
  Charge       = 0
  Multiplicity = 1
  Basis Set: 6-31G*
  Basis Set:

    Orbital Energies (a.u.)
    -----------------------

    Doubly Occupied:

       1A    -20.594099     2A    -20.563182     3A    -11.381937
       4A    -11.243547     5A    -11.227145     6A    -11.218809
       7A     -1.460257     8A     -1.367548     9A     -1.083319
      10A     -0.976626    11A     -0.851614    12A     -0.797670
      13A     -0.711158    14A     -0.675123    15A     -0.662600
      16A     -0.629543    17A     -0.579150    18A     -0.559242
      19A     -0.541770    20A     -0.505181    21A     -0.498111
      22A     -0.484037    23A     -0.481392    24A     -0.444525

  @DF-RHF Final Energy:  -305.85945969524516

   => Energetics <=

    Nuclear Repulsion Energy =            239.1018221582347678
    One-Electron Energy =                -890.8473950227578371
    Two-Electron Energy =                 345.8861131692782465
    DFT Exchange-Correlation Energy =       0.0000000000000000
    Empirical Dispersion Energy =           0.0000000000000000
    PCM Polarization Energy =               0.0000000000000000
    EFP Energy =                            0.0000000000000000
    Total Energy =                       -305.8594596952448228
    Molecular point group: c1
  Basis Set: 6-31G*
  Basis Set:

  -Total Gradient:
     Atom            X                  Y                   Z
    ------   -----------------  -----------------  -----------------
       1       -0.001787841427    -0.001942388278    -0.000125598192
       2        0.002180794039     0.002431425024     0.001210030911
       3       -0.000287264858    -0.000434079527    -0.003401676244
       4        0.000000777808     0.000002567325     0.000006118730
       5       -0.000107905405    -0.000056455123     0.002318771943
       6       -0.000001581583    -0.000000176195    -0.000014900810
       7        0.000001975518     0.000001105569    -0.000001878439
       8       -0.000001097662    -0.000001255346    -0.000001242290
       9        0.000000689530    -0.000000460405     0.000010282134
      10        0.000003849253    -0.000003511850    -0.000000129436
      11       -0.000002852846     0.000003795351     0.000000908891
      12       -0.000000620756     0.000003778779    -0.000002713298
      13        0.000001142663     0.000000078087     0.000003550174
      14       -0.000000064276    -0.000004423408    -0.000001524073

  **** Optimization is complete! (in 7 steps) ****
    Final optimized geometry and variables:
    Molecular point group: c1

    Geometry (in Angstrom), charge = 0, multiplicity = 1:

    H            2.355352088274    -1.080322901359    -0.861942988072
    O            2.057573721692    -0.863533597334     0.013274667696
    C            1.055285151908     0.060156922544    -0.011079011090
    C           -0.319791658777    -0.560275859242    -0.004236593613
    O            1.279888487221     1.217474830007     0.026097455328
    C           -1.458102820804     0.455058464555     0.006928353486
    H           -0.389029751589    -1.218012191455    -0.868723642095
    H           -0.365612584936    -1.216137997457     0.861529280259
    C           -2.829635747719    -0.218073281246     0.021469814995
    H           -1.371873632460     1.100408427910    -0.861068691786
    H           -1.351751339953     1.098267681778     0.873673436284
    H           -2.973256806445    -0.843971201530    -0.854996581583
    H           -3.623231066176     0.521635739418     0.031564151867
    H           -2.952570543639    -0.846083246174     0.899329025442

  Mulliken Charges: (a.u.)
   Center  Symbol    Alpha    Beta     Spin     Total
       1     H     0.26623  0.26623  0.00000  0.46753
       2     O     4.37021  4.37021  0.00000 -0.74042
       3     C     2.63030  2.63030  0.00000  0.73940
       4     C     3.20901  3.20901  0.00000 -0.41801
       5     O     4.24506  4.24506  0.00000 -0.49011
       6     C     3.15263  3.15263  0.00000 -0.30527
       7     H     0.41008  0.41008  0.00000  0.17985
       8     H     0.39693  0.39693  0.00000  0.20613
       9     C     3.24286  3.24286  0.00000 -0.48572
      10     H     0.41210  0.41210  0.00000  0.17581
      11     H     0.40848  0.40848  0.00000  0.18303
      12     H     0.42182  0.42182  0.00000  0.15636
      13     H     0.41408  0.41408  0.00000  0.17184
      14     H     0.42021  0.42021  0.00000  0.15958

   Total alpha = 24.00000, Total beta = 24.00000, Total charge = -0.00000
