  ==> Input File <==

--------------------------------------------------------------------------
set {
	reference rhf
	basis 6-31G*
}

set_num_threads( 4 )
memory 2 gb

molecule MOL {
0 1

H	 -2.630943	 -0.696935	 -1.182893
O	 -2.310168	 -0.871793	 -0.309793
C	 -2.026376	 0.340750	 0.341611
C	 -0.673256	 0.843270	 -0.132153
H	 -2.792215	 1.080697	 0.115987
H	 -2.013526	 0.200402	 1.421792
C	 0.486613	 -0.083066	 0.235839
H	 -0.715586	 0.970948	 -1.210718
H	 -0.508072	 1.829858	 0.297090
C	 1.840406	 0.433480	 -0.254303
H	 0.300215	 -1.068318	 -0.178947
H	 0.519509	 -0.203625	 1.318070
C	 3.000220	 -0.489290	 0.118523
H	 1.809207	 0.553576	 -1.335192
H	 2.021860	 1.424500	 0.157276
H	 2.864959	 -1.479103	 -0.307933
H	 3.946603	 -0.099227	 -0.243630
H	 3.080049	 -0.602997	 1.196117

	symmetry c1
}
set optking {
	frozen_dihedral = ("
		1 2 3 4
	")
}

ee = optimize('scf')
oeprop('DIPOLE', 'QUADRUPOLE', 'MULLIKEN_CHARGES')
f=open( 'psi4out.xyz', 'w' )
f.write( "18  " )
f.write( str(ee) + "\n" )
f.write( MOL.save_string_xyz() )
f.close()
--------------------------------------------------------------------------

    Molecular point group: c1
  Charge       = 0
  Multiplicity = 1
  Basis Set: 6-31G*
  Basis Set:
  @DF-RHF Final Energy:  -271.17782720305240
    Total Energy =                       -271.1778272030526864
    Molecular point group: c1
  Basis Set: 6-31G*
  Basis Set:
  Basis Set: 6-31G*
  Basis Set:
  @DF-RHF Final Energy:  -271.17921870349244
    Total Energy =                       -271.1792187034923245
  Basis Set: 6-31G*
  Basis Set:
  Basis Set: 6-31G*
  Basis Set:
  @DF-RHF Final Energy:  -271.17950935801252
    Total Energy =                       -271.1795093580121829
  Basis Set: 6-31G*
  Basis Set:
  Charge       = 0
  Multiplicity = 1
  Basis Set: 6-31G*
  Basis Set:

    Orbital Energies (a.u.)
    -----------------------

    Doubly Occupied:

       1A    -20.553530     2A    -11.268135     3A    -11.215304
       4A    -11.213529     5A    -11.209352     6A    -11.206472
       7A     -1.359998     8A     -1.077006     9A     -1.009551
      10A     -0.915184    11A     -0.826414    12A     -0.790651
      13A     -0.685994    14A     -0.650896    15A     -0.610107
      16A     -0.605538    17A     -0.574429    18A     -0.551221
      19A     -0.534166    20A     -0.494480    21A     -0.490730
      22A     -0.472980    23A     -0.461284    24A     -0.456136
      25A     -0.423145

  @DF-RHF Final Energy:  -271.17950923864930

   => Energetics <=

    Nuclear Repulsion Energy =            248.6825079948722532
    One-Electron Energy =                -860.4115658803261795
    Two-Electron Energy =                 340.5495486468046238
    DFT Exchange-Correlation Energy =       0.0000000000000000
    Empirical Dispersion Energy =           0.0000000000000000
    PCM Polarization Energy =               0.0000000000000000
    EFP Energy =                            0.0000000000000000
    Total Energy =                       -271.1795092386493025
    Molecular point group: c1
  Basis Set: 6-31G*
  Basis Set:

  -Total Gradient:
     Atom            X                  Y                   Z
    ------   -----------------  -----------------  -----------------
       1       -0.001309720899     0.000177607844     0.000489793175
       2        0.001702560376    -0.000205402892    -0.000195693876
       3       -0.000697584716     0.000716370584    -0.000713314338
       4        0.000424580119    -0.000416752422     0.000593264834
       5       -0.000033125251    -0.000111901652    -0.000041530384
       6       -0.000077338314    -0.000128541391    -0.000023423348
       7       -0.000020384626    -0.000093156421    -0.000047961577
       8        0.000027996317    -0.000009679726    -0.000044145649
       9       -0.000027446324    -0.000045129854    -0.000050743266
      10        0.000038149599     0.000043149235     0.000070958266
      11       -0.000015430938     0.000056357146    -0.000066773115
      12       -0.000019522660    -0.000004718769    -0.000006138492
      13        0.000008379716     0.000024718431     0.000030920641
      14       -0.000015861681    -0.000041962476     0.000023797677
      15        0.000011274490     0.000036447372    -0.000025759132
      16       -0.000008185702     0.000005705960    -0.000001859796
      17        0.000004246709     0.000002129637     0.000005959980
      18        0.000007413790    -0.000005240601     0.000002648400

  **** Optimization is complete! (in 4 steps) ****
    Final optimized geometry and variables:
    Molecular point group: c1

    Geometry (in Angstrom), charge = 0, multiplicity = 1:

    H           -2.691164627971    -0.754357488851    -1.127368339465
    O           -2.364179374248    -0.896973839277    -0.250586848392
    C           -2.024021970679     0.338227238740     0.328624708616
    C           -0.664270555035     0.851648079042    -0.131254470193
    H           -2.794321658791     1.079029145456     0.124433666166
    H           -2.014173053643     0.172403564804     1.399290498081
    C            0.490443421675    -0.083016204187     0.229735063390
    H           -0.688524806445     1.004832288955    -1.209962067971
    H           -0.499913272923     1.831832626778     0.313673818231
    C            1.850981561232     0.432552064767    -0.242561224606
    H            0.301592505626    -1.062796659084    -0.197660903799
    H            0.513655630844    -0.218815755813     1.310065924100
    C            3.003698797047    -0.496983653298     0.135431049303
    H            1.832022725524     0.561134076138    -1.322938273477
    H            2.031320749066     1.419874248081     0.178146383001
    H            2.868900363106    -1.483760666960    -0.298233372975
    H            3.954841922835    -0.108140495962    -0.215214129164
    H            3.072571249079    -0.617615092426     1.212872913254

  Mulliken Charges: (a.u.)
   Center  Symbol    Alpha    Beta     Spin     Total
       1     H     0.28230  0.28230  0.00000  0.43540
       2     O     4.36870  4.36870  0.00000 -0.73740
       3     C     3.00003  3.00003  0.00000 -0.00006
       4     C     3.16345  3.16345  0.00000 -0.32690
       5     H     0.42819  0.42819  0.00000  0.14361
       6     H     0.41685  0.41685  0.00000  0.16631
       7     C     3.15178  3.15178  0.00000 -0.30356
       8     H     0.42742  0.42742  0.00000  0.14517
       9     H     0.42411  0.42411  0.00000  0.15177
      10     C     3.15140  3.15140  0.00000 -0.30279
      11     H     0.41059  0.41059  0.00000  0.17881
      12     H     0.42472  0.42472  0.00000  0.15056
      13     C     3.23896  3.23896  0.00000 -0.47792
      14     H     0.42413  0.42413  0.00000  0.15173
      15     H     0.42461  0.42461  0.00000  0.15079
      16     H     0.42093  0.42093  0.00000  0.15814
      17     H     0.42015  0.42015  0.00000  0.15971
      18     H     0.42168  0.42168  0.00000  0.15663

   Total alpha = 25.00000, Total beta = 25.00000, Total charge = -0.00000
