  ==> Input File <==

--------------------------------------------------------------------------
set {
	reference rhf
	basis 6-31G*
}

set_num_threads( 4 )
memory 2 gb

molecule MOL {
0 1

H	 -3.420663	 1.227371	 -1.044276
O	 -3.452007	 0.283848	 -0.965577
C	 -3.181085	 -0.079926	 0.364119
C	 -1.765924	 0.277073	 0.805136
H	 -3.327791	 -1.152017	 0.410903
H	 -3.905698	 0.375695	 1.036898
C	 -1.377840	 1.724187	 0.498915
H	 -1.669810	 0.089353	 1.874942
H	 -1.072541	 -0.404066	 0.314738
C	 0.035621	 2.078329	 0.965705
H	 -2.095844	 2.392085	 0.964847
H	 -1.456209	 1.892539	 -0.573889
C	 0.419067	 3.526658	 0.650434
H	 0.110080	 1.898768	 2.035580
H	 0.751868	 1.407419	 0.492974
C	 1.858398	 3.904101	 1.019242
H	 -0.269426	 4.199757	 1.158971
H	 0.279452	 3.699436	 -0.414682
C	 2.155477	 3.887719	 2.519869
H	 2.062089	 4.900687	 0.635033
H	 2.547859	 3.235683	 0.507320
H	 1.472491	 4.538261	 3.059743
H	 3.165376	 4.234408	 2.716715
H	 2.066327	 2.891832	 2.941088

	symmetry c1
}
set optking {
	frozen_dihedral = ("
		7 4 3 2
	")
}

ee = optimize('scf')
oeprop('DIPOLE', 'QUADRUPOLE', 'MULLIKEN_CHARGES')
f=open( 'psi4out.xyz', 'w' )
f.write( "24  " )
f.write( str(ee) + "\n" )
f.write( MOL.save_string_xyz() )
f.close()
--------------------------------------------------------------------------

    Molecular point group: c1
  Charge       = 0
  Multiplicity = 1
  Basis Set: 6-31G*
  Basis Set:
  @DF-RHF Final Energy:  -349.24589512841470
    Total Energy =                       -349.2458951284138493
    Molecular point group: c1
  Basis Set: 6-31G*
  Basis Set:
  Basis Set: 6-31G*
  Basis Set:
  @DF-RHF Final Energy:  -349.24611397146180
    Total Energy =                       -349.2461139714617957
  Basis Set: 6-31G*
  Basis Set:
  Basis Set: 6-31G*
  Basis Set:
  @DF-RHF Final Energy:  -349.24631789893135
    Total Energy =                       -349.2463178989312382
  Basis Set: 6-31G*
  Basis Set:
  Charge       = 0
  Multiplicity = 1
  Basis Set: 6-31G*
  Basis Set:

    Orbital Energies (a.u.)
    -----------------------

    Doubly Occupied:

       1A    -20.552424     2A    -11.267424     3A    -11.219703
       4A    -11.216694     5A    -11.216457     6A    -11.215622
       7A    -11.215386     8A    -11.209429     9A     -1.359705
      10A     -1.092154    11A     -1.049915    12A     -0.987541
      13A     -0.919573    14A     -0.853573    15A     -0.795322
      16A     -0.780147    17A     -0.695102    18A     -0.651026
      19A     -0.625586    20A     -0.611606    21A     -0.601974
      22A     -0.588609    23A     -0.562900    24A     -0.538007
      25A     -0.523039    26A     -0.512551    27A     -0.488381
      28A     -0.488156    29A     -0.472731    30A     -0.462679
      31A     -0.456861    32A     -0.445513    33A     -0.422108

  @DF-RHF Final Energy:  -349.24631877703558

   => Energetics <=

    Nuclear Repulsion Energy =            384.9663625775194191
    One-Electron Energy =               -1236.2295655681841708
    Two-Electron Energy =                 502.0168842136293961
    DFT Exchange-Correlation Energy =       0.0000000000000000
    Empirical Dispersion Energy =           0.0000000000000000
    PCM Polarization Energy =               0.0000000000000000
    EFP Energy =                            0.0000000000000000
    Total Energy =                       -349.2463187770352988
    Molecular point group: c1
  Basis Set: 6-31G*
  Basis Set:

  -Total Gradient:
     Atom            X                  Y                   Z
    ------   -----------------  -----------------  -----------------
       1        0.000000628841    -0.000079830695     0.000080886643
       2       -0.000720039809     0.002501048180     0.000946238327
       3        0.001400471776    -0.003621536481    -0.002238430318
       4       -0.001454903598     0.001941621312     0.003751940691
       5        0.000115024952     0.000057951053     0.000009074114
       6        0.000040584505     0.000036126005     0.000093725915
       7        0.000682820798    -0.000977088803    -0.002599684066
       8       -0.000117968420    -0.000028456218    -0.000009949650
       9       -0.000011431218     0.000167236869    -0.000100998686
      10        0.000128831620    -0.000101363923     0.000003384163
      11       -0.000106530110     0.000183544719    -0.000019736082
      12        0.000018622983    -0.000112537370     0.000007694391
      13       -0.000053782275     0.000040963104     0.000107973618
      14        0.000083004300    -0.000046259664    -0.000014472255
      15        0.000027009105     0.000027136584    -0.000071432784
      16       -0.000021238784     0.000015348434     0.000059097243
      17       -0.000030874931     0.000045211935    -0.000025805466
      18        0.000045400695    -0.000037217042     0.000029627353
      19        0.000011009903     0.000005741973    -0.000002455601
      20       -0.000002590389     0.000000369252     0.000001235151
      21       -0.000022037670    -0.000004266873     0.000001767756
      22       -0.000000132249    -0.000001496665    -0.000001910635
      23       -0.000000175190     0.000001627942     0.000004595651
      24       -0.000011704838    -0.000013873625    -0.000012365467

  **** Optimization is complete! (in 4 steps) ****
    Final optimized geometry and variables:
    Molecular point group: c1

    Geometry (in Angstrom), charge = 0, multiplicity = 1:

    H           -2.892253109351    -0.708273538577    -1.697899481847
    O           -2.805593012957    -1.648421595594    -1.639998532005
    C           -2.471452802393    -2.007674073120    -0.324292301314
    C           -1.035899392236    -1.653765290728     0.060238095199
    H           -2.618858765613    -3.077452882301    -0.256806946980
    H           -3.164231216778    -1.541831925726     0.376021153632
    C           -0.642743275567    -0.209704114221    -0.256872342915
    H           -0.911951412157    -1.850137312359     1.123420252816
    H           -0.356438062394    -2.321138376377    -0.464408561264
    C            0.762993403309     0.147331771795     0.232214805097
    H           -1.360737606072     0.475916946614     0.195942916123
    H           -0.694687886303    -0.053436538463    -1.330798052492
    C            1.151398723383     1.595241545674    -0.078356649134
    H            0.820866445700    -0.032484328587     1.302480664355
    H            1.483545267528    -0.524719763389    -0.231153943609
    C            2.580859266640     1.975252764631     0.324694600521
    H            0.450486890023     2.269748718411     0.411495878619
    H            1.038227728157     1.764267345959    -1.147273941939
    C            2.840166662445     1.965869773010     1.832324122747
    H            2.793389914491     2.970046906316    -0.059084596522
    H            3.282751542565     1.304767820170    -0.166938355067
    H            2.143715139708     2.618498057431     2.352112330267
    H            3.844591865666     2.314207725423     2.052449151619
    H            2.741290020332     0.971917463950     2.255776418796

  Mulliken Charges: (a.u.)
   Center  Symbol    Alpha    Beta     Spin     Total
       1     H     0.27916  0.27916  0.00000  0.44168
       2     O     4.37043  4.37043  0.00000 -0.74087
       3     C     2.99734  2.99734  0.00000  0.00532
       4     C     3.16101  3.16101  0.00000 -0.32202
       5     H     0.41432  0.41432  0.00000  0.17137
       6     H     0.43214  0.43214  0.00000  0.13572
       7     C     3.16456  3.16456  0.00000 -0.32912
       8     H     0.42372  0.42372  0.00000  0.15257
       9     H     0.41702  0.41702  0.00000  0.16597
      10     C     3.15257  3.15257  0.00000 -0.30514
      11     H     0.42770  0.42770  0.00000  0.14460
      12     H     0.41835  0.41835  0.00000  0.16331
      13     C     3.15273  3.15273  0.00000 -0.30545
      14     H     0.42122  0.42122  0.00000  0.15756
      15     H     0.42199  0.42199  0.00000  0.15602
      16     C     3.15253  3.15253  0.00000 -0.30505
      17     H     0.42486  0.42486  0.00000  0.15028
      18     H     0.42210  0.42210  0.00000  0.15579
      19     C     3.24128  3.24128  0.00000 -0.48256
      20     H     0.42078  0.42078  0.00000  0.15844
      21     H     0.42278  0.42278  0.00000  0.15444
      22     H     0.42247  0.42247  0.00000  0.15506
      23     H     0.41891  0.41891  0.00000  0.16219
      24     H     0.42004  0.42004  0.00000  0.15992

   Total alpha = 33.00000, Total beta = 33.00000, Total charge =  0.00000
