  ==> Input File <==

--------------------------------------------------------------------------
set {
	reference rhf
	basis cc-pvtz
}

set_num_threads( 4 )
memory 2 gb

molecule MOL {
0 1

O	 0.749630	 1.305591	 -0.000460
C	 0.576499	 0.134701	 -0.003900
C	 -0.765656	 -0.550508	 -0.002152
O	 1.564816	 -0.744612	 -0.000631
C	 -1.945526	 0.411052	 0.000603
H	 -0.794329	 -1.203792	 -0.868145
H	 -0.791555	 -1.205429	 0.862701
C	 -2.883076	 0.172720	 -1.178007
H	 -1.576634	 1.429317	 -0.020589
H	 -2.488944	 0.307082	 0.931874
H	 -2.368402	 0.302522	 -2.124354
H	 -3.714303	 0.867040	 -1.156939
H	 -3.291830	 -0.832238	 -1.160467
C	 2.884339	 -0.237801	 0.002883
H	 3.064150	 0.362814	 -0.876312
H	 3.533055	 -1.098529	 0.004958
H	 3.059365	 0.363432	 0.882614

	symmetry c1
}
set optking {
	frozen_dihedral = ("
		9 5 3 6
	")
}

ee = optimize('scf')
oeprop('DIPOLE', 'QUADRUPOLE', 'MULLIKEN_CHARGES')
f=open( 'psi4out.xyz', 'w' )
f.write( "17  " )
f.write( str(ee) + "\n" )
f.write( MOL.save_string_xyz() )
f.close()
--------------------------------------------------------------------------

    Molecular point group: c1
  Charge       = 0
  Multiplicity = 1
  Basis Set: CC-PVTZ
  Basis Set:
  @DF-RHF Final Energy:  -345.03026144239055
    Total Energy =                       -345.0302614423906107
    Molecular point group: c1
  Basis Set: CC-PVTZ
  Basis Set:
  Basis Set: CC-PVTZ
  Basis Set:
  @DF-RHF Final Energy:  -345.03032338485048
    Total Energy =                       -345.0303233848505329
  Basis Set: CC-PVTZ
  Basis Set:
  Basis Set: CC-PVTZ
  Basis Set:
  @DF-RHF Final Energy:  -345.02859379749697
    Total Energy =                       -345.0285937974967965
  Basis Set: CC-PVTZ
  Basis Set:
  Basis Set: CC-PVTZ
  Basis Set:
  @DF-RHF Final Energy:  -345.03065354689159
    Total Energy =                       -345.0306535468911875
  Basis Set: CC-PVTZ
  Basis Set:
  Basis Set: CC-PVTZ
  Basis Set:
  @DF-RHF Final Energy:  -345.03066758341760
    Total Energy =                       -345.0306675834174257
  Basis Set: CC-PVTZ
  Basis Set:
  Basis Set: CC-PVTZ
  Basis Set:
  @DF-RHF Final Energy:  -345.03066917718274
    Total Energy =                       -345.0306691771825172
  Basis Set: CC-PVTZ
  Basis Set:
  Charge       = 0
  Multiplicity = 1
  Basis Set: CC-PVTZ
  Basis Set:

    Orbital Energies (a.u.)
    -----------------------

    Doubly Occupied:

       1A    -20.596911     2A    -20.535386     3A    -11.365955
       4A    -11.278985     5A    -11.234260     6A    -11.218275
       7A    -11.211484     8A     -1.473265     9A     -1.366798
      10A     -1.078453    11A     -1.002538    12A     -0.939627
      13A     -0.829110    14A     -0.768943    15A     -0.704478
      16A     -0.685251    17A     -0.676801    18A     -0.628536
      19A     -0.603638    20A     -0.571912    21A     -0.571414
      22A     -0.533287    23A     -0.525940    24A     -0.490357
      25A     -0.486118    26A     -0.474902    27A     -0.461925
      28A     -0.443671

  @DF-RHF Final Energy:  -345.03067006448731

   => Energetics <=

    Nuclear Repulsion Energy =            313.8140692371158025
    One-Electron Energy =               -1092.1730345245555327
    Two-Electron Energy =                 433.3282952229529883
    DFT Exchange-Correlation Energy =       0.0000000000000000
    Empirical Dispersion Energy =           0.0000000000000000
    PCM Polarization Energy =               0.0000000000000000
    EFP Energy =                            0.0000000000000000
    Total Energy =                       -345.0306700644867988
    Molecular point group: c1
  Basis Set: CC-PVTZ
  Basis Set:

  -Total Gradient:
     Atom            X                  Y                   Z
    ------   -----------------  -----------------  -----------------
       1        0.000021531403    -0.000015845302     0.000040958008
       2       -0.000065034453     0.000034936601    -0.000045830906
       3        0.000227934417     0.000363781117    -0.000239815842
       4        0.000038575577     0.000011256757    -0.000004159205
       5       -0.000063551675    -0.000088606073    -0.000435936162
       6       -0.000232633216    -0.000294602460     0.000231209484
       7       -0.000018204340     0.000007790239     0.000040702226
       8        0.000035709140    -0.000025388655    -0.000011068279
       9        0.000028356202     0.000010599725     0.000415876922
      10        0.000014600800    -0.000005703742    -0.000000993037
      11       -0.000011484178    -0.000002313020    -0.000003678664
      12        0.000006873652     0.000002448892     0.000014107999
      13        0.000005148167     0.000004957242    -0.000003131209
      14        0.000011451487    -0.000003356816    -0.000006429848
      15        0.000001993628    -0.000000723411     0.000001728133
      16       -0.000000272563     0.000001170463     0.000002876535
      17       -0.000000994042    -0.000000401562     0.000003583845

  **** Optimization is complete! (in 7 steps) ****
    Final optimized geometry and variables:
    Molecular point group: c1

    Geometry (in Angstrom), charge = 0, multiplicity = 1:

    O            0.716100817601     1.238916584177     0.145343559732
    C            0.527865913585     0.070694578912     0.167747445636
    C           -0.817858291430    -0.614127133632     0.167447386299
    O            1.507845101949    -0.817735058112     0.192783477688
    C           -2.025539514847     0.333337640578     0.171639478651
    H           -0.827781632485    -1.266126031543    -0.699197026036
    H           -0.825117430538    -1.279021595464     1.022945929748
    C           -2.973670887128     0.098971364925    -1.000529887489
    H           -1.672719062688     1.354314346779     0.155633710937
    H           -2.570972711667     0.211652157150     1.100294007443
    H           -2.468456398414     0.258004640422    -1.947336084126
    H           -3.817066540723     0.777958434207    -0.957813144021
    H           -3.363544360295    -0.913722170177    -0.998846495080
    C            2.832240640952    -0.324387660934     0.190329150796
    H            3.021726567292     0.255230948919    -0.700925953377
    H            3.472535169684    -1.191192221867     0.213535276934
    H            3.010388048618     0.294002398136     1.057520385040

  Mulliken Charges: (a.u.)
   Center  Symbol    Alpha    Beta     Spin     Total
       1     O     4.19620  4.19620  0.00000 -0.39239
       2     C     2.80160  2.80160  0.00000  0.39680
       3     C     3.10640  3.10640  0.00000 -0.21280
       4     O     4.14752  4.14752  0.00000 -0.29504
       5     C     3.08946  3.08946  0.00000 -0.17893
       6     H     0.43948  0.43948  0.00000  0.12104
       7     H     0.43455  0.43455  0.00000  0.13091
       8     C     3.14889  3.14889  0.00000 -0.29778
       9     H     0.43564  0.43564  0.00000  0.12871
      10     H     0.45203  0.45203  0.00000  0.09595
      11     H     0.45385  0.45385  0.00000  0.09230
      12     H     0.44804  0.44804  0.00000  0.10393
      13     H     0.45604  0.45604  0.00000  0.08791
      14     C     3.03621  3.03621  0.00000 -0.07241
      15     H     0.45441  0.45441  0.00000  0.09118
      16     H     0.44544  0.44544  0.00000  0.10912
      17     H     0.45424  0.45424  0.00000  0.09152

   Total alpha = 28.00000, Total beta = 28.00000, Total charge =  0.00000
