  ==> Input File <==

--------------------------------------------------------------------------
set {
	reference rhf
	basis 6-31G*
}

set_num_threads( 1 )
memory 2 gb

molecule MOL {
0 1

H	 3.066681	 -2.195675	 2.713287
O	 3.802093	 -2.182941	 2.118242
C	 3.500498	 -2.943896	 0.976295
C	 2.498116	 -2.265290	 0.049229
H	 4.440883	 -3.083201	 0.458661
H	 3.138978	 -3.931348	 1.260939
C	 1.113937	 -2.062863	 0.670469
H	 2.905508	 -1.304727	 -0.255267
H	 2.405446	 -2.870400	 -0.851115
C	 0.115918	 -1.429151	 -0.302766
H	 1.206967	 -1.436861	 1.553550
H	 0.723932	 -3.023687	 1.006705
C	 -1.309753	 -1.282496	 0.241564
H	 0.486096	 -0.452649	 -0.609782
H	 0.079185	 -2.036217	 -1.204887
C	 -2.037799	 -0.007733	 -0.193645
H	 -1.890610	 -2.142323	 -0.085726
H	 -1.285946	 -1.330893	 1.329189
C	 -3.489788	 0.042957	 0.286558
H	 -2.017067	 0.064384	 -1.280144
H	 -1.513726	 0.868678	 0.179924
C	 -4.216917	 1.317354	 -0.141063
H	 -4.025645	 -0.823308	 -0.095450
H	 -3.513059	 -0.038752	 1.371301
H	 -4.239342	 1.411634	 -1.223113
H	 -5.243387	 1.322503	 0.212445
H	 -3.726170	 2.201406	 0.256408

	symmetry c1
}
set optking {
	frozen_dihedral = ("
		14 10 7 4,
		10 7 4 8,
		8 4 3 2,
		10 13 16 20,
		20 16 19 22,
		4 3 2 1
	")
}

ee = energy('scf')
oeprop('DIPOLE', 'QUADRUPOLE', 'MULLIKEN_CHARGES')
f=open( 'psi4out.xyz', 'w' )
f.write( "27  " )
f.write( str(ee) + "\n" )
f.write( MOL.save_string_xyz() )
f.close()
--------------------------------------------------------------------------

    Molecular point group: c1

    Geometry (in Angstrom), charge = 0, multiplicity = 1:

       Center              X                  Y                   Z               Mass
    ------------   -----------------  -----------------  -----------------  -----------------
           H          3.021858689789    -0.985877458824     2.269943977147     1.007825032070
           O          3.757270689789    -0.973143458824     1.674898977147    15.994914619560
           C          3.455675689789    -1.734098458824     0.532951977147    12.000000000000
           C          2.453293689789    -1.055492458824    -0.394114022853    12.000000000000
           H          4.396060689789    -1.873403458824     0.015317977147     1.007825032070
           H          3.094155689789    -2.721550458824     0.817595977147     1.007825032070
           C          1.069114689789    -0.853065458824     0.227125977147    12.000000000000
           H          2.860685689789    -0.094929458824    -0.698610022853     1.007825032070
           H          2.360623689789    -1.660602458824    -1.294458022853     1.007825032070
           C          0.071095689789    -0.219353458824    -0.746109022853    12.000000000000
           H          1.162144689789    -0.227063458824     1.110206977147     1.007825032070
           H          0.679109689789    -1.813889458824     0.563361977147     1.007825032070
           C         -1.354575310211    -0.072698458824    -0.201779022853    12.000000000000
           H          0.441273689789     0.757148541176    -1.053125022853     1.007825032070
           H          0.034362689789    -0.826419458824    -1.648230022853     1.007825032070
           C         -2.082621310211     1.202064541176    -0.636988022853    12.000000000000
           H         -1.935432310211    -0.932525458824    -0.529069022853     1.007825032070
           H         -1.330768310211    -0.121095458824     0.885845977147     1.007825032070
           C         -3.534610310211     1.252754541176    -0.156785022853    12.000000000000
           H         -2.061889310211     1.274181541176    -1.723487022853     1.007825032070
           H         -1.558548310211     2.078475541176    -0.263419022853     1.007825032070
           C         -4.261739310211     2.527151541176    -0.584406022853    12.000000000000
           H         -4.070467310211     0.386489541176    -0.538793022853     1.007825032070
           H         -3.557881310211     1.171045541176     0.927957977147     1.007825032070
           H         -4.284164310211     2.621431541176    -1.666456022853     1.007825032070
           H         -5.288209310211     2.532300541176    -0.230898022853     1.007825032070
           H         -3.770992310211     3.411203541176    -0.186935022853     1.007825032070

  Charge       = 0
  Multiplicity = 1
  Basis Set: 6-31G*
  Basis Set:

    Orbital Energies (a.u.)
    -----------------------

    Doubly Occupied:

       1A    -20.552339     2A    -11.267146     3A    -11.220959
       4A    -11.216253     5A    -11.215624     6A    -11.215195
       7A    -11.214890     8A    -11.214334     9A    -11.209007
      10A     -1.359105    11A     -1.093971    12A     -1.062695
      13A     -1.011409    14A     -0.950351    15A     -0.883719
      16A     -0.819704    17A     -0.792203    18A     -0.789979
      19A     -0.694274    20A     -0.653773    21A     -0.638452
      22A     -0.613147    23A     -0.598865    24A     -0.587061
      25A     -0.576287    26A     -0.552386    27A     -0.542721
      28A     -0.521094    29A     -0.511151    30A     -0.487862
      31A     -0.484968    32A     -0.475342    33A     -0.469465
      34A     -0.460512    35A     -0.456223    36A     -0.443189
      37A     -0.420721

  @DF-RHF Final Energy:  -388.27929983044766

   => Energetics <=

    Nuclear Repulsion Energy =            451.5802154513114033
    One-Electron Energy =               -1421.1662094868556778
    Two-Electron Energy =                 581.3066942050957095
    DFT Exchange-Correlation Energy =       0.0000000000000000
    Empirical Dispersion Energy =           0.0000000000000000
    PCM Polarization Energy =               0.0000000000000000
    EFP Energy =                            0.0000000000000000
    Total Energy =                       -388.2792998304485081

  Mulliken Charges: (a.u.)
   Center  Symbol    Alpha    Beta     Spin     Total
       1     H     0.27994  0.27994  0.00000  0.44011
       2     O     4.37096  4.37096  0.00000 -0.74192
       3     C     2.99736  2.99736  0.00000  0.00527
       4     C     3.16192  3.16192  0.00000 -0.32384
       5     H     0.41439  0.41439  0.00000  0.17122
       6     H     0.43200  0.43200  0.00000  0.13600
       7     C     3.16306  3.16306  0.00000 -0.32612
       8     H     0.41477  0.41477  0.00000  0.17046
       9     H     0.42413  0.42413  0.00000  0.15175
      10     C     3.15238  3.15238  0.00000 -0.30476
      11     H     0.42443  0.42443  0.00000  0.15114
      12     H     0.42465  0.42465  0.00000  0.15070
      13     C     3.15378  3.15378  0.00000 -0.30757
      14     H     0.41986  0.41986  0.00000  0.16027
      15     H     0.42171  0.42171  0.00000  0.15658
      16     C     3.15237  3.15237  0.00000 -0.30474
      17     H     0.42216  0.42216  0.00000  0.15569
      18     H     0.42321  0.42321  0.00000  0.15357
      19     C     3.15211  3.15211  0.00000 -0.30422
      20     H     0.42356  0.42356  0.00000  0.15289
      21     H     0.42297  0.42297  0.00000  0.15406
      22     C     3.23928  3.23928  0.00000 -0.47857
      23     H     0.42311  0.42311  0.00000  0.15377
      24     H     0.42313  0.42313  0.00000  0.15373
      25     H     0.42170  0.42170  0.00000  0.15660
      26     H     0.41930  0.41930  0.00000  0.16140
      27     H     0.42174  0.42174  0.00000  0.15653

   Total alpha = 37.00000, Total beta = 37.00000, Total charge =  0.00000
