  ==> Input File <==

--------------------------------------------------------------------------
set {
	reference rhf
	basis 6-31G*
}

set_num_threads( 1 )
memory 2 gb

molecule MOL {
0 1

O	 -2.821601	 1.309235	 -0.001213
C	 -2.668563	 0.129746	 -0.000350
C	 -3.801572	 -0.864014	 -0.000442
O	 -1.481751	 -0.454642	 0.000584
H	 -4.417280	 -0.689587	 -0.874708
H	 -3.443784	 -1.883046	 -0.000565
H	 -4.417179	 -0.689832	 0.873954
C	 -0.334255	 0.388708	 0.000906
C	 0.891947	 -0.504646	 0.000751
H	 -0.365390	 1.025305	 -0.873475
H	 -0.365484	 1.024911	 0.875569
C	 2.191998	 0.301789	 0.000897
H	 0.855148	 -1.151283	 -0.871571
H	 0.855132	 -1.151660	 0.872805
C	 3.441114	 -0.581407	 0.000108
H	 2.215074	 0.954890	 -0.869742
H	 2.215465	 0.953923	 0.872248
C	 4.149736	 -0.611318	 1.353558
H	 4.131596	 -0.226397	 -0.761651
H	 3.165012	 -1.593876	 -0.285802
H	 4.468498	 0.383487	 1.651499
H	 5.030541	 -1.244865	 1.321385
H	 3.494789	 -0.994575	 2.130840

	symmetry c1
}
set optking {
	frozen_dihedral = ("
		13 9 8 10,
		2 4 8 10,
		16 12 9 13,
		1 2 4 8
	")
}

ee = energy('scf')
oeprop('DIPOLE', 'QUADRUPOLE', 'MULLIKEN_CHARGES')
f=open( 'psi4out.xyz', 'w' )
f.write( "23  " )
f.write( str(ee) + "\n" )
f.write( MOL.save_string_xyz() )
f.close()
--------------------------------------------------------------------------

    Molecular point group: c1

    Geometry (in Angstrom), charge = 0, multiplicity = 1:

       Center              X                  Y                   Z               Mass
    ------------   -----------------  -----------------  -----------------  -----------------
           O         -2.753501358181     1.405688215335    -0.157613722495    15.994914619560
           C         -2.600463358181     0.226199215335    -0.156750722495    12.000000000000
           C         -3.733472358181    -0.767560784665    -0.156842722495    12.000000000000
           O         -1.413651358181    -0.358188784665    -0.155816722495    15.994914619560
           H         -4.349180358181    -0.593133784665    -1.031108722495     1.007825032070
           H         -3.375684358181    -1.786592784665    -0.156965722495     1.007825032070
           H         -4.349079358181    -0.593378784665     0.717553277505     1.007825032070
           C         -0.266155358181     0.485161215335    -0.155494722495    12.000000000000
           C          0.960046641819    -0.408192784665    -0.155649722495    12.000000000000
           H         -0.297290358181     1.121758215335    -1.029875722495     1.007825032070
           H         -0.297384358181     1.121364215335     0.719168277505     1.007825032070
           C          2.260097641819     0.398242215335    -0.155503722495    12.000000000000
           H          0.923247641819    -1.054829784665    -1.027971722495     1.007825032070
           H          0.923231641819    -1.055206784665     0.716404277505     1.007825032070
           C          3.509213641819    -0.484953784665    -0.156292722495    12.000000000000
           H          2.283173641819     1.051343215335    -1.026142722495     1.007825032070
           H          2.283564641819     1.050376215335     0.715847277505     1.007825032070
           C          4.217835641819    -0.514864784665     1.197157277505    12.000000000000
           H          4.199695641819    -0.129943784665    -0.918051722495     1.007825032070
           H          3.233111641819    -1.497422784665    -0.442202722495     1.007825032070
           H          4.536597641819     0.479940215335     1.495098277505     1.007825032070
           H          5.098640641819    -1.148411784665     1.164984277505     1.007825032070
           H          3.562888641819    -0.898121784665     1.974439277505     1.007825032070

  Charge       = 0
  Multiplicity = 1
  Basis Set: 6-31G*
  Basis Set:

    Orbital Energies (a.u.)
    -----------------------

    Doubly Occupied:

       1A    -20.602915     2A    -20.540472     3A    -11.374033
       4A    -11.281110     5A    -11.232382     6A    -11.224611
       7A    -11.222493     8A    -11.220205     9A    -11.213235
      10A     -1.467897    11A     -1.360674    12A     -1.094654
      13A     -1.041824    14A     -1.002664    15A     -0.930620
      16A     -0.846414    17A     -0.799726    18A     -0.773595
      19A     -0.691203    20A     -0.685360    21A     -0.669239
      22A     -0.635334    23A     -0.615332    24A     -0.596042
      25A     -0.579981    26A     -0.571446    27A     -0.548369
      28A     -0.532158    29A     -0.529111    30A     -0.504890
      31A     -0.499731    32A     -0.476297    33A     -0.464512
      34A     -0.462542    35A     -0.451250    36A     -0.435162

  @DF-RHF Final Energy:  -422.97423093727429

   => Energetics <=

    Nuclear Repulsion Energy =            452.0863479140126060
    One-Electron Energy =               -1471.7661629482136050
    Two-Electron Energy =                 596.7055840969276232
    DFT Exchange-Correlation Energy =       0.0000000000000000
    Empirical Dispersion Energy =           0.0000000000000000
    PCM Polarization Energy =               0.0000000000000000
    EFP Energy =                            0.0000000000000000
    Total Energy =                       -422.9742309372734326

  Mulliken Charges: (a.u.)
   Center  Symbol    Alpha    Beta     Spin     Total
       1     O     4.28391  4.28391  0.00000 -0.56783
       2     C     2.61534  2.61534  0.00000  0.76932
       3     C     3.28774  3.28774  0.00000 -0.57548
       4     O     4.31267  4.31267  0.00000 -0.62535
       5     H     0.39750  0.39750  0.00000  0.20500
       6     H     0.39990  0.39990  0.00000  0.20020
       7     H     0.39751  0.39751  0.00000  0.20498
       8     C     2.99614  2.99614  0.00000  0.00772
       9     C     3.16685  3.16685  0.00000 -0.33371
      10     H     0.41060  0.41060  0.00000  0.17880
      11     H     0.41067  0.41067  0.00000  0.17866
      12     C     3.16348  3.16348  0.00000 -0.32697
      13     H     0.41361  0.41361  0.00000  0.17277
      14     H     0.41416  0.41416  0.00000  0.17169
      15     C     3.15453  3.15453  0.00000 -0.30906
      16     H     0.41820  0.41820  0.00000  0.16360
      17     H     0.41829  0.41829  0.00000  0.16342
      18     C     3.24078  3.24078  0.00000 -0.48155
      19     H     0.41844  0.41844  0.00000  0.16312
      20     H     0.41903  0.41903  0.00000  0.16195
      21     H     0.42030  0.42030  0.00000  0.15941
      22     H     0.41888  0.41888  0.00000  0.16224
      23     H     0.42147  0.42147  0.00000  0.15706

   Total alpha = 36.00000, Total beta = 36.00000, Total charge = -0.00000
