  ==> Input File <==

--------------------------------------------------------------------------
set {
	reference rhf
	basis cc-pvtz
}

set_num_threads( 4 )
memory 2 gb

molecule MOL {
0 1

H	 0.990288	 -0.890891	 -1.044646
O	 1.675515	 -0.612943	 -0.465627
C	 1.135873	 0.113391	 0.608264
C	 0.027642	 1.012027	 0.090274
H	 1.902972	 0.727968	 1.072615
H	 0.756163	 -0.561896	 1.370018
C	 -1.138737	 0.285728	 -0.581921
H	 0.464661	 1.708096	 -0.618252
H	 -0.340737	 1.603071	 0.925246
C	 -1.933983	 -0.631436	 0.343653
H	 -0.763151	 -0.285569	 -1.422081
H	 -1.808359	 1.035291	 -0.992333
H	 -2.789188	 -1.049673	 -0.174718
H	 -1.335629	 -1.461368	 0.700418
H	 -2.305435	 -0.092167	 1.209725

	symmetry c1
}
set optking {
	frozen_dihedral = ("
		1 2 3 4
	")
}

ee = optimize('scf')
oeprop('DIPOLE', 'QUADRUPOLE', 'MULLIKEN_CHARGES')
f=open( 'psi4out.xyz', 'w' )
f.write( "15  " )
f.write( str(ee) + "\n" )
f.write( MOL.save_string_xyz() )
f.close()
--------------------------------------------------------------------------

    Molecular point group: c1
  Charge       = 0
  Multiplicity = 1
  Basis Set: CC-PVTZ
  Basis Set:
  @DF-RHF Final Energy:  -232.23327340020398
    Total Energy =                       -232.2332734002040411
    Molecular point group: c1
  Basis Set: CC-PVTZ
  Basis Set:
  Basis Set: CC-PVTZ
  Basis Set:
  @DF-RHF Final Energy:  -232.23490578170882
    Total Energy =                       -232.2349057817087896
  Basis Set: CC-PVTZ
  Basis Set:
  Basis Set: CC-PVTZ
  Basis Set:
  @DF-RHF Final Energy:  -232.23565479287763
    Total Energy =                       -232.2356547928776536
  Basis Set: CC-PVTZ
  Basis Set:
  Basis Set: CC-PVTZ
  Basis Set:
  @DF-RHF Final Energy:  -232.23566384208942
    Total Energy =                       -232.2356638420895365
  Basis Set: CC-PVTZ
  Basis Set:
  Basis Set: CC-PVTZ
  Basis Set:
  @DF-RHF Final Energy:  -232.23570390283055
    Total Energy =                       -232.2357039028303802
  Basis Set: CC-PVTZ
  Basis Set:
  Basis Set: CC-PVTZ
  Basis Set:
  @DF-RHF Final Energy:  -232.23570579557506
    Total Energy =                       -232.2357057955752566
  Basis Set: CC-PVTZ
  Basis Set:
  Charge       = 0
  Multiplicity = 1
  Basis Set: CC-PVTZ
  Basis Set:

    Orbital Energies (a.u.)
    -----------------------

    Doubly Occupied:

       1A    -20.543903     2A    -11.264167     3A    -11.225598
       4A    -11.219213     5A    -11.214682     6A     -1.362348
       7A     -1.074866     8A     -0.977933     9A     -0.883674
      10A     -0.791800    11A     -0.687600    12A     -0.647297
      13A     -0.623912    14A     -0.588238    15A     -0.578795
      16A     -0.548917    17A     -0.507054    18A     -0.488969
      19A     -0.481397    20A     -0.460889    21A     -0.430647

  @DF-RHF Final Energy:  -232.23570599913828

   => Energetics <=

    Nuclear Repulsion Energy =            191.6501352283800941
    One-Electron Energy =                -694.5678871225899229
    Two-Electron Energy =                 270.6820458950716102
    DFT Exchange-Correlation Energy =       0.0000000000000000
    Empirical Dispersion Energy =           0.0000000000000000
    PCM Polarization Energy =               0.0000000000000000
    EFP Energy =                            0.0000000000000000
    Total Energy =                       -232.2357059991381902
    Molecular point group: c1
  Basis Set: CC-PVTZ
  Basis Set:

  -Total Gradient:
     Atom            X                  Y                   Z
    ------   -----------------  -----------------  -----------------
       1        0.000219522544     0.001484187903    -0.000946646881
       2       -0.000585949516    -0.002213165508     0.001218918187
       3        0.001106738694     0.001554213099    -0.000410916426
       4       -0.000744483844    -0.000824121133     0.000133285942
       5       -0.000006343846     0.000002341400     0.000001221742
       6        0.000000302937    -0.000002659137     0.000000004182
       7       -0.000000292535    -0.000000432864    -0.000003790778
       8        0.000001253288     0.000003827511    -0.000001314055
       9        0.000000860656    -0.000002565405     0.000001594339
      10        0.000000137433    -0.000003335262     0.000006748743
      11       -0.000007015380     0.000000449174    -0.000003270294
      12        0.000011599641     0.000005321464    -0.000000553791
      13        0.000002992458     0.000000899095    -0.000001472480
      14        0.000003244889    -0.000003618824     0.000006497792
      15       -0.000002567415    -0.000001341515    -0.000000306222

  **** Optimization is complete! (in 7 steps) ****
    Final optimized geometry and variables:
    Molecular point group: c1

    Geometry (in Angstrom), charge = 0, multiplicity = 1:

    H            1.166388786551    -0.937712702360    -1.042475759818
    O            1.786914370966    -0.626612109936    -0.410540177418
    C            1.138286898985     0.104672507347     0.596271712061
    C            0.024376547271     1.006759715880     0.082486125166
    H            1.900665903068     0.712053631272     1.065360653344
    H            0.756144473158    -0.570821312454     1.356753408059
    C           -1.163121704767     0.295573560542    -0.573410484042
    H            0.452259336459     1.707426253881    -0.627877238664
    H           -0.338104567670     1.594892978182     0.921552801616
    C           -1.945814188253    -0.630365370143     0.354448498398
    H           -0.833072313278    -0.263561989838    -1.446019462853
    H           -1.834067717470     1.055064196116    -0.960624639234
    H           -2.813239803167    -1.036557201719    -0.152455017287
    H           -1.346997368092    -1.466736407493     0.694814654111
    H           -2.295671933171    -0.096582893583     1.231830703752

  Mulliken Charges: (a.u.)
   Center  Symbol    Alpha    Beta     Spin     Total
       1     H     0.39141  0.39141  0.00000  0.21719
       2     O     4.20738  4.20738  0.00000 -0.41476
       3     C     2.96838  2.96838  0.00000  0.06325
       4     C     3.10578  3.10578  0.00000 -0.21157
       5     H     0.45156  0.45156  0.00000  0.09689
       6     H     0.47259  0.47259  0.00000  0.05483
       7     C     3.09778  3.09778  0.00000 -0.19556
       8     H     0.44466  0.44466  0.00000  0.11067
       9     H     0.45464  0.45464  0.00000  0.09073
      10     C     3.15128  3.15128  0.00000 -0.30257
      11     H     0.46071  0.46071  0.00000  0.07858
      12     H     0.44380  0.44380  0.00000  0.11241
      13     H     0.44509  0.44509  0.00000  0.10981
      14     H     0.45193  0.45193  0.00000  0.09614
      15     H     0.45302  0.45302  0.00000  0.09397

   Total alpha = 21.00000, Total beta = 21.00000, Total charge = -0.00000
