  ==> Input File <==

--------------------------------------------------------------------------
set {
	reference rhf
	basis 6-31G*
}

set_num_threads( 4 )
memory 2 gb

molecule MOL {
0 1

H	 -2.499100	 -0.730091	 -0.745082
O	 -2.347518	 -0.290803	 0.079804
C	 -1.184022	 0.487508	 -0.006784
C	 0.062599	 -0.378592	 0.031606
H	 -1.176523	 1.099369	 -0.904519
H	 -1.187323	 1.153111	 0.844927
O	 1.171513	 0.459272	 -0.058250
H	 0.050699	 -1.089204	 -0.797170
H	 0.078739	 -0.954914	 0.954740
C	 1.476022	 0.877274	 -1.351189
H	 0.655849	 1.442248	 -1.790223
H	 2.347772	 1.514015	 -1.291893
H	 1.699159	 0.032471	 -1.999501

	symmetry c1
}
set optking {
	frozen_dihedral = ("
		10 7 4 8
	")
}

ee = optimize('scf')
oeprop('DIPOLE', 'QUADRUPOLE', 'MULLIKEN_CHARGES')
f=open( 'psi4out.xyz', 'w' )
f.write( "13  " )
f.write( str(ee) + "\n" )
f.write( MOL.save_string_xyz() )
f.close()
--------------------------------------------------------------------------

    Molecular point group: c1
  Charge       = 0
  Multiplicity = 1
  Basis Set: 6-31G*
  Basis Set:
  @DF-RHF Final Energy:  -267.94493433837289
    Total Energy =                       -267.9449343383728888
    Molecular point group: c1
  Basis Set: 6-31G*
  Basis Set:
  Basis Set: 6-31G*
  Basis Set:
  @DF-RHF Final Energy:  -267.94625885074424
    Total Energy =                       -267.9462588507441296
  Basis Set: 6-31G*
  Basis Set:
  Basis Set: 6-31G*
  Basis Set:
  @DF-RHF Final Energy:  -267.94733204558736
    Total Energy =                       -267.9473320455873022
  Basis Set: 6-31G*
  Basis Set:
  Basis Set: 6-31G*
  Basis Set:
  @DF-RHF Final Energy:  -267.94737753941718
    Total Energy =                       -267.9473775394172890
  Basis Set: 6-31G*
  Basis Set:
  Basis Set: 6-31G*
  Basis Set:
  @DF-RHF Final Energy:  -267.94738045342677
    Total Energy =                       -267.9473804534266606
  Basis Set: 6-31G*
  Basis Set:
  Charge       = 0
  Multiplicity = 1
  Basis Set: 6-31G*
  Basis Set:

    Orbital Energies (a.u.)
    -----------------------

    Doubly Occupied:

       1A    -20.562488     2A    -20.562080     3A    -11.271926
       4A    -11.271586     5A    -11.270889     6A     -1.386499
       7A     -1.366831     8A     -1.014776     9A     -0.927595
      10A     -0.837497    11A     -0.710788    12A     -0.671878
      13A     -0.662767    14A     -0.637806    15A     -0.596207
      16A     -0.575714    17A     -0.539539    18A     -0.491969
      19A     -0.484031    20A     -0.460767    21A     -0.405895

  @DF-RHF Final Energy:  -267.94738059575889

   => Energetics <=

    Nuclear Repulsion Energy =            191.8131130877053181
    One-Electron Energy =                -746.1019272545902368
    Two-Electron Energy =                 286.3414335711257763
    DFT Exchange-Correlation Energy =       0.0000000000000000
    Empirical Dispersion Energy =           0.0000000000000000
    PCM Polarization Energy =               0.0000000000000000
    EFP Energy =                            0.0000000000000000
    Total Energy =                       -267.9473805957591139
    Molecular point group: c1
  Basis Set: 6-31G*
  Basis Set:

  -Total Gradient:
     Atom            X                  Y                   Z
    ------   -----------------  -----------------  -----------------
       1       -0.000012564249    -0.000005485996     0.000001397718
       2        0.000016335329    -0.000021117044    -0.000027744730
       3       -0.000004463296     0.000034073463     0.000027375272
       4       -0.000438128072     0.000550664072    -0.000339853783
       5       -0.000007337180    -0.000001595174    -0.000004788938
       6        0.000019525346     0.000009952818     0.000000819808
       7        0.000394984217    -0.000571045342     0.000010125742
       8        0.000258601740    -0.000328840168     0.000292734347
       9       -0.000004194122    -0.000002577199     0.000000663170
      10       -0.000222373751     0.000333468675     0.000039252303
      11       -0.000002027321    -0.000002300916     0.000006907670
      12        0.000000932666     0.000005341344    -0.000002846640
      13        0.000000708695    -0.000000538534    -0.000004041942

  **** Optimization is complete! (in 6 steps) ****
    Final optimized geometry and variables:
    Molecular point group: c1

    Geometry (in Angstrom), charge = 0, multiplicity = 1:

    H           -2.331991741760    -1.037442555455    -0.378783887264
    O           -2.174792174338    -0.567057819668     0.427831758002
    C           -1.053551234400     0.263844968978     0.281856053861
    C            0.232161734156    -0.554714208272     0.264718260526
    H           -1.139392557605     0.880120324791    -0.609645432684
    H           -1.041695806648     0.926539411147     1.135982790436
    O            1.374588412472     0.245948527064     0.194156418044
    H            0.213191001988    -1.272653911423    -0.556405028839
    H            0.294784747413    -1.118094775095     1.186432905103
    C            1.752860236424     0.659543940089    -1.082846977417
    H            1.006628876756     1.296057358171    -1.550956113093
    H            2.668894900070     1.224262843115    -0.978706271175
    H            1.938532494584    -0.192297700723    -1.734015955594

  Mulliken Charges: (a.u.)
   Center  Symbol    Alpha    Beta     Spin     Total
       1     H     0.28154  0.28154  0.00000  0.43692
       2     O     4.36942  4.36942  0.00000 -0.73884
       3     C     3.00761  3.00761  0.00000 -0.01521
       4     C     3.00436  3.00436  0.00000 -0.00873
       5     H     0.42937  0.42937  0.00000  0.14125
       6     H     0.40778  0.40778  0.00000  0.18444
       7     O     4.30595  4.30595  0.00000 -0.61189
       8     H     0.43718  0.43718  0.00000  0.12565
       9     H     0.40653  0.40653  0.00000  0.18695
      10     C     3.08216  3.08216  0.00000 -0.16432
      11     H     0.43008  0.43008  0.00000  0.13983
      12     H     0.40949  0.40949  0.00000  0.18103
      13     H     0.42854  0.42854  0.00000  0.14292

   Total alpha = 21.00000, Total beta = 21.00000, Total charge =  0.00000
