                              Psi4 1.0.54 Driver

  ==> Input File <==

--------------------------------------------------------------------------
set {
	reference rhf
	basis cc-pvtz
}

set_num_threads( 4 )
memory 2 gb

molecule MOL {
0 1

H	 -2.162773	 -1.053016	 1.731177
C	 -1.507420	 -0.634872	 0.996600
C	 -1.951938	 0.360803	 0.069137
C	 -0.234651	 -1.030571	 0.915891
H	 -2.969908	 0.700518	 0.107719
C	 -1.112034	 0.866934	 -0.839141
H	 0.171660	 -1.771704	 1.575266
N	 0.640204	 -0.530428	 -0.000115
H	 -1.409495	 1.612159	 -1.547743
C	 0.275021	 0.433245	 -0.924131
C	 2.006991	 -1.033007	 -0.000020
O	 1.059260	 0.863817	 -1.725268
H	 2.182444	 -1.636914	 -0.880881
H	 2.678769	 -0.195442	 -0.002236
H	 2.183828	 -1.633244	 0.883082

	symmetry c1
}
set optking {
	frozen_dihedral = ("
		10 8 11 13
	")
}

ee,wfn = optimize('scf', return_wfn=True)
oeprop( wfn, 'DIPOLE', 'QUADRUPOLE', 'MULLIKEN_CHARGES')
f=open( 'psi4out.xyz', 'w' )
f.write( "15  " )
f.write( str(ee) + "\n" )
f.write( MOL.save_string_xyz() )
f.close()
--------------------------------------------------------------------------

    Molecular point group: c1
  Charge       = 0
  Multiplicity = 1
  Basis Set: CC-PVTZ
  Basis Set:
  @DF-RHF Final Energy:  -360.72280168400397
    Total Energy =                       -360.7228016840041391
    Molecular point group: c1
  Basis Set: CC-PVTZ
  Basis Set:
  Basis Set: CC-PVTZ
  Basis Set:
  @DF-RHF Final Energy:  -360.72347170978873
    Total Energy =                       -360.7234717097887824
  Basis Set: CC-PVTZ
  Basis Set:
  Basis Set: CC-PVTZ
  Basis Set:
  @DF-RHF Final Energy:  -360.72354671391292
    Total Energy =                       -360.7235467139130378
  Basis Set: CC-PVTZ
  Basis Set:
  Basis Set: CC-PVTZ
  Basis Set:
  @DF-RHF Final Energy:  -360.72354921366303
    Total Energy =                       -360.7235492136627499
  Basis Set: CC-PVTZ
  Basis Set:
  Charge       = 0
  Multiplicity = 1
  Basis Set: CC-PVTZ
  Basis Set:

    Orbital Energies (a.u.)
    -----------------------

    Doubly Occupied:

       1A    -20.501995     2A    -15.617841     3A    -11.337610
       4A    -11.294661     5A    -11.266021     6A    -11.258181
       7A    -11.229445     8A    -11.227736     9A     -1.391353
      10A     -1.285951    11A     -1.118834    12A     -1.029336
      13A     -0.972649    14A     -0.876618    15A     -0.839016
      16A     -0.719702    17A     -0.701993    18A     -0.664035
      19A     -0.653499    20A     -0.626298    21A     -0.611940
      22A     -0.574987    23A     -0.552307    24A     -0.551176
      25A     -0.531409    26A     -0.484882    27A     -0.420467
      28A     -0.410757    29A     -0.309989

  @DF-RHF Final Energy:  -360.72354939517010

   => Energetics <=

    Nuclear Repulsion Energy =            358.8870402078711663
    One-Electron Energy =               -1201.0998097236529247
    Two-Electron Energy =                 481.4892201206118898
    DFT Exchange-Correlation Energy =       0.0000000000000000
    Empirical Dispersion Energy =           0.0000000000000000
    PCM Polarization Energy =               0.0000000000000000
    EFP Energy =                            0.0000000000000000
    Total Energy =                       -360.7235493951698118
    Molecular point group: c1
  Basis Set: CC-PVTZ
  Basis Set:

  -Total Gradient:
     Atom            X                  Y                   Z
    ------   -----------------  -----------------  -----------------
       1       -0.000020205824     0.000002908642     0.000002677772
       2        0.000008152513     0.000004889525    -0.000003611174
       3        0.000010274347     0.000005246322     0.000015341922
       4       -0.000030220190     0.000039932887    -0.000018800272
       5       -0.000009331654    -0.000033255889     0.000014086586
       6        0.000023039716     0.000096989078     0.000044206495
       7        0.000016117027    -0.000002350808    -0.000005745504
       8       -0.000163878818    -0.000567601274    -0.000334458649
       9        0.000015125076    -0.000006311043     0.000011655658
      10       -0.000013377558     0.000050471165     0.000163589683
      11        0.000208563809     0.000828604719    -0.000242016203
      12        0.000088381321     0.000121599478     0.000051103551
      13       -0.000134853175    -0.000518388448     0.000299749055
      14       -0.000002568708    -0.000011420734    -0.000005283521
      15        0.000004782123    -0.000011313623     0.000007504600

  **** Optimization is complete! (in 5 steps) ****
    Final optimized geometry and variables:
    Molecular point group: c1

    Geometry (in Angstrom), charge = 0, multiplicity = 1:

    H           -2.074558270343    -1.035350759554     1.970048257221
    C           -1.441482023897    -0.593654057700     1.229771391453
    C           -1.925463677946     0.398642483813     0.320585690803
    C           -0.158236927995    -0.955600632904     1.129881092371
    H           -2.951217730808     0.710972425324     0.379972470568
    C           -1.114506732742     0.937417244441    -0.596966302871
    H            0.274181338109    -1.690372336283     1.778256112631
    N            0.685123599228    -0.420938142513     0.207224848875
    H           -1.443088997999     1.681434430337    -1.293084461099
    C            0.277044425282     0.533089486342    -0.706950342044
    C            2.072971797488    -0.850759000839     0.134879799713
    O            1.050471618733     0.968989141720    -1.516034016200
    H            2.244264937228    -1.435475896956    -0.758115091257
    H            2.721624858471     0.009552716807     0.107174521175
    H            2.300445520183    -1.449747063410     1.003438216026

  Mulliken Charges: (a.u.)
   Center  Symbol    Alpha    Beta     Spin     Total
       1     H     0.41400  0.41400  0.00000  0.17201
       2     C     3.10696  3.10696  0.00000 -0.21392
       3     C     3.05930  3.05930  0.00000 -0.11860
       4     C     3.03861  3.03861  0.00000 -0.07722
       5     H     0.41845  0.41845  0.00000  0.16311
       6     C     3.11848  3.11848  0.00000 -0.23696
       7     H     0.41907  0.41907  0.00000  0.16186
       8     N     3.50858  3.50858  0.00000 -0.01715
       9     H     0.40935  0.40935  0.00000  0.18131
      10     C     2.84559  2.84559  0.00000  0.30883
      11     C     3.09215  3.09215  0.00000 -0.18430
      12     O     4.23562  4.23562  0.00000 -0.47123
      13     H     0.44288  0.44288  0.00000  0.11424
      14     H     0.43546  0.43546  0.00000  0.12908
      15     H     0.45552  0.45552  0.00000  0.08897

   Total alpha = 29.00000, Total beta = 29.00000, Total charge = -0.00000

*** Psi4 exiting successfully. Buy a developer a beer!
