  ==> Input File <==

--------------------------------------------------------------------------
set {
	reference rhf
	basis 6-31G*
}

set_num_threads( 1 )
memory 2 gb

molecule MOL {
0 1

H	 2.591676	 2.013956	 0.335017
O	 3.341076	 1.666752	 -0.126416
C	 3.569581	 0.339145	 0.272707
C	 2.539767	 -0.640285	 -0.279495
H	 4.553106	 0.084646	 -0.100901
H	 3.608576	 0.269204	 1.359154
C	 1.115811	 -0.397273	 0.226630
H	 2.556196	 -0.582511	 -1.364741
H	 2.852081	 -1.648031	 -0.010655
C	 0.737435	 -1.316219	 1.391614
H	 0.416291	 -0.542338	 -0.591900
H	 1.016536	 0.640917	 0.543878
C	 -0.648711	 -1.056341	 1.992782
H	 0.799337	 -2.352637	 1.064731
H	 1.480597	 -1.201991	 2.177975
C	 -1.823620	 -1.365491	 1.060852
H	 -0.750420	 -1.661484	 2.891266
H	 -0.710263	 -0.019233	 2.319059
C	 -3.184205	 -1.191729	 1.739123
H	 -1.733134	 -2.387653	 0.696013
H	 -1.784275	 -0.724269	 0.183590
C	 -4.358863	 -1.493495	 0.809187
H	 -3.237754	 -1.841400	 2.610069
H	 -3.272502	 -0.173697	 2.112888
H	 -4.317092	 -2.515749	 0.443842
H	 -5.308368	 -1.363385	 1.319232
H	 -4.354872	 -0.834642	 -0.054677

	symmetry c1
}
set optking {
	frozen_dihedral = ("
		14 10 7 4,
		14 10 13 16,
		8 4 3 2,
		10 13 16 20,
		20 16 19 22,
		4 3 2 1
	")
}

ee = energy('scf')
oeprop('DIPOLE', 'QUADRUPOLE', 'MULLIKEN_CHARGES')
f=open( 'psi4out.xyz', 'w' )
f.write( "27  " )
f.write( str(ee) + "\n" )
f.write( MOL.save_string_xyz() )
f.close()
--------------------------------------------------------------------------

    Molecular point group: c1

    Geometry (in Angstrom), charge = 0, multiplicity = 1:

       Center              X                  Y                   Z               Mass
    ------------   -----------------  -----------------  -----------------  -----------------
           H          2.413642652513     2.580726578068    -0.438001159384     1.007825032070
           O          3.163042652513     2.233522578068    -0.899434159384    15.994914619560
           C          3.391547652513     0.905915578068    -0.500311159384    12.000000000000
           C          2.361733652513    -0.073514421932    -1.052513159384    12.000000000000
           H          4.375072652513     0.651416578068    -0.873919159384     1.007825032070
           H          3.430542652513     0.835974578068     0.586135840616     1.007825032070
           C          0.937777652513     0.169497578068    -0.546388159384    12.000000000000
           H          2.378162652513    -0.015740421932    -2.137759159384     1.007825032070
           H          2.674047652513    -1.081260421932    -0.783673159384     1.007825032070
           C          0.559401652513    -0.749448421932     0.618595840616    12.000000000000
           H          0.238257652513     0.024432578068    -1.364918159384     1.007825032070
           H          0.838502652513     1.207687578068    -0.229140159384     1.007825032070
           C         -0.826744347487    -0.489570421932     1.219763840616    12.000000000000
           H          0.621303652513    -1.785866421932     0.291712840616     1.007825032070
           H          1.302563652513    -0.635220421932     1.404956840616     1.007825032070
           C         -2.001653347487    -0.798720421932     0.287833840616    12.000000000000
           H         -0.928453347487    -1.094713421932     2.118247840616     1.007825032070
           H         -0.888296347487     0.547537578068     1.546040840616     1.007825032070
           C         -3.362238347487    -0.624958421932     0.966104840616    12.000000000000
           H         -1.911167347487    -1.820882421932    -0.077005159384     1.007825032070
           H         -1.962308347487    -0.157498421932    -0.589428159384     1.007825032070
           C         -4.536896347487    -0.926724421932     0.036168840616    12.000000000000
           H         -3.415787347487    -1.274629421932     1.837050840616     1.007825032070
           H         -3.450535347487     0.393073578068     1.339869840616     1.007825032070
           H         -4.495125347487    -1.948978421932    -0.329176159384     1.007825032070
           H         -5.486401347487    -0.796614421932     0.546213840616     1.007825032070
           H         -4.532905347487    -0.267871421932    -0.827695159384     1.007825032070

  Charge       = 0
  Multiplicity = 1
  Basis Set: 6-31G*
  Basis Set:

    Orbital Energies (a.u.)
    -----------------------

    Doubly Occupied:

       1A    -20.552065     2A    -11.267209     3A    -11.219943
       4A    -11.218682     5A    -11.216659     6A    -11.216489
       7A    -11.214776     8A    -11.214310     9A    -11.209689
      10A     -1.359104    11A     -1.096410    12A     -1.062217
      13A     -1.011214    14A     -0.947808    15A     -0.890752
      16A     -0.823493    17A     -0.799731    18A     -0.776955
      19A     -0.698327    20A     -0.647033    21A     -0.637837
      22A     -0.611917    23A     -0.607120    24A     -0.586292
      25A     -0.574596    26A     -0.558448    27A     -0.543156
      28A     -0.525109    29A     -0.510101    30A     -0.496103
      31A     -0.488425    32A     -0.474082    33A     -0.469572
      34A     -0.461719    35A     -0.447696    36A     -0.438664
      37A     -0.425770

  @DF-RHF Final Energy:  -388.27710457617815

   => Energetics <=

    Nuclear Repulsion Energy =            460.5773146050324272
    One-Electron Energy =               -1439.1093178587714192
    Two-Electron Energy =                 590.2548986775594813
    DFT Exchange-Correlation Energy =       0.0000000000000000
    Empirical Dispersion Energy =           0.0000000000000000
    PCM Polarization Energy =               0.0000000000000000
    EFP Energy =                            0.0000000000000000
    Total Energy =                       -388.2771045761795676

  Mulliken Charges: (a.u.)
   Center  Symbol    Alpha    Beta     Spin     Total
       1     H     0.27908  0.27908  0.00000  0.44184
       2     O     4.37131  4.37131  0.00000 -0.74263
       3     C     2.99897  2.99897  0.00000  0.00205
       4     C     3.16427  3.16427  0.00000 -0.32854
       5     H     0.41429  0.41429  0.00000  0.17142
       6     H     0.43203  0.43203  0.00000  0.13594
       7     C     3.15804  3.15804  0.00000 -0.31608
       8     H     0.41273  0.41273  0.00000  0.17453
       9     H     0.42208  0.42208  0.00000  0.15584
      10     C     3.15547  3.15547  0.00000 -0.31094
      11     H     0.41392  0.41392  0.00000  0.17216
      12     H     0.43533  0.43533  0.00000  0.12934
      13     C     3.15334  3.15334  0.00000 -0.30667
      14     H     0.42165  0.42165  0.00000  0.15669
      15     H     0.42280  0.42280  0.00000  0.15439
      16     C     3.15283  3.15283  0.00000 -0.30565
      17     H     0.42134  0.42134  0.00000  0.15732
      18     H     0.42501  0.42501  0.00000  0.14999
      19     C     3.15115  3.15115  0.00000 -0.30230
      20     H     0.42421  0.42421  0.00000  0.15159
      21     H     0.42202  0.42202  0.00000  0.15596
      22     C     3.23929  3.23929  0.00000 -0.47858
      23     H     0.42302  0.42302  0.00000  0.15397
      24     H     0.42320  0.42320  0.00000  0.15361
      25     H     0.42169  0.42169  0.00000  0.15662
      26     H     0.41917  0.41917  0.00000  0.16166
      27     H     0.42177  0.42177  0.00000  0.15647

   Total alpha = 37.00000, Total beta = 37.00000, Total charge = -0.00000
