                              Psi4 1.0.54 Driver

  ==> Input File <==

--------------------------------------------------------------------------
set {
	reference rhf
	basis cc-pvtz
}

set_num_threads( 4 )
memory 2 gb

molecule MOL {
0 1

O	 1.351389	 2.155296	 0.053495
C	 0.265486	 2.615147	 0.155427
C	 -1.021464	 1.830682	 0.151666
O	 0.037551	 3.911495	 0.289378
C	 -0.824290	 0.329213	 -0.000115
H	 -1.544060	 2.067371	 1.072709
H	 -1.637601	 2.229029	 -0.647795
C	 -2.146151	 -0.432825	 -0.000068
H	 -0.191502	 -0.031052	 0.803043
H	 -0.284912	 0.130814	 -0.919353
C	 -3.366283	 0.483552	 0.000557
H	 -2.189286	 -1.084450	 -0.869996
H	 -2.188867	 -1.085083	 0.869399
C	 -4.687436	 -0.278003	 0.000108
H	 -3.325150	 1.134819	 -0.867957
H	 -3.325087	 1.133730	 0.869885
H	 -4.773783	 -0.912098	 -0.876078
H	 -5.531922	 0.401392	 0.000363
H	 -4.773901	 -0.912898	 0.875703
C	 1.160599	 4.769224	 0.309049
H	 1.811721	 4.525997	 1.135544
H	 0.770645	 5.767532	 0.423782
H	 1.717079	 4.690003	 -0.613051

	symmetry c1
}
set optking {
	frozen_dihedral = ("
		9 5 8 12
	")
}

ee,wfn = optimize('scf', return_wfn=True)
oeprop( wfn, 'DIPOLE', 'QUADRUPOLE', 'MULLIKEN_CHARGES')
f=open( 'psi4out.xyz', 'w' )
f.write( "23  " )
f.write( str(ee) + "\n" )
f.write( MOL.save_string_xyz() )
f.close()
--------------------------------------------------------------------------

    Molecular point group: c1
  Charge       = 0
  Multiplicity = 1
  Basis Set: CC-PVTZ
  Basis Set:
  @DF-RHF Final Energy:  -423.11575687778549
    Total Energy =                       -423.1157568777855431
    Molecular point group: c1
  Basis Set: CC-PVTZ
  Basis Set:
  Basis Set: CC-PVTZ
  Basis Set:
  @DF-RHF Final Energy:  -423.11069797633854
    Total Energy =                       -423.1106979763384288
  Basis Set: CC-PVTZ
  Basis Set:
  Basis Set: CC-PVTZ
  Basis Set:
  @DF-RHF Final Energy:  -423.11995395397196
    Total Energy =                       -423.1199539539717307
  Basis Set: CC-PVTZ
  Basis Set:
  Basis Set: CC-PVTZ
  Basis Set:
  @DF-RHF Final Energy:  -423.12074667731656
    Total Energy =                       -423.1207466773162196
  Basis Set: CC-PVTZ
  Basis Set:
  @DF-RHF Final Energy:  -423.12078378063052
    Total Energy =                       -423.1207837806308589
  Basis Set: CC-PVTZ
  Basis Set:
  @DF-RHF Final Energy:  -423.11962760971016
    Total Energy =                       -423.1196276097098234
  Basis Set: CC-PVTZ
  Basis Set:
  Basis Set: CC-PVTZ
  Basis Set:
  @DF-RHF Final Energy:  -423.12085484128181
    Total Energy =                       -423.1208548412815844
  Basis Set: CC-PVTZ
  Basis Set:
  Basis Set: CC-PVTZ
  Basis Set:
  @DF-RHF Final Energy:  -423.12087160520588
    Total Energy =                       -423.1208716052055934
  Basis Set: CC-PVTZ
  Basis Set:
  Charge       = 0
  Multiplicity = 1
  Basis Set: CC-PVTZ
  Basis Set:

    Orbital Energies (a.u.)
    -----------------------

    Doubly Occupied:

       1A    -20.595813     2A    -20.533778     3A    -11.364058
       4A    -11.278176     5A    -11.233020     6A    -11.217541
       7A    -11.217407     8A    -11.215941     9A    -11.209237
      10A     -1.471773    11A     -1.365383    12A     -1.091407
      13A     -1.042999    14A     -0.986785    15A     -0.933022
      16A     -0.854628    17A     -0.793010    18A     -0.760383
      19A     -0.700782    20A     -0.686522    21A     -0.674067
      22A     -0.651364    23A     -0.609297    24A     -0.602757
      25A     -0.578432    26A     -0.560997    27A     -0.550152
      28A     -0.525602    29A     -0.524085    30A     -0.513306
      31A     -0.497204    32A     -0.467485    33A     -0.461721
      34A     -0.456825    35A     -0.450367    36A     -0.440667

  @DF-RHF Final Energy:  -423.12087195750928

   => Energetics <=

    Nuclear Repulsion Energy =            458.9325634386621005
    One-Electron Energy =               -1485.8748782207394470
    Two-Electron Energy =                 603.8214428245681802
    DFT Exchange-Correlation Energy =       0.0000000000000000
    Empirical Dispersion Energy =           0.0000000000000000
    PCM Polarization Energy =               0.0000000000000000
    EFP Energy =                            0.0000000000000000
    Total Energy =                       -423.1208719575091664
    Molecular point group: c1
  Basis Set: CC-PVTZ
  Basis Set:

  -Total Gradient:
     Atom            X                  Y                   Z
    ------   -----------------  -----------------  -----------------
       1       -0.000069148623    -0.000020232294     0.000003629914
       2        0.000027261052     0.000059431684     0.000003662925
       3        0.000028729873     0.000029759216    -0.000009191565
       4       -0.000028965711    -0.000073889466    -0.000001755975
       5        0.000826297136    -0.001429339516    -0.001838400744
       6       -0.000011248488     0.000006135268    -0.000003421305
       7        0.000028348060     0.000009225717     0.000015655615
       8        0.000946986383    -0.001497281031     0.001664512322
       9       -0.000861393345     0.001401355682     0.001286278549
      10       -0.000010257428    -0.000017190430     0.000010592882
      11       -0.000006390542     0.000000242178    -0.000065778209
      12       -0.000916122868     0.001508059293    -0.001104118288
      13        0.000011622317    -0.000014557900    -0.000007894671
      14        0.000018528991     0.000006794656     0.000017557276
      15       -0.000034453191    -0.000025344753     0.000010579216
      16        0.000017672991     0.000022812810     0.000007059092
      17        0.000003029990     0.000005578367     0.000003308584
      18        0.000010788663     0.000002190813     0.000008759000
      19       -0.000002950204    -0.000003360913    -0.000003744141
      20        0.000071955898     0.000040589152     0.000002481394
      21       -0.000027612391     0.000008738244    -0.000040288393
      22       -0.000000431864    -0.000019138282    -0.000001509865
      23       -0.000022246698    -0.000000578491     0.000042026385

  **** Optimization is complete! (in 9 steps) ****
    Final optimized geometry and variables:
    Molecular point group: c1

    Geometry (in Angstrom), charge = 0, multiplicity = 1:

    O            2.370350099658     0.394115949411    -0.088235448851
    C            1.312399477947     0.912143327751     0.027220312462
    C           -0.018290863409     0.202831446622     0.049410969921
    O            1.157940844362     2.220314053146     0.155584197403
    C            0.115244055189    -1.310400327464    -0.096264666118
    H           -0.503442904859     0.479310431609     0.978158433773
    H           -0.617916868623     0.639441774226    -0.739918477724
    C           -1.206718805799    -2.122022324265    -0.074742642117
    H            0.755364042015    -1.654677666985     0.705336015653
    H            0.653056651281    -1.514165158339    -1.012392491008
    C           -2.523033306515    -1.341380198836    -0.075442125416
    H           -1.221019976199    -2.772810342236    -0.942712859812
    H           -1.204696244255    -2.775582183046     0.791014338467
    C           -3.735089546748    -2.267636426980    -0.063006736253
    H           -2.577571368560    -0.702749733703    -0.951561559580
    H           -2.573665541978    -0.685073590244     0.787098072223
    H           -3.741911038058    -2.915613162331    -0.933048534032
    H           -4.659966363695    -1.702438526582    -0.064186779697
    H           -3.734984312703    -2.900399896178     0.818236425597
    C            2.326316467189     3.015186158317     0.151975631807
    H            2.976223420016     2.741775715619     0.969895054863
    H            1.993501184636     4.034085693241     0.265801394037
    H            2.863109974883     2.900087762002    -0.777934309075

  Mulliken Charges: (a.u.)
   Center  Symbol    Alpha    Beta     Spin     Total
       1     O     4.19702  4.19702  0.00000 -0.39403
       2     C     2.81394  2.81394  0.00000  0.37212
       3     C     3.09839  3.09839  0.00000 -0.19678
       4     O     4.14611  4.14611  0.00000 -0.29221
       5     C     3.09182  3.09182  0.00000 -0.18365
       6     H     0.43825  0.43825  0.00000  0.12349
       7     H     0.43753  0.43753  0.00000  0.12493
       8     C     3.09455  3.09455  0.00000 -0.18909
       9     H     0.44303  0.44303  0.00000  0.11394
      10     H     0.44286  0.44286  0.00000  0.11427
      11     C     3.09123  3.09123  0.00000 -0.18246
      12     H     0.45001  0.45001  0.00000  0.09997
      13     H     0.45010  0.45010  0.00000  0.09981
      14     C     3.15088  3.15088  0.00000 -0.30177
      15     H     0.45263  0.45263  0.00000  0.09475
      16     H     0.45274  0.45274  0.00000  0.09453
      17     H     0.45422  0.45422  0.00000  0.09157
      18     H     0.44768  0.44768  0.00000  0.10465
      19     H     0.45450  0.45450  0.00000  0.09099
      20     C     3.03876  3.03876  0.00000 -0.07752
      21     H     0.45428  0.45428  0.00000  0.09143
      22     H     0.44516  0.44516  0.00000  0.10969
      23     H     0.45431  0.45431  0.00000  0.09138

   Total alpha = 36.00000, Total beta = 36.00000, Total charge = -0.00000

*** Psi4 exiting successfully. Buy a developer a beer!
