  ==> Input File <==

--------------------------------------------------------------------------
set {
	reference rhf
	basis 6-31G*
}

set_num_threads( 1 )
memory 2 gb

molecule MOL {
0 1

H	 3.143886	 -1.517601	 2.732809
O	 3.870086	 -1.557107	 2.127710
C	 3.603814	 -2.509788	 1.129936
C	 2.549986	 -2.052026	 0.127625
H	 4.545043	 -2.674143	 0.621260
H	 3.308553	 -3.458064	 1.577565
C	 1.163099	 -1.835477	 0.737969
H	 2.892489	 -1.130684	 -0.336257
H	 2.485193	 -2.799470	 -0.661359
C	 0.115918	 -1.429151	 -0.302766
H	 1.226735	 -1.070231	 1.506548
H	 0.838333	 -2.750887	 1.232835
C	 -1.309753	 -1.282496	 0.241564
H	 0.420250	 -0.494762	 -0.770895
H	 0.107049	 -2.175435	 -1.094398
C	 -2.037799	 -0.007733	 -0.193645
H	 -1.890610	 -2.142323	 -0.085726
H	 -1.285946	 -1.330893	 1.329189
C	 -3.489788	 0.042957	 0.286558
H	 -2.017067	 0.064384	 -1.280144
H	 -1.513726	 0.868678	 0.179924
C	 -4.216917	 1.317354	 -0.141063
H	 -4.025645	 -0.823308	 -0.095450
H	 -3.513059	 -0.038752	 1.371301
H	 -4.239342	 1.411634	 -1.223113
H	 -5.243387	 1.322503	 0.212445
H	 -3.726170	 2.201406	 0.256408

	symmetry c1
}
set optking {
	frozen_dihedral = ("
		14 10 7 4,
		10 7 4 8,
		8 4 3 2,
		10 13 16 20,
		20 16 19 22,
		4 3 2 1
	")
}

ee = energy('scf')
oeprop('DIPOLE', 'QUADRUPOLE', 'MULLIKEN_CHARGES')
f=open( 'psi4out.xyz', 'w' )
f.write( "27  " )
f.write( str(ee) + "\n" )
f.write( MOL.save_string_xyz() )
f.close()
--------------------------------------------------------------------------

    Molecular point group: c1

    Geometry (in Angstrom), charge = 0, multiplicity = 1:

       Center              X                  Y                   Z               Mass
    ------------   -----------------  -----------------  -----------------  -----------------
           H          3.067883989454    -0.482916405121     2.254981527761     1.007825032070
           O          3.794083989454    -0.522422405121     1.649882527761    15.994914619560
           C          3.527811989454    -1.475103405121     0.652108527761    12.000000000000
           C          2.473983989454    -1.017341405121    -0.350202472239    12.000000000000
           H          4.469040989454    -1.639458405121     0.143432527761     1.007825032070
           H          3.232550989454    -2.423379405121     1.099737527761     1.007825032070
           C          1.087096989454    -0.800792405121     0.260141527761    12.000000000000
           H          2.816486989454    -0.095999405121    -0.814084472239     1.007825032070
           H          2.409190989454    -1.764785405121    -1.139186472239     1.007825032070
           C          0.039915989454    -0.394466405121    -0.780593472239    12.000000000000
           H          1.150732989454    -0.035546405121     1.028720527761     1.007825032070
           H          0.762330989454    -1.716202405121     0.755007527761     1.007825032070
           C         -1.385755010546    -0.247811405121    -0.236263472239    12.000000000000
           H          0.344247989454     0.539922594879    -1.248722472239     1.007825032070
           H          0.031046989454    -1.140750405121    -1.572225472239     1.007825032070
           C         -2.113801010546     1.026951594879    -0.671472472239    12.000000000000
           H         -1.966612010546    -1.107638405121    -0.563553472239     1.007825032070
           H         -1.361948010546    -0.296208405121     0.851361527761     1.007825032070
           C         -3.565790010546     1.077641594879    -0.191269472239    12.000000000000
           H         -2.093069010546     1.099068594879    -1.757971472239     1.007825032070
           H         -1.589728010546     1.903362594879    -0.297903472239     1.007825032070
           C         -4.292919010546     2.352038594879    -0.618890472239    12.000000000000
           H         -4.101647010546     0.211376594879    -0.573277472239     1.007825032070
           H         -3.589061010546     0.995932594879     0.893473527761     1.007825032070
           H         -4.315344010546     2.446318594879    -1.700940472239     1.007825032070
           H         -5.319389010546     2.357187594879    -0.265382472239     1.007825032070
           H         -3.802172010546     3.236090594879    -0.221419472239     1.007825032070

  Charge       = 0
  Multiplicity = 1
  Basis Set: 6-31G*
  Basis Set:

    Orbital Energies (a.u.)
    -----------------------

    Doubly Occupied:

       1A    -20.552308     2A    -11.267101     3A    -11.220920
       4A    -11.215920     5A    -11.215508     6A    -11.215068
       7A    -11.214741     8A    -11.214110     9A    -11.208945
      10A     -1.359075    11A     -1.093981    12A     -1.062547
      13A     -1.011344    14A     -0.950157    15A     -0.883940
      16A     -0.819629    17A     -0.792778    18A     -0.789577
      19A     -0.694190    20A     -0.651453    21A     -0.639944
      22A     -0.613177    23A     -0.598860    24A     -0.586585
      25A     -0.576894    26A     -0.551597    27A     -0.543852
      28A     -0.522268    29A     -0.509882    30A     -0.488026
      31A     -0.484978    32A     -0.475577    33A     -0.469860
      34A     -0.461055    35A     -0.453951    36A     -0.442812
      37A     -0.420722

  @DF-RHF Final Energy:  -388.27811740644825

   => Energetics <=

    Nuclear Repulsion Energy =            452.2500132598704567
    One-Electron Energy =               -1422.5094983916847013
    Two-Electron Energy =                 581.9813677253657715
    DFT Exchange-Correlation Energy =       0.0000000000000000
    Empirical Dispersion Energy =           0.0000000000000000
    PCM Polarization Energy =               0.0000000000000000
    EFP Energy =                            0.0000000000000000
    Total Energy =                       -388.2781174064484730

  Mulliken Charges: (a.u.)
   Center  Symbol    Alpha    Beta     Spin     Total
       1     H     0.27997  0.27997  0.00000  0.44005
       2     O     4.37095  4.37095  0.00000 -0.74190
       3     C     2.99736  2.99736  0.00000  0.00529
       4     C     3.16205  3.16205  0.00000 -0.32409
       5     H     0.41441  0.41441  0.00000  0.17117
       6     H     0.43202  0.43202  0.00000  0.13595
       7     C     3.16338  3.16338  0.00000 -0.32676
       8     H     0.41479  0.41479  0.00000  0.17043
       9     H     0.42414  0.42414  0.00000  0.15172
      10     C     3.15309  3.15309  0.00000 -0.30618
      11     H     0.42448  0.42448  0.00000  0.15104
      12     H     0.42453  0.42453  0.00000  0.15093
      13     C     3.15462  3.15462  0.00000 -0.30923
      14     H     0.41906  0.41906  0.00000  0.16189
      15     H     0.42130  0.42130  0.00000  0.15739
      16     C     3.15268  3.15268  0.00000 -0.30537
      17     H     0.42161  0.42161  0.00000  0.15678
      18     H     0.42251  0.42251  0.00000  0.15498
      19     C     3.15220  3.15220  0.00000 -0.30441
      20     H     0.42338  0.42338  0.00000  0.15323
      21     H     0.42310  0.42310  0.00000  0.15381
      22     C     3.23927  3.23927  0.00000 -0.47853
      23     H     0.42309  0.42309  0.00000  0.15383
      24     H     0.42321  0.42321  0.00000  0.15357
      25     H     0.42170  0.42170  0.00000  0.15660
      26     H     0.41933  0.41933  0.00000  0.16134
      27     H     0.42177  0.42177  0.00000  0.15646

   Total alpha = 37.00000, Total beta = 37.00000, Total charge = -0.00000
