                              Psi4 1.0.54 Driver

  ==> Input File <==

--------------------------------------------------------------------------
set {
	reference rhf
	basis cc-pvtz
}

set_num_threads( 4 )
memory 2 gb

molecule MOL {
0 1

H	 4.132538	 -0.482280	 -2.405624
C	 3.394752	 -0.922290	 -1.745192
C	 2.112840	 -0.097041	 -1.727421
H	 3.204869	 -1.933181	 -2.090275
H	 3.835540	 -0.988863	 -0.756106
C	 1.047771	 -0.679714	 -0.810311
H	 1.704450	 -0.020916	 -2.729013
H	 2.342242	 0.917212	 -1.409235
N	 -0.163105	 0.112105	 -0.833484
H	 0.799680	 -1.683578	 -1.141788
H	 1.455474	 -0.780853	 0.199952
C	 -1.215959	 -0.382435	 0.027143
H	 0.048785	 1.058891	 -0.596804
C	 -2.451944	 0.502410	 -0.038737
H	 -1.475081	 -1.384853	 -0.300257
H	 -0.890166	 -0.472825	 1.067704
C	 -3.752217	 -0.292550	 0.005776
H	 -2.407325	 1.093801	 -0.946480
H	 -2.431979	 1.206234	 0.790023
H	 -3.817783	 -0.982946	 -0.828547
H	 -4.612613	 0.364348	 -0.042306
H	 -3.830160	 -0.871666	 0.919868

	symmetry c1
}
set optking {
	frozen_dihedral = ("
		15 12 14 18
	")
}

ee,wfn = optimize('scf', return_wfn=True)
oeprop( wfn, 'DIPOLE', 'QUADRUPOLE', 'MULLIKEN_CHARGES')
f=open( 'psi4out.xyz', 'w' )
f.write( "22  " )
f.write( str(ee) + "\n" )
f.write( MOL.save_string_xyz() )
f.close()
--------------------------------------------------------------------------

    Molecular point group: c1
  Charge       = 0
  Multiplicity = 1
  Basis Set: CC-PVTZ
  Basis Set:
  @DF-RHF Final Energy:  -290.48592851185970
    Total Energy =                       -290.4859285118596404
    Molecular point group: c1
  Basis Set: CC-PVTZ
  Basis Set:
  Basis Set: CC-PVTZ
  Basis Set:
  @DF-RHF Final Energy:  -290.48618761597032
    Total Energy =                       -290.4861876159704934
  Basis Set: CC-PVTZ
  Basis Set:
  Basis Set: CC-PVTZ
  Basis Set:
  @DF-RHF Final Energy:  -290.48627947937979
    Total Energy =                       -290.4862794793800731
  Basis Set: CC-PVTZ
  Basis Set:
  Basis Set: CC-PVTZ
  Basis Set:
  @DF-RHF Final Energy:  -290.48628176184707
    Total Energy =                       -290.4862817618467261
  Basis Set: CC-PVTZ
  Basis Set:
  Charge       = 0
  Multiplicity = 1
  Basis Set: CC-PVTZ
  Basis Set:

    Orbital Energies (a.u.)
    -----------------------

    Doubly Occupied:

       1A    -15.529152     2A    -11.236234     3A    -11.236095
       4A    -11.211914     5A    -11.211545     6A    -11.207625
       7A    -11.207529     8A     -1.207614     9A     -1.059325
      10A     -1.026605    11A     -0.928545    12A     -0.869253
      13A     -0.812849    14A     -0.794642    15A     -0.665698
      16A     -0.629458    17A     -0.616778    18A     -0.612550
      19A     -0.573938    20A     -0.563351    21A     -0.534829
      22A     -0.527921    23A     -0.514448    24A     -0.487159
      25A     -0.479527    26A     -0.474359    27A     -0.464125
      28A     -0.451589    29A     -0.361015

  @DF-RHF Final Energy:  -290.48628212393078

   => Energetics <=

    Nuclear Repulsion Energy =            313.6619497122358098
    One-Electron Energy =               -1013.3051230855378435
    Two-Electron Energy =                 409.1568912493712560
    DFT Exchange-Correlation Energy =       0.0000000000000000
    Empirical Dispersion Energy =           0.0000000000000000
    PCM Polarization Energy =               0.0000000000000000
    EFP Energy =                            0.0000000000000000
    Total Energy =                       -290.4862821239307777
    Molecular point group: c1
  Basis Set: CC-PVTZ
  Basis Set:

  -Total Gradient:
     Atom            X                  Y                   Z
    ------   -----------------  -----------------  -----------------
       1       -0.000001287154     0.000001016777     0.000000663660
       2       -0.000000538874    -0.000001906222    -0.000000483450
       3        0.000007838442    -0.000002529250    -0.000003176347
       4        0.000000710321    -0.000000406791    -0.000000612923
       5        0.000001062423    -0.000000532143     0.000001074504
       6        0.000039142771    -0.000019966886     0.000002666905
       7       -0.000001210914    -0.000001560806    -0.000000787745
       8       -0.000000438140     0.000001940545     0.000001371328
       9       -0.000040893180    -0.000007804237     0.000005481194
      10       -0.000002383911     0.000003175290    -0.000003868665
      11       -0.000006151222     0.000004189562    -0.000004254818
      12        0.001636533729     0.002180145923    -0.004723586561
      13       -0.000004810505     0.000010598960     0.000009032059
      14       -0.003039865842    -0.004193213928    -0.001667631780
      15       -0.000920415878    -0.001151076315     0.004211166220
      16        0.000021963158     0.000002261845     0.000010001965
      17       -0.000003736394     0.000023854166    -0.000015997662
      18        0.002281189365     0.003148158830     0.002163003252
      19        0.000014554439    -0.000000868419     0.000006420111
      20        0.000006809458     0.000003783002     0.000003011456
      21       -0.000005273944     0.000001771269     0.000005718588
      22        0.000017201853    -0.000001031174     0.000000788709

  **** Optimization is complete! (in 5 steps) ****
    Final optimized geometry and variables:
    Molecular point group: c1

    Geometry (in Angstrom), charge = 0, multiplicity = 1:

    H            4.307550963484    -0.206681003660    -1.635755482386
    C            3.565390851660    -0.646751245416    -0.980262462089
    C            2.271757535104     0.159966898206    -0.996707275030
    H            3.395596586653    -1.665702674192    -1.311849349872
    H            3.990720074308    -0.690955775600     0.016815601607
    C            1.199822172398    -0.424241102068    -0.088635139344
    H            1.879444563492     0.214880503670    -2.006040212651
    H            2.481134415083     1.182139156255    -0.690252008452
    N           -0.021736725227     0.349359385338    -0.144132349650
    H            0.970753576339    -1.436279939253    -0.408988646892
    H            1.591241803842    -0.504762345472     0.929761539060
    C           -1.082717630801    -0.155252947902     0.700138865931
    H            0.171440482301     1.300622550825     0.092067014585
    C           -2.316286529233     0.752945251022     0.681155578194
    H           -1.354231872859    -1.152522909185     0.368412888248
    H           -0.751663368188    -0.282707561057     1.735155882582
    C           -3.632338353477    -0.007277691155     0.784482225847
    H           -2.289512645052     1.356159331819    -0.219490084501
    H           -2.249866976730     1.459271964645     1.504553908827
    H           -3.770377725951    -0.663281672607    -0.067891852714
    H           -4.475821475043     0.672132727607     0.822789455616
    H           -3.661402903074    -0.618975709197     1.680608313733

  Mulliken Charges: (a.u.)
   Center  Symbol    Alpha    Beta     Spin     Total
       1     H     0.44769  0.44769  0.00000  0.10462
       2     C     3.15360  3.15360  0.00000 -0.30720
       3     C     3.08011  3.08011  0.00000 -0.16022
       4     H     0.45473  0.45473  0.00000  0.09054
       5     H     0.45615  0.45615  0.00000  0.08770
       6     C     3.02197  3.02197  0.00000 -0.04395
       7     H     0.44912  0.44912  0.00000  0.10176
       8     H     0.45973  0.45973  0.00000  0.08053
       9     N     3.63607  3.63607  0.00000 -0.27215
      10     H     0.45912  0.45912  0.00000  0.08176
      11     H     0.47403  0.47403  0.00000  0.05194
      12     C     3.02469  3.02469  0.00000 -0.04939
      13     H     0.44511  0.44511  0.00000  0.10978
      14     C     3.08761  3.08761  0.00000 -0.17521
      15     H     0.46085  0.46085  0.00000  0.07831
      16     H     0.47470  0.47470  0.00000  0.05060
      17     C     3.15044  3.15044  0.00000 -0.30088
      18     H     0.45139  0.45139  0.00000  0.09723
      19     H     0.45513  0.45513  0.00000  0.08974
      20     H     0.45312  0.45312  0.00000  0.09376
      21     H     0.44911  0.44911  0.00000  0.10178
      22     H     0.45553  0.45553  0.00000  0.08895

   Total alpha = 29.00000, Total beta = 29.00000, Total charge =  0.00000

*** Psi4 exiting successfully. Buy a developer a beer!
