                              Psi4 1.0.54 Driver

  ==> Input File <==

--------------------------------------------------------------------------
set {
	reference rhf
	basis cc-pvtz
}

set_num_threads( 4 )
memory 2 gb

molecule MOL {
0 1

H	 1.834595	 -0.845567	 0.894241
O	 1.583947	 -0.677544	 -0.001533
C	 0.489979	 0.078084	 0.002623
C	 -0.763662	 -0.754014	 0.000816
O	 0.539051	 1.259395	 -0.000088
C	 -2.038001	 0.074705	 -0.000833
H	 -0.712945	 -1.405886	 -0.864342
H	 -0.715137	 -1.405770	 0.866182
H	 -2.087267	 0.710831	 -0.874232
H	 -2.903419	 -0.576199	 -0.001922
H	 -2.089467	 0.710909	 0.872389

	symmetry c1
}
set optking {
	frozen_dihedral = ("
		1 2 3 5
	")
}

ee,wfn = optimize('scf', return_wfn=True)
oeprop( wfn, 'DIPOLE', 'QUADRUPOLE', 'MULLIKEN_CHARGES')
f=open( 'psi4out.xyz', 'w' )
f.write( "11  " )
f.write( str(ee) + "\n" )
f.write( MOL.save_string_xyz() )
f.close()
--------------------------------------------------------------------------

    Molecular point group: c1
  Charge       = 0
  Multiplicity = 1
  Basis Set: CC-PVTZ
  Basis Set:
  @DF-RHF Final Energy:  -266.93193066463095
    Total Energy =                       -266.9319306646308405
    Molecular point group: c1
  Basis Set: CC-PVTZ
  Basis Set:
  Basis Set: CC-PVTZ
  Basis Set:
  @DF-RHF Final Energy:  -266.93258550660391
    Total Energy =                       -266.9325855066039139
  Basis Set: CC-PVTZ
  Basis Set:
  Basis Set: CC-PVTZ
  Basis Set:
  @DF-RHF Final Energy:  -266.93340661470438
    Total Energy =                       -266.9334066147044950
  Basis Set: CC-PVTZ
  Basis Set:
  Basis Set: CC-PVTZ
  Basis Set:
  @DF-RHF Final Energy:  -266.93358902947125
    Total Energy =                       -266.9335890294710794
  Basis Set: CC-PVTZ
  Basis Set:
  Basis Set: CC-PVTZ
  Basis Set:
  @DF-RHF Final Energy:  -266.93359143748512
    Total Energy =                       -266.9335914374850063
  Basis Set: CC-PVTZ
  Basis Set:
  Charge       = 0
  Multiplicity = 1
  Basis Set: CC-PVTZ
  Basis Set:

    Orbital Energies (a.u.)
    -----------------------

    Doubly Occupied:

       1A    -20.586726     2A    -20.551862     3A    -11.375048
       4A    -11.245184     5A    -11.220444     6A     -1.464326
       7A     -1.371553     8A     -1.065691     9A     -0.911572
      10A     -0.809674    11A     -0.714542    12A     -0.678077
      13A     -0.661936    14A     -0.615689    15A     -0.570002
      16A     -0.530621    17A     -0.523360    18A     -0.501128
      19A     -0.497823    20A     -0.449470

  @DF-RHF Final Energy:  -266.93359511680353

   => Energetics <=

    Nuclear Repulsion Energy =            179.3636179942500632
    One-Electron Energy =                -719.9049747430674415
    Two-Electron Energy =                 273.6077616320138191
    DFT Exchange-Correlation Energy =       0.0000000000000000
    Empirical Dispersion Energy =           0.0000000000000000
    PCM Polarization Energy =               0.0000000000000000
    EFP Energy =                            0.0000000000000000
    Total Energy =                       -266.9335951168035876
    Molecular point group: c1
  Basis Set: CC-PVTZ
  Basis Set:

  -Total Gradient:
     Atom            X                  Y                   Z
    ------   -----------------  -----------------  -----------------
       1       -0.001324561427    -0.001864261531     0.000124815582
       2        0.001492624064     0.002363374085    -0.001069812590
       3        0.000069977606    -0.000415689247     0.002921246627
       4        0.000005881370     0.000037130144     0.000002008510
       5       -0.000220141782    -0.000122700725    -0.001985730194
       6       -0.000021763238    -0.000003925335     0.000006304920
       7        0.000013201673     0.000003674196    -0.000000558266
       8       -0.000008736764     0.000006164156    -0.000011726529
       9        0.000010145253    -0.000014092737     0.000013939585
      10       -0.000011567989     0.000005798853     0.000000327074
      11       -0.000005058769     0.000004528142    -0.000000814719

  **** Optimization is complete! (in 6 steps) ****
    Final optimized geometry and variables:
    Molecular point group: c1

    Geometry (in Angstrom), charge = 0, multiplicity = 1:

    H            1.985915289204    -0.840365535517     0.764065512804
    O            1.611328363841    -0.689592482640    -0.087808872619
    C            0.492351509590     0.080788734002    -0.021385738594
    C           -0.776462708682    -0.725562087690     0.066755378298
    O            0.547230387808     1.251019277611    -0.092165649373
    C           -2.041486820865     0.116375571012     0.091144164675
    H           -0.768545915242    -1.410169044618    -0.774651328576
    H           -0.701159793670    -1.352005396561     0.950913863970
    H           -2.120632009291     0.721451828521    -0.801871668162
    H           -2.914074103386    -0.522398615498     0.150480518610
    H           -2.048900073012     0.784777985278     0.941942887947

  Mulliken Charges: (a.u.)
   Center  Symbol    Alpha    Beta     Spin     Total
       1     H     0.38765  0.38765  0.00000  0.22470
       2     O     4.17543  4.17543  0.00000 -0.35086
       3     C     2.80241  2.80241  0.00000  0.39518
       4     C     3.10245  3.10245  0.00000 -0.20490
       5     O     4.16071  4.16071  0.00000 -0.32143
       6     C     3.13924  3.13924  0.00000 -0.27848
       7     H     0.43782  0.43782  0.00000  0.12436
       8     H     0.44931  0.44931  0.00000  0.10138
       9     H     0.44598  0.44598  0.00000  0.10804
      10     H     0.45001  0.45001  0.00000  0.09997
      11     H     0.44898  0.44898  0.00000  0.10204

   Total alpha = 20.00000, Total beta = 20.00000, Total charge =  0.00000

*** Psi4 exiting successfully. Buy a developer a beer!
