                              Psi4 1.0.54 Driver

  ==> Input File <==

--------------------------------------------------------------------------
set {
	reference rhf
	basis cc-pvtz
}

set_num_threads( 4 )
memory 2 gb

molecule MOL {
0 1

O	 -2.071633	 -1.227563	 -0.223463
C	 -1.652164	 -0.152425	 0.058082
C	 -0.327811	 0.006324	 0.778296
C	 -2.402515	 1.108629	 -0.298924
C	 0.843231	 -0.001575	 -0.211665
H	 -0.319484	 0.928173	 1.350354
H	 -0.227804	 -0.823091	 1.466705
C	 2.197693	 0.138030	 0.476937
H	 0.722944	 0.805202	 -0.930230
H	 0.813976	 -0.926978	 -0.776588
C	 2.785158	 -1.201581	 0.907621
H	 2.892180	 0.638841	 -0.191943
H	 2.091275	 0.781756	 1.345171
H	 2.936207	 -1.855604	 0.055287
H	 2.126783	 -1.711766	 1.602331
H	 3.743338	 -1.069096	 1.396231
H	 -3.240910	 0.874416	 -0.936711
H	 -1.747554	 1.818823	 -0.790984
H	 -2.760419	 1.579708	 0.610998

	symmetry c1
}
set optking {
	frozen_dihedral = ("
		11 8 5 9
	")
}

ee,wfn = optimize('scf', return_wfn=True)
oeprop( wfn, 'DIPOLE', 'QUADRUPOLE', 'MULLIKEN_CHARGES')
f=open( 'psi4out.xyz', 'w' )
f.write( "19  " )
f.write( str(ee) + "\n" )
f.write( MOL.save_string_xyz() )
f.close()
--------------------------------------------------------------------------

    Molecular point group: c1
  Charge       = 0
  Multiplicity = 1
  Basis Set: CC-PVTZ
  Basis Set:
  @DF-RHF Final Energy:  -309.17406715709501
    Total Energy =                       -309.1740671570953509
    Molecular point group: c1
  Basis Set: CC-PVTZ
  Basis Set:
  Basis Set: CC-PVTZ
  Basis Set:
  @DF-RHF Final Energy:  -309.17421532975811
    Total Energy =                       -309.1742153297581126
  Basis Set: CC-PVTZ
  Basis Set:
  Basis Set: CC-PVTZ
  Basis Set:
  @DF-RHF Final Energy:  -309.17431538577256
    Total Energy =                       -309.1743153857725019
  Basis Set: CC-PVTZ
  Basis Set:
  Basis Set: CC-PVTZ
  Basis Set:
  @DF-RHF Final Energy:  -309.17394508841960
    Total Energy =                       -309.1739450884195435
  Basis Set: CC-PVTZ
  Basis Set:
  Basis Set: CC-PVTZ
  Basis Set:
  @DF-RHF Final Energy:  -309.17431322986545
    Total Energy =                       -309.1743132298654473
  Basis Set: CC-PVTZ
  Basis Set:
  Basis Set: CC-PVTZ
  Basis Set:
  @DF-RHF Final Energy:  -309.17434952531818
    Total Energy =                       -309.1743495253180072
  Basis Set: CC-PVTZ
  Basis Set:
  Basis Set: CC-PVTZ
  Basis Set:
  @DF-RHF Final Energy:  -309.17435386236190
    Total Energy =                       -309.1743538623614995
  Basis Set: CC-PVTZ
  Basis Set:
  Charge       = 0
  Multiplicity = 1
  Basis Set: CC-PVTZ
  Basis Set:

    Orbital Energies (a.u.)
    -----------------------

    Doubly Occupied:

       1A    -20.536986     2A    -11.319470     3A    -11.228685
       4A    -11.227984     5A    -11.226967     6A    -11.222885
       7A    -11.211877     8A     -1.397149     9A     -1.091735
      10A     -1.029129    11A     -0.982783    12A     -0.896102
      13A     -0.802598    14A     -0.736850    15A     -0.657042
      16A     -0.654160    17A     -0.620794    18A     -0.605558
      19A     -0.598619    20A     -0.577046    21A     -0.546129
      22A     -0.538692    23A     -0.519410    24A     -0.500924
      25A     -0.480782    26A     -0.477472    27A     -0.463790
      28A     -0.399389

  @DF-RHF Final Energy:  -309.17435424922309

   => Energetics <=

    Nuclear Repulsion Energy =            304.1285186334769719
    One-Electron Energy =               -1021.5037393393321281
    Two-Electron Energy =                 408.2008664566320704
    DFT Exchange-Correlation Energy =       0.0000000000000000
    Empirical Dispersion Energy =           0.0000000000000000
    PCM Polarization Energy =               0.0000000000000000
    EFP Energy =                            0.0000000000000000
    Total Energy =                       -309.1743542492230290
    Molecular point group: c1
  Basis Set: CC-PVTZ
  Basis Set:

  -Total Gradient:
     Atom            X                  Y                   Z
    ------   -----------------  -----------------  -----------------
       1        0.000037119123     0.000112292687     0.000028258540
       2       -0.000011039254    -0.000064955189    -0.000043508043
       3       -0.000019169337    -0.000007538622     0.000021058719
       4       -0.000011993051    -0.000011582716     0.000007600510
       5       -0.001108115386     0.002305424040     0.001993081547
       6       -0.000005311328    -0.000021731081    -0.000015080163
       7       -0.000004260370     0.000017772730    -0.000008031603
       8       -0.001114007048    -0.000066924810     0.002441591043
       9        0.001222138933    -0.001967176513    -0.002294956223
      10        0.000003757927     0.000019764871     0.000005137944
      11        0.001019024028    -0.000281686502    -0.002142345015
      12       -0.000012885223    -0.000019505364     0.000014271042
      13        0.000000946834    -0.000011239263    -0.000015327210
      14        0.000003087988     0.000015730979     0.000010816714
      15        0.000005310903     0.000006424005    -0.000007893946
      16       -0.000022104554     0.000002060496    -0.000007242939
      17        0.000018992562     0.000001538687     0.000012273173
      18       -0.000006249555    -0.000023850851     0.000010759255
      19        0.000004756808    -0.000004817585    -0.000010463344

  **** Optimization is complete! (in 8 steps) ****
    Final optimized geometry and variables:
    Molecular point group: c1

    Geometry (in Angstrom), charge = 0, multiplicity = 1:

    O           -1.998421026438    -1.020897953540    -0.350216482903
    C           -1.569476057971     0.061680547376    -0.115562452991
    C           -0.229625087311     0.240770262906     0.570504121104
    C           -2.323333155306     1.312432628819    -0.500084846355
    C            0.919573265395     0.201435939933    -0.444618630605
    H           -0.207291426607     1.181422294080     1.110282607452
    H           -0.119498623224    -0.565022660699     1.284279186759
    C            2.307659292510     0.304199102390     0.200533235537
    H            0.799819594670     0.993529148828    -1.177067980741
    H            0.852665534848    -0.725842283697    -1.003742002738
    C            2.874689236554    -1.040175818311     0.648589086566
    H            2.994464097147     0.741151826829    -0.516833603463
    H            2.272714247034     0.991464278184     1.040527869946
    H            2.995390514959    -1.706873507629    -0.197746980133
    H            2.226814965973    -1.532691904395     1.365399716690
    H            3.845037410297    -0.916128257300     1.115239719624
    H           -3.175354759494     1.059461995405    -1.112071274547
    H           -1.676585379058     2.003060349925    -1.029296843919
    H           -2.661202739623     1.815405081167     0.400375247548

  Mulliken Charges: (a.u.)
   Center  Symbol    Alpha    Beta     Spin     Total
       1     O     4.17708  4.17708  0.00000 -0.35417
       2     C     2.85809  2.85809  0.00000  0.28382
       3     C     3.09889  3.09889  0.00000 -0.19778
       4     C     3.15509  3.15509  0.00000 -0.31018
       5     C     3.10607  3.10607  0.00000 -0.21214
       6     H     0.44915  0.44915  0.00000  0.10171
       7     H     0.43862  0.43862  0.00000  0.12276
       8     C     3.09059  3.09059  0.00000 -0.18119
       9     H     0.44503  0.44503  0.00000  0.10995
      10     H     0.44318  0.44318  0.00000  0.11364
      11     C     3.14647  3.14647  0.00000 -0.29293
      12     H     0.44738  0.44738  0.00000  0.10524
      13     H     0.45454  0.45454  0.00000  0.09092
      14     H     0.45292  0.45292  0.00000  0.09416
      15     H     0.45370  0.45370  0.00000  0.09260
      16     H     0.44781  0.44781  0.00000  0.10437
      17     H     0.43614  0.43614  0.00000  0.12772
      18     H     0.45090  0.45090  0.00000  0.09819
      19     H     0.44834  0.44834  0.00000  0.10333

   Total alpha = 28.00000, Total beta = 28.00000, Total charge = -0.00000

*** Psi4 exiting successfully. Buy a developer a beer!
