                              Psi4 1.0.54 Driver

  ==> Input File <==

--------------------------------------------------------------------------
set {
	reference rhf
	basis cc-pvtz
}

set_num_threads( 4 )
memory 2 gb

molecule MOL {
0 1

H	 -1.681263	 2.172267	 0.733519
C	 -1.813080	 1.263695	 1.305656
C	 -0.522540	 0.460979	 1.360118
H	 -2.604461	 0.694975	 0.836093
H	 -2.131229	 1.531979	 2.306010
C	 0.000000	 0.039916	 0.000014
H	 -0.651947	 -0.438504	 1.956007
H	 0.263246	 1.025921	 1.854358
C	 1.286532	 -0.763243	 0.000268
O	 -0.564864	 0.322373	 -1.005733
C	 2.547023	 0.087626	 -0.000114
H	 1.264245	 -1.421103	 -0.864380
H	 1.264290	 -1.420353	 0.865489
H	 2.584452	 0.725630	 -0.872909
H	 3.427035	 -0.544422	 0.000125
H	 2.584484	 0.726356	 0.872143

	symmetry c1
}
set optking {
	frozen_dihedral = ("
		3 6 9 12
	")
}

ee,wfn = optimize('scf', return_wfn=True)
oeprop( wfn, 'DIPOLE', 'QUADRUPOLE', 'MULLIKEN_CHARGES')
f=open( 'psi4out.xyz', 'w' )
f.write( "16  " )
f.write( str(ee) + "\n" )
f.write( MOL.save_string_xyz() )
f.close()
--------------------------------------------------------------------------

    Molecular point group: c1
  Charge       = 0
  Multiplicity = 1
  Basis Set: CC-PVTZ
  Basis Set:
  @DF-RHF Final Energy:  -270.12899959750047
    Total Energy =                       -270.1289995975004103
    Molecular point group: c1
  Basis Set: CC-PVTZ
  Basis Set:
  Basis Set: CC-PVTZ
  Basis Set:
  @DF-RHF Final Energy:  -270.12967396896397
    Total Energy =                       -270.1296739689639708
  Basis Set: CC-PVTZ
  Basis Set:
  Basis Set: CC-PVTZ
  Basis Set:
  @DF-RHF Final Energy:  -270.12979639431182
    Total Energy =                       -270.1297963943117679
  Basis Set: CC-PVTZ
  Basis Set:
  Basis Set: CC-PVTZ
  Basis Set:
  @DF-RHF Final Energy:  -270.12986738190557
    Total Energy =                       -270.1298673819053988
  Basis Set: CC-PVTZ
  Basis Set:
  Basis Set: CC-PVTZ
  Basis Set:
  @DF-RHF Final Energy:  -270.12989476738773
    Total Energy =                       -270.1298947673877251
  Basis Set: CC-PVTZ
  Basis Set:
  Basis Set: CC-PVTZ
  Basis Set:
  @DF-RHF Final Energy:  -270.12990775610399
    Total Energy =                       -270.1299077561043873
  Basis Set: CC-PVTZ
  Basis Set:
  Basis Set: CC-PVTZ
  Basis Set:
  @DF-RHF Final Energy:  -270.12990973071834
    Total Energy =                       -270.1299097307182819
  Basis Set: CC-PVTZ
  Basis Set:
  Charge       = 0
  Multiplicity = 1
  Basis Set: CC-PVTZ
  Basis Set:

    Orbital Energies (a.u.)
    -----------------------

    Doubly Occupied:

       1A    -20.537569     2A    -11.317100     3A    -11.232596
       4A    -11.230499     5A    -11.225983     6A    -11.211789
       7A     -1.397677     8A     -1.072795     9A     -1.037438
      10A     -0.912602    11A     -0.856936    12A     -0.727824
      13A     -0.665816    14A     -0.644720    15A     -0.625636
      16A     -0.604406    17A     -0.566515    18A     -0.540460
      19A     -0.533649    20A     -0.511804    21A     -0.503729
      22A     -0.499757    23A     -0.481156    24A     -0.398311

  @DF-RHF Final Energy:  -270.12990988356387

   => Energetics <=

    Nuclear Repulsion Energy =            241.0517575118981028
    One-Electron Energy =                -843.6898021341717140
    Two-Electron Energy =                 332.5081347387097139
    DFT Exchange-Correlation Energy =       0.0000000000000000
    Empirical Dispersion Energy =           0.0000000000000000
    PCM Polarization Energy =               0.0000000000000000
    EFP Energy =                            0.0000000000000000
    Total Energy =                       -270.1299098835638688
    Molecular point group: c1
  Basis Set: CC-PVTZ
  Basis Set:

  -Total Gradient:
     Atom            X                  Y                   Z
    ------   -----------------  -----------------  -----------------
       1       -0.000012987889     0.000000110048     0.000004100260
       2        0.000003116770     0.000006585353    -0.000016873512
       3        0.000219282617     0.000329888476    -0.000007771920
       4        0.000008705245     0.000007473522     0.000008591391
       5       -0.000001649349    -0.000000334785    -0.000004178084
       6       -0.000247010802    -0.000429684525    -0.000046032684
       7        0.000016955490     0.000009331801    -0.000020037307
       8       -0.000009448120    -0.000003662771     0.000004459909
       9       -0.000206017015    -0.000299312578     0.000361406233
      10       -0.000032223304     0.000003123925     0.000006622960
      11        0.000038110052     0.000013775301     0.000001109292
      12        0.000234581820     0.000374402212    -0.000288386073
      13       -0.000010147917    -0.000004004845    -0.000004348961
      14       -0.000003555507    -0.000006940618     0.000011685831
      15        0.000003997277     0.000007185324     0.000000482063
      16       -0.000001709372    -0.000007935838    -0.000010829399

  **** Optimization is complete! (in 8 steps) ****
    Final optimized geometry and variables:
    Molecular point group: c1

    Geometry (in Angstrom), charge = 0, multiplicity = 1:

    H           -1.633823662393     2.030584698401     0.508584617290
    C           -1.912100355288     1.108005611640     1.001295020690
    C           -0.728134530925     0.158201484159     1.089364672826
    H           -2.720347478679     0.667031056469     0.434296412582
    H           -2.277947641161     1.347404587805     1.992624476026
    C           -0.159695010175    -0.249828567544    -0.254251395863
    H           -1.006679646097    -0.758940245047     1.603474456522
    H            0.075123110552     0.587581360356     1.681275785942
    C            1.134133994798    -1.041159872216    -0.241791178289
    O           -0.685389284843     0.045185994435    -1.278145146549
    C            2.350114067211    -0.110153457091    -0.295710494823
    H            1.131696061769    -1.683601619469    -1.111896778358
    H            1.184786006240    -1.662119430828     0.645638021540
    H            2.323795940668     0.497780827217    -1.190934134847
    H            3.265629905961    -0.687930678874    -0.305761686591
    H            2.387333565163     0.551720481224     0.561931178182

  Mulliken Charges: (a.u.)
   Center  Symbol    Alpha    Beta     Spin     Total
       1     H     0.44959  0.44959  0.00000  0.10081
       2     C     3.14118  3.14118  0.00000 -0.28235
       3     C     3.10621  3.10621  0.00000 -0.21243
       4     H     0.44574  0.44574  0.00000  0.10852
       5     H     0.45073  0.45073  0.00000  0.09854
       6     C     2.86195  2.86195  0.00000  0.27610
       7     H     0.44494  0.44494  0.00000  0.11012
       8     H     0.44523  0.44523  0.00000  0.10953
       9     C     3.09588  3.09588  0.00000 -0.19175
      10     O     4.17732  4.17732  0.00000 -0.35465
      11     C     3.14968  3.14968  0.00000 -0.29936
      12     H     0.43832  0.43832  0.00000  0.12336
      13     H     0.44958  0.44958  0.00000  0.10084
      14     H     0.44359  0.44359  0.00000  0.11282
      15     H     0.44586  0.44586  0.00000  0.10827
      16     H     0.45419  0.45419  0.00000  0.09161

   Total alpha = 24.00000, Total beta = 24.00000, Total charge = -0.00000

*** Psi4 exiting successfully. Buy a developer a beer!
