                              Psi4 1.0.54 Driver

  ==> Input File <==

--------------------------------------------------------------------------
set {
	reference rhf
	basis cc-pvtz
}

set_num_threads( 4 )
memory 2 gb

molecule MOL {
0 1

H	 1.933355	 -3.771547	 0.341952
C	 2.178583	 -2.719836	 0.253203
C	 0.917308	 -1.868921	 0.154304
H	 2.769318	 -2.444938	 1.120672
H	 2.805619	 -2.600327	 -0.624043
C	 1.215950	 -0.382441	 0.027187
H	 0.293395	 -2.024080	 1.027473
H	 0.332716	 -2.190533	 -0.704413
N	 0.000002	 0.398953	 -0.040851
H	 1.778471	 -0.054399	 0.896168
H	 1.862729	 -0.215664	 -0.839384
C	 -1.215959	 -0.382435	 0.027143
H	 -0.000012	 1.086078	 0.683841
C	 -2.451944	 0.502410	 -0.038737
H	 -1.221867	 -1.069392	 -0.813828
H	 -1.259993	 -0.999709	 0.929424
C	 -3.752217	 -0.292550	 0.005776
H	 -2.407325	 1.093801	 -0.946480
H	 -2.431979	 1.206234	 0.790023
H	 -3.817783	 -0.982946	 -0.828547
H	 -4.612613	 0.364348	 -0.042306
H	 -3.830160	 -0.871666	 0.919868

	symmetry c1
}
set optking {
	frozen_dihedral = ("
		10 6 9 12
	")
}

ee,wfn = optimize('scf', return_wfn=True)
oeprop( wfn, 'DIPOLE', 'QUADRUPOLE', 'MULLIKEN_CHARGES')
f=open( 'psi4out.xyz', 'w' )
f.write( "22  " )
f.write( str(ee) + "\n" )
f.write( MOL.save_string_xyz() )
f.close()
--------------------------------------------------------------------------

    Molecular point group: c1
  Charge       = 0
  Multiplicity = 1
  Basis Set: CC-PVTZ
  Basis Set:
  @DF-RHF Final Energy:  -290.46853647872501
    Total Energy =                       -290.4685364787250137
    Molecular point group: c1
  Basis Set: CC-PVTZ
  Basis Set:
  Basis Set: CC-PVTZ
  Basis Set:
  @DF-RHF Final Energy:  -290.45087687264089
    Total Energy =                       -290.4508768726410608
  Basis Set: CC-PVTZ
  Basis Set:
  Basis Set: CC-PVTZ
  Basis Set:
  @DF-RHF Final Energy:  -290.47510842859958
    Total Energy =                       -290.4751084285991851
  Basis Set: CC-PVTZ
  Basis Set:
  Basis Set: CC-PVTZ
  Basis Set:
  @DF-RHF Final Energy:  -290.47799459055193
    Total Energy =                       -290.4779945905518161
  Basis Set: CC-PVTZ
  Basis Set:
  @DF-RHF Final Energy:  -290.47855306549349
    Total Energy =                       -290.4785530654938839
  Basis Set: CC-PVTZ
  Basis Set:
  @DF-RHF Final Energy:  -290.47865448027977
    Total Energy =                       -290.4786544802798858
  Basis Set: CC-PVTZ
  Basis Set:
  Basis Set: CC-PVTZ
  Basis Set:
  @DF-RHF Final Energy:  -290.47866483958921
    Total Energy =                       -290.4786648395894417
  Basis Set: CC-PVTZ
  Basis Set:
  Basis Set: CC-PVTZ
  Basis Set:
  @DF-RHF Final Energy:  -290.47866825616677
    Total Energy =                       -290.4786682561668272
  Basis Set: CC-PVTZ
  Basis Set:
  Charge       = 0
  Multiplicity = 1
  Basis Set: CC-PVTZ
  Basis Set:

    Orbital Energies (a.u.)
    -----------------------

    Doubly Occupied:

       1A    -15.522444     2A    -11.237126     3A    -11.235078
       4A    -11.213690     5A    -11.210278     6A    -11.208556
       7A    -11.206512     8A     -1.197153     9A     -1.058080
      10A     -1.028597    11A     -0.929940    12A     -0.875191
      13A     -0.814227    14A     -0.779644    15A     -0.667830
      16A     -0.627377    17A     -0.621054    18A     -0.613458
      19A     -0.569324    20A     -0.558786    21A     -0.540203
      22A     -0.532692    23A     -0.503919    24A     -0.488354
      25A     -0.480820    26A     -0.473680    27A     -0.464801
      28A     -0.460044    29A     -0.347012

  @DF-RHF Final Energy:  -290.47866882495333

   => Energetics <=

    Nuclear Repulsion Energy =            318.2018839005516497
    One-Electron Energy =               -1022.4293659791704840
    Two-Electron Energy =                 413.7488132536656167
    DFT Exchange-Correlation Energy =       0.0000000000000000
    Empirical Dispersion Energy =           0.0000000000000000
    PCM Polarization Energy =               0.0000000000000000
    EFP Energy =                            0.0000000000000000
    Total Energy =                       -290.4786688249531608
    Molecular point group: c1
  Basis Set: CC-PVTZ
  Basis Set:

  -Total Gradient:
     Atom            X                  Y                   Z
    ------   -----------------  -----------------  -----------------
       1       -0.000001861916    -0.000004083154    -0.000000548658
       2        0.000006901166     0.000006480561    -0.000011643874
       3       -0.000015396319    -0.000016056900     0.000016655425
       4       -0.000008746327    -0.000001910478    -0.000001257545
       5        0.000006867607    -0.000000381187    -0.000003144107
       6        0.000042391358     0.000102192822    -0.000041482863
       7       -0.000010995916    -0.000001363963     0.000008609370
       8        0.000007187778     0.000000522106     0.000001978224
       9        0.000007668532    -0.000056929032    -0.000066844781
      10       -0.000048821301    -0.000050452450     0.000045658628
      11        0.000006671732     0.000007589991     0.000001975477
      12        0.000011586728     0.000010576660     0.000044303018
      13        0.000013037035     0.000010660291    -0.000000768242
      14       -0.000003243177    -0.000001465165     0.000006145117
      15       -0.000005452651    -0.000010118268    -0.000003710410
      16        0.000004342624     0.000003040671    -0.000000581327
      17       -0.000008134358     0.000001741371     0.000000991536
      18        0.000001543886    -0.000004956099    -0.000000094672
      19       -0.000002790913     0.000003522907     0.000001452280
      20        0.000001481473     0.000002546777     0.000000782206
      21       -0.000003300724    -0.000001397132     0.000001666190
      22       -0.000000936321     0.000000239671    -0.000000140991

  **** Optimization is complete! (in 9 steps) ****
    Final optimized geometry and variables:
    Molecular point group: c1

    Geometry (in Angstrom), charge = 0, multiplicity = 1:

    H            2.813058589662    -3.042870359017     0.214766094187
    C            2.893220020447    -1.963551292251     0.161672028183
    C            1.513873001355    -1.314522102937     0.100878863836
    H            3.447054309162    -1.630224102813     1.032985913761
    H            3.481221196120    -1.718730017362    -0.716350367043
    C            1.619788235738     0.205649790343     0.008297096173
    H            0.945440528834    -1.598972304897     0.979398225901
    H            0.978319890474    -1.703061797359    -0.757983022315
    N            0.365232103474     0.954952687159    -0.068873727933
    H            2.188544488944     0.550252483486     0.868432099220
    H            2.222144368206     0.443913427137    -0.864630449477
    C           -0.911249790813     0.275182786598    -0.002294376112
    H            0.378842567024     1.705260699107     0.583751964712
    C           -2.049223330163     1.276538328351    -0.147314794933
    H           -0.975079021674    -0.441144259104    -0.812728914898
    H           -1.055610015264    -0.286510873924     0.922797398925
    C           -3.424409890407     0.619610461707    -0.103028264422
    H           -1.921827302785     1.814268794930    -1.080145523860
    H           -1.978551963926     2.015495468446     0.647615907738
    H           -3.539761141695    -0.102276252758    -0.904710944692
    H           -4.211902194536     1.356533570387    -0.208310862887
    H           -3.583891522000     0.098766806554     0.835238249401

  Mulliken Charges: (a.u.)
   Center  Symbol    Alpha    Beta     Spin     Total
       1     H     0.44723  0.44723  0.00000  0.10555
       2     C     3.15229  3.15229  0.00000 -0.30459
       3     C     3.09787  3.09787  0.00000 -0.19574
       4     H     0.45546  0.45546  0.00000  0.08909
       5     H     0.45417  0.45417  0.00000  0.09167
       6     C     3.01829  3.01829  0.00000 -0.03657
       7     H     0.45111  0.45111  0.00000  0.09777
       8     H     0.45001  0.45001  0.00000  0.09999
       9     N     3.64506  3.64506  0.00000 -0.29012
      10     H     0.46634  0.46634  0.00000  0.06732
      11     H     0.46033  0.46033  0.00000  0.07933
      12     C     3.02391  3.02391  0.00000 -0.04781
      13     H     0.44368  0.44368  0.00000  0.11263
      14     C     3.08114  3.08114  0.00000 -0.16229
      15     H     0.45810  0.45810  0.00000  0.08380
      16     H     0.47219  0.47219  0.00000  0.05561
      17     C     3.15366  3.15366  0.00000 -0.30732
      18     H     0.44953  0.44953  0.00000  0.10094
      19     H     0.46058  0.46058  0.00000  0.07883
      20     H     0.45499  0.45499  0.00000  0.09002
      21     H     0.44778  0.44778  0.00000  0.10443
      22     H     0.45628  0.45628  0.00000  0.08744

   Total alpha = 29.00000, Total beta = 29.00000, Total charge =  0.00000

*** Psi4 exiting successfully. Buy a developer a beer!
