  ==> Input File <==

--------------------------------------------------------------------------
set {
	reference rhf
	basis 6-31G*
}

set_num_threads( 1 )
memory 2 gb

molecule MOL {
0 1

H	 -3.135461	 -1.215070	 0.001379
O	 -2.310168	 -0.871793	 -0.309793
C	 -2.026376	 0.340750	 0.341611
C	 -0.673256	 0.843270	 -0.132153
H	 -2.792215	 1.080697	 0.115987
H	 -2.013526	 0.200402	 1.421792
C	 0.486613	 -0.083066	 0.235839
H	 -0.715586	 0.970948	 -1.210718
H	 -0.508072	 1.829858	 0.297090
C	 0.244355	 -1.535196	 -0.179424
H	 0.655597	 -0.033212	 1.306573
H	 1.398224	 0.278110	 -0.238880
C	 1.405954	 -2.459835	 0.183071
H	 -0.665434	 -1.897462	 0.294669
H	 0.068154	 -1.581736	 -1.252378
H	 1.584428	 -2.461763	 1.254535
H	 1.205475	 -3.482706	 -0.121044
H	 2.324830	 -2.144281	 -0.303349

	symmetry c1
}
set optking {
	frozen_dihedral = ("
		14 10 7 11,
		2 3 4 8,
		1 2 3 4
	")
}

ee = energy('scf')
oeprop('DIPOLE', 'QUADRUPOLE', 'MULLIKEN_CHARGES')
f=open( 'psi4out.xyz', 'w' )
f.write( "18  " )
f.write( str(ee) + "\n" )
f.write( MOL.save_string_xyz() )
f.close()
--------------------------------------------------------------------------

    Molecular point group: c1

    Geometry (in Angstrom), charge = 0, multiplicity = 1:

       Center              X                  Y                   Z               Mass
    ------------   -----------------  -----------------  -----------------  -----------------
           H         -2.609658254122    -0.565775719544    -0.021440273066     1.007825032070
           O         -1.784365254122    -0.222498719544    -0.332612273066    15.994914619560
           C         -1.500573254122     0.990044280456     0.318791726934    12.000000000000
           C         -0.147453254122     1.492564280456    -0.154972273066    12.000000000000
           H         -2.266412254122     1.729991280456     0.093167726934     1.007825032070
           H         -1.487723254122     0.849696280456     1.398972726934     1.007825032070
           C          1.012415745878     0.566228280456     0.213019726934    12.000000000000
           H         -0.189783254122     1.620242280456    -1.233537273066     1.007825032070
           H          0.017730745878     2.479152280456     0.274270726934     1.007825032070
           C          0.770157745878    -0.885901719544    -0.202243273066    12.000000000000
           H          1.181399745878     0.616082280456     1.283753726934     1.007825032070
           H          1.924026745878     0.927404280456    -0.261699273066     1.007825032070
           C          1.931756745878    -1.810540719544     0.160251726934    12.000000000000
           H         -0.139631254122    -1.248167719544     0.271849726934     1.007825032070
           H          0.593956745878    -0.932441719544    -1.275197273066     1.007825032070
           H          2.110230745878    -1.812468719544     1.231715726934     1.007825032070
           H          1.731277745878    -2.833411719544    -0.143863273066     1.007825032070
           H          2.850632745878    -1.494986719544    -0.326168273066     1.007825032070

  Charge       = 0
  Multiplicity = 1
  Basis Set: 6-31G*
  Basis Set:

    Orbital Energies (a.u.)
    -----------------------

    Doubly Occupied:

       1A    -20.554423     2A    -11.270387     3A    -11.213001
       4A    -11.206342     5A    -11.194226     6A    -11.191192
       7A     -1.365243     8A     -1.070999     9A     -1.002572
      10A     -0.910678    11A     -0.822023    12A     -0.771964
      13A     -0.704207    14A     -0.658278    15A     -0.609906
      16A     -0.569601    17A     -0.568036    18A     -0.553279
      19A     -0.533974    20A     -0.501067    21A     -0.490556
      22A     -0.458071    23A     -0.450124    24A     -0.442200
      25A     -0.414440

  @DF-RHF Final Energy:  -271.16809388290676

   => Energetics <=

    Nuclear Repulsion Energy =            259.6796299481279675
    One-Electron Energy =                -882.6417254404443611
    Two-Electron Energy =                 351.7940016094099178
    DFT Exchange-Correlation Energy =       0.0000000000000000
    Empirical Dispersion Energy =           0.0000000000000000
    PCM Polarization Energy =               0.0000000000000000
    EFP Energy =                            0.0000000000000000
    Total Energy =                       -271.1680938829064758

  Mulliken Charges: (a.u.)
   Center  Symbol    Alpha    Beta     Spin     Total
       1     H     0.28081  0.28081  0.00000  0.43837
       2     O     4.36717  4.36717  0.00000 -0.73434
       3     C     3.00149  3.00149  0.00000 -0.00298
       4     C     3.16155  3.16155  0.00000 -0.32311
       5     H     0.42673  0.42673  0.00000  0.14653
       6     H     0.43204  0.43204  0.00000  0.13592
       7     C     3.15432  3.15432  0.00000 -0.30864
       8     H     0.41495  0.41495  0.00000  0.17010
       9     H     0.42156  0.42156  0.00000  0.15688
      10     C     3.14685  3.14685  0.00000 -0.29369
      11     H     0.42684  0.42684  0.00000  0.14631
      12     H     0.42281  0.42281  0.00000  0.15438
      13     C     3.23850  3.23850  0.00000 -0.47700
      14     H     0.40517  0.40517  0.00000  0.18966
      15     H     0.42297  0.42297  0.00000  0.15405
      16     H     0.42696  0.42696  0.00000  0.14608
      17     H     0.42219  0.42219  0.00000  0.15561
      18     H     0.42708  0.42708  0.00000  0.14584

   Total alpha = 25.00000, Total beta = 25.00000, Total charge = -0.00000
