                              Psi4 1.0.54 Driver

  ==> Input File <==

--------------------------------------------------------------------------
set {
	reference rhf
	basis cc-pvtz
}

set_num_threads( 4 )
memory 2 gb

molecule MOL {
0 1

H	 -2.698799	 -0.000846	 0.036018
C	 -1.694291	 -0.000483	 0.434279
O	 -0.828718	 -0.000608	 -0.655022
H	 -1.576855	 0.881100	 1.056504
H	 -1.576401	 -0.881658	 1.057001
C	 0.557892	 0.000078	 -0.420099
C	 1.369866	 -0.100939	 -1.706476
C	 1.002987	 1.166139	 0.455367
H	 0.714195	 -0.912590	 0.141349
H	 1.003381	 -0.914261	 -2.320688
H	 2.409785	 -0.294726	 -1.470339
H	 1.332160	 0.812924	 -2.287867
H	 0.382136	 1.231490	 1.340419
H	 2.029617	 1.018488	 0.770017
H	 0.955440	 2.113616	 -0.068625

	symmetry c1
}
set optking {
	frozen_dihedral = ("
		9 6 3 2
	")
}

ee,wfn = optimize('scf', return_wfn=True)
oeprop( wfn, 'DIPOLE', 'QUADRUPOLE', 'MULLIKEN_CHARGES')
f=open( 'psi4out.xyz', 'w' )
f.write( "15  " )
f.write( str(ee) + "\n" )
f.write( MOL.save_string_xyz() )
f.close()
--------------------------------------------------------------------------

    Molecular point group: c1
  Charge       = 0
  Multiplicity = 1
  Basis Set: CC-PVTZ
  Basis Set:
  @DF-RHF Final Energy:  -232.22430572548234
    Total Energy =                       -232.2243057254823384
    Molecular point group: c1
  Basis Set: CC-PVTZ
  Basis Set:
  Basis Set: CC-PVTZ
  Basis Set:
  @DF-RHF Final Energy:  -231.97895900389386
    Total Energy =                       -231.9789590038936922
  Basis Set: CC-PVTZ
  Basis Set:
  Basis Set: CC-PVTZ
  Basis Set:
  @DF-RHF Final Energy:  -232.11193434926562
    Total Energy =                       -232.1119343492658231
  Basis Set: CC-PVTZ
  Basis Set:
  Basis Set: CC-PVTZ
  Basis Set:
  @DF-RHF Final Energy:  -232.21163204056447
    Total Energy =                       -232.2116320405646093
  Basis Set: CC-PVTZ
  Basis Set:
  @DF-RHF Final Energy:  -232.22578510889392
    Total Energy =                       -232.2257851088940015
  @DF-RHF Final Energy:  -232.22876656364460
    Total Energy =                       -232.2287665636446832
  Basis Set: CC-PVTZ
  Basis Set:
  @DF-RHF Final Energy:  -232.22944125498501
    Total Energy =                       -232.2294412549847493
  Basis Set: CC-PVTZ
  Basis Set:
  Basis Set: CC-PVTZ
  Basis Set:
  @DF-RHF Final Energy:  -232.22951504542792
    Total Energy =                       -232.2295150454278883
  Basis Set: CC-PVTZ
  Basis Set:
  Basis Set: CC-PVTZ
  Basis Set:
  @DF-RHF Final Energy:  -232.22953300770925
    Total Energy =                       -232.2295330077096196
  Basis Set: CC-PVTZ
  Basis Set:
  Charge       = 0
  Multiplicity = 1
  Basis Set: CC-PVTZ
  Basis Set:

    Orbital Energies (a.u.)
    -----------------------

    Doubly Occupied:

       1A    -20.544259     2A    -11.272982     3A    -11.260246
       4A    -11.209081     5A    -11.204113     6A     -1.378062
       7A     -1.053803     8A     -0.945567     9A     -0.914471
      10A     -0.791521    11A     -0.676381    12A     -0.640501
      13A     -0.636729    14A     -0.592313    15A     -0.550595
      16A     -0.543020    17A     -0.527341    18A     -0.498170
      19A     -0.494031    20A     -0.453623    21A     -0.411911

  @DF-RHF Final Energy:  -232.22953366198743

   => Energetics <=

    Nuclear Repulsion Energy =            197.9824451789182262
    One-Electron Energy =                -707.2265184903292266
    Two-Electron Energy =                 277.0145396494233978
    DFT Exchange-Correlation Energy =       0.0000000000000000
    Empirical Dispersion Energy =           0.0000000000000000
    PCM Polarization Energy =               0.0000000000000000
    EFP Energy =                            0.0000000000000000
    Total Energy =                       -232.2295336619876025
    Molecular point group: c1
  Basis Set: CC-PVTZ
  Basis Set:

  -Total Gradient:
     Atom            X                  Y                   Z
    ------   -----------------  -----------------  -----------------
       1        0.000020874921    -0.000012703784    -0.000023313661
       2       -0.000278631172     0.001504628064    -0.000643328210
       3        0.000624433077    -0.002501371984     0.000625999615
       4       -0.000050929660    -0.000000253936     0.000005693795
       5       -0.000005003786    -0.000018263449     0.000013626664
       6       -0.001344244561     0.002272728355     0.001054489436
       7       -0.000028256959     0.000061624335     0.000007533608
       8        0.000064229256     0.000064866624    -0.000060261790
       9        0.000996482872    -0.001390127097    -0.000980142362
      10       -0.000013280192    -0.000027953889     0.000006901488
      11       -0.000004096774     0.000001268799     0.000010995015
      12        0.000000335231     0.000012624747    -0.000024556251
      13        0.000034235274    -0.000006604237    -0.000010427515
      14       -0.000007506635     0.000011571050     0.000009406153
      15       -0.000008640893     0.000027966402     0.000007384016

  **** Optimization is complete! (in 10 steps) ****
    Final optimized geometry and variables:
    Molecular point group: c1

    Geometry (in Angstrom), charge = 0, multiplicity = 1:

    H           -2.611842985121    -0.973436726521     0.032971000272
    C           -1.818951151510    -0.388216317582     0.476687058102
    O           -0.695003327381    -0.534851705109    -0.327085154233
    H           -2.150046527849     0.643246113476     0.540356495672
    H           -1.641082435381    -0.757051280214     1.485214934619
    C            0.523640857375    -0.068836594355     0.187866018546
    C            1.585172247210    -0.436723516016    -0.833735695648
    C            0.515215433554     1.427538156554     0.475982866821
    H            0.738564222203    -0.609152123466     1.110671357358
    H            1.562547726097    -1.500871179264    -1.029663886108
    H            2.572375603737    -0.171874472790    -0.473465629332
    H            1.407163013091     0.084010244115    -1.767447595661
    H           -0.181162926135     1.688974642618     1.262322540831
    H            1.500579509543     1.747381454539     0.793840474009
    H            0.247193437127     1.981848559530    -0.416738925049

  Mulliken Charges: (a.u.)
   Center  Symbol    Alpha    Beta     Spin     Total
       1     H     0.44368  0.44368  0.00000  0.11263
       2     C     3.04024  3.04024  0.00000 -0.08048
       3     O     4.18096  4.18096  0.00000 -0.36193
       4     H     0.46794  0.46794  0.00000  0.06412
       5     H     0.47171  0.47171  0.00000  0.05659
       6     C     2.92286  2.92286  0.00000  0.15428
       7     C     3.14099  3.14099  0.00000 -0.28197
       8     C     3.15808  3.15808  0.00000 -0.31616
       9     H     0.46523  0.46523  0.00000  0.06954
      10     H     0.44667  0.44667  0.00000  0.10666
      11     H     0.45889  0.45889  0.00000  0.08222
      12     H     0.45355  0.45355  0.00000  0.09291
      13     H     0.45025  0.45025  0.00000  0.09950
      14     H     0.44891  0.44891  0.00000  0.10217
      15     H     0.45005  0.45005  0.00000  0.09991

   Total alpha = 21.00000, Total beta = 21.00000, Total charge =  0.00000

*** Psi4 exiting successfully. Buy a developer a beer!
