  ==> Input File <==

--------------------------------------------------------------------------
set {
	reference rhf
	basis 6-31G*
}

set_num_threads( 4 )
memory 2 gb

molecule MOL {
0 1

O	 3.225979	 0.970355	 -0.599647
C	 2.701189	 0.057885	 -0.047330
C	 1.245376	 -0.013843	 0.345420
O	 3.347903	 -1.046386	 0.304773
C	 0.455112	 1.231400	 -0.050772
H	 0.838542	 -0.913825	 -0.103701
H	 1.208210	 -0.175333	 1.419774
C	 -0.998893	 1.219485	 0.433193
H	 0.482531	 1.345121	 -1.130325
H	 0.957290	 2.103070	 0.354729
C	 -2.009164	 1.828231	 -0.543481
H	 -1.046535	 1.769720	 1.370046
H	 -1.294381	 0.198011	 0.668326
C	 -3.426264	 1.892866	 0.029799
H	 -1.684807	 2.831867	 -0.814269
H	 -2.029992	 1.254298	 -1.467137
C	 -4.445350	 2.494641	 -0.939459
H	 -3.416482	 2.477369	 0.948218
H	 -3.747110	 0.890948	 0.310723
C	 -5.857209	 2.559110	 -0.357912
H	 -4.125749	 3.495476	 -1.221994
H	 -4.459715	 1.909169	 -1.856409
H	 -6.556285	 2.989941	 -1.068042
H	 -5.883120	 3.167165	 0.541973
H	 -6.219317	 1.568670	 -0.096798
C	 4.728119	 -1.109107	 -0.004993
H	 4.882018	 -1.033965	 -1.071845
H	 5.068212	 -2.067527	 0.355250
H	 5.265056	 -0.311663	 0.488280

	symmetry c1
}
set optking {
	frozen_dihedral = ("
		11 8 5 9
	")
}

ee = optimize('scf')
oeprop('DIPOLE', 'QUADRUPOLE', 'MULLIKEN_CHARGES')
f=open( 'psi4out.xyz', 'w' )
f.write( "29  " )
f.write( str(ee) + "\n" )
f.write( MOL.save_string_xyz() )
f.close()
--------------------------------------------------------------------------

    Molecular point group: c1
  Charge       = 0
  Multiplicity = 1
  Basis Set: 6-31G*
  Basis Set:
  @DF-RHF Final Energy:  -501.04135920417582
    Total Energy =                       -501.0413592041754782
    Molecular point group: c1
  Basis Set: 6-31G*
  Basis Set:
  Basis Set: 6-31G*
  Basis Set:
  @DF-RHF Final Energy:  -501.04188794007700
    Total Energy =                       -501.0418879400770038
  Basis Set: 6-31G*
  Basis Set:
  Basis Set: 6-31G*
  Basis Set:
  @DF-RHF Final Energy:  -501.04173217057007
    Total Energy =                       -501.0417321705700715
  Basis Set: 6-31G*
  Basis Set:
  Basis Set: 6-31G*
  Basis Set:
  @DF-RHF Final Energy:  -501.04192034595746
    Total Energy =                       -501.0419203459573509
  Basis Set: 6-31G*
  Basis Set:
  Basis Set: 6-31G*
  Basis Set:
  @DF-RHF Final Energy:  -501.04192950336335
    Total Energy =                       -501.0419295033631215
  Basis Set: 6-31G*
  Basis Set:
  Basis Set: 6-31G*
  Basis Set:
  @DF-RHF Final Energy:  -501.04195467705472
    Total Energy =                       -501.0419546770547186
  Basis Set: 6-31G*
  Basis Set:
  Charge       = 0
  Multiplicity = 1
  Basis Set: 6-31G*
  Basis Set:

    Orbital Energies (a.u.)
    -----------------------

    Doubly Occupied:

       1A    -20.603516     2A    -20.545382     3A    -11.372038
       4A    -11.280762     5A    -11.235752     6A    -11.218487
       7A    -11.217198     8A    -11.214681     9A    -11.214540
      10A    -11.213103    11A    -11.208180    12A     -1.469199
      13A     -1.362658    14A     -1.096196    15A     -1.066889
      16A     -1.020035    17A     -0.977296    18A     -0.926645
      19A     -0.856007    20A     -0.801661    21A     -0.790250
      22A     -0.767055    23A     -0.698397    24A     -0.682740
      25A     -0.672000    26A     -0.653574    27A     -0.628818
      28A     -0.598093    29A     -0.594308    30A     -0.583415
      31A     -0.565937    32A     -0.548388    33A     -0.529791
      34A     -0.527703    35A     -0.514666    36A     -0.512197
      37A     -0.493933    38A     -0.479207    39A     -0.467550
      40A     -0.462305    41A     -0.460161    42A     -0.455582
      43A     -0.444761    44A     -0.430904

  @DF-RHF Final Energy:  -501.04195567651811

   => Energetics <=

    Nuclear Repulsion Energy =            602.4017258695872670
    One-Electron Energy =               -1875.9634412273842372
    Two-Electron Energy =                 772.5197596812789698
    DFT Exchange-Correlation Energy =       0.0000000000000000
    Empirical Dispersion Energy =           0.0000000000000000
    PCM Polarization Energy =               0.0000000000000000
    EFP Energy =                            0.0000000000000000
    Total Energy =                       -501.0419556765178868
    Molecular point group: c1
  Basis Set: 6-31G*
  Basis Set:

  -Total Gradient:
     Atom            X                  Y                   Z
    ------   -----------------  -----------------  -----------------
       1        0.000018034583     0.000012671859     0.000029157635
       2       -0.000025275446    -0.000023521331    -0.000089288437
       3       -0.000011762573     0.000002371236     0.000000973596
       4        0.000000146295    -0.000003822912     0.000008245941
       5       -0.000254035377    -0.005979033552    -0.000966589484
       6       -0.000002118498     0.000004213013     0.000023006626
       7        0.000004873086     0.000015197783     0.000019673671
       8        0.000549439988     0.004625454222     0.001780687441
       9        0.000124476041     0.004029841351     0.000392887561
      10       -0.000000386691    -0.000038183148    -0.000013930601
      11       -0.000393402613    -0.002658227725    -0.001219680714
      12       -0.000011057027     0.000003179202     0.000002088803
      13       -0.000023095390    -0.000003338095    -0.000004938887
      14        0.000004299896     0.000005091349     0.000022292421
      15        0.000013005439    -0.000003077958     0.000021294683
      16        0.000001116774     0.000005645954    -0.000011599272
      17        0.000010015701    -0.000004781028    -0.000003662360
      18        0.000001036696     0.000012013450    -0.000003168748
      19       -0.000000688896     0.000008227127     0.000013429543
      20       -0.000003736880    -0.000017929905    -0.000005536644
      21       -0.000003778796     0.000000861787     0.000008753688
      22        0.000002588483     0.000006759312    -0.000008093956
      23       -0.000001026594    -0.000003622893    -0.000001597491
      24        0.000004501908     0.000000211739    -0.000004458220
      25       -0.000003603105    -0.000000049203     0.000003499423
      26       -0.000000359365     0.000006282963     0.000009101324
      27       -0.000002220069     0.000000297881    -0.000000414316
      28        0.000000078050    -0.000000682166    -0.000000240994
      29        0.000002934361    -0.000002050310    -0.000001892231

  **** Optimization is complete! (in 7 steps) ****
    Final optimized geometry and variables:
    Molecular point group: c1

    Geometry (in Angstrom), charge = 0, multiplicity = 1:

    O            3.256728739936     0.033290590038    -0.545597171082
    C            2.741420045298    -0.844454504031     0.068535074220
    C            1.303405380971    -0.869993115361     0.526141945884
    O            3.383430936967    -1.944862937056     0.440256816760
    C            0.513766832666     0.368387398442     0.117413766450
    H            0.850884593027    -1.773797854047     0.127754839355
    H            1.307629059052    -0.993250630529     1.605968161250
    C           -0.937247046713     0.352356478461     0.632807113167
    H            0.529508147240     0.481042251953    -0.961767867616
    H            1.024364400251     1.249353694422     0.492534036406
    C           -1.934151968030     0.965512880309    -0.352937572350
    H           -0.995026599305     0.868760302567     1.587670895519
    H           -1.245961349767    -0.673085638295     0.830233909587
    C           -3.368845818800     0.992147708122     0.175556483735
    H           -1.622499503074     1.979009328672    -0.600890520317
    H           -1.901198891508     0.401618100107    -1.283226506046
    C           -4.369451916346     1.584512923522    -0.818550731963
    H           -3.401410040823     1.564839184485     1.101024631531
    H           -3.676837973132    -0.020015258999     0.433788187368
    C           -5.801251360646     1.605703639523    -0.284522448395
    H           -4.065191358109     2.596996481801    -1.075076178273
    H           -4.338312083751     1.013441660629    -1.744056284445
    H           -6.486513090316     2.030404129114    -1.011630372423
    H           -5.872526258095     2.198959890762     0.622802754157
    H           -6.147387201741     0.602851227664    -0.050405365542
    C            4.746942290914    -2.048495648207     0.072755466929
    H            4.853876119752    -2.022504956187    -1.002144874541
    H            5.085537109162    -2.997101291475     0.459374882842
    H            5.319854197413    -1.241424642267     0.506267386291

  Mulliken Charges: (a.u.)
   Center  Symbol    Alpha    Beta     Spin     Total
       1     O     4.28599  4.28599  0.00000 -0.57197
       2     C     2.60528  2.60528  0.00000  0.78944
       3     C     3.20928  3.20928  0.00000 -0.41856
       4     O     4.30743  4.30743  0.00000 -0.61485
       5     C     3.15560  3.15560  0.00000 -0.31120
       6     H     0.40056  0.40056  0.00000  0.19887
       7     H     0.40018  0.40018  0.00000  0.19963
       8     C     3.15598  3.15598  0.00000 -0.31195
       9     H     0.41004  0.41004  0.00000  0.17992
      10     H     0.40986  0.40986  0.00000  0.18027
      11     C     3.15373  3.15373  0.00000 -0.30745
      12     H     0.41969  0.41969  0.00000  0.16063
      13     H     0.42381  0.42381  0.00000  0.15239
      14     C     3.15137  3.15137  0.00000 -0.30275
      15     H     0.42148  0.42148  0.00000  0.15705
      16     H     0.42281  0.42281  0.00000  0.15438
      17     C     3.15143  3.15143  0.00000 -0.30286
      18     H     0.42386  0.42386  0.00000  0.15228
      19     H     0.42451  0.42451  0.00000  0.15098
      20     C     3.23927  3.23927  0.00000 -0.47854
      21     H     0.42255  0.42255  0.00000  0.15490
      22     H     0.42307  0.42307  0.00000  0.15386
      23     H     0.41926  0.41926  0.00000  0.16147
      24     H     0.42184  0.42184  0.00000  0.15632
      25     H     0.42205  0.42205  0.00000  0.15590
      26     C     3.09244  3.09244  0.00000 -0.18489
      27     H     0.40908  0.40908  0.00000  0.18184
      28     H     0.40847  0.40847  0.00000  0.18307
      29     H     0.40909  0.40909  0.00000  0.18181

   Total alpha = 44.00000, Total beta = 44.00000, Total charge = -0.00000
