  ==> Input File <==

--------------------------------------------------------------------------
set {
	reference rhf
	basis 6-31G*
}

set_num_threads( 1 )
memory 2 gb

molecule MOL {
0 1

O	 1.214711	 1.306902	 -0.000018
C	 1.122059	 0.121804	 -0.000188
C	 -0.170150	 -0.657997	 -0.000612
O	 2.172624	 -0.688929	 0.000216
C	 -1.412532	 0.227344	 -0.000452
H	 -0.153702	 -1.313099	 -0.867402
H	 -0.153924	 -1.313811	 0.865644
C	 -2.074960	 0.299830	 -1.377151
H	 -1.141557	 1.225078	 0.330613
H	 -2.121587	 -0.150305	 0.729703
C	 -3.321329	 1.183852	 -1.385711
H	 -1.359990	 0.678049	 -2.105056
H	 -2.342072	 -0.702718	 -1.705205
H	 -3.080862	 2.202351	 -1.095042
H	 -3.771294	 1.218383	 -2.372937
H	 -4.070186	 0.811374	 -0.692808
C	 3.452279	 -0.082609	 0.000533
H	 3.583069	 0.529321	 -0.880332
H	 4.163299	 -0.894027	 0.001117
H	 3.582335	 0.529955	 0.881077

	symmetry c1
}
set optking {
	frozen_dihedral = ("
		9 5 8 12,
		1 2 3 6,
		1 2 4 17
	")
}

ee = energy('scf')
oeprop('DIPOLE', 'QUADRUPOLE', 'MULLIKEN_CHARGES')
f=open( 'psi4out.xyz', 'w' )
f.write( "20  " )
f.write( str(ee) + "\n" )
f.write( MOL.save_string_xyz() )
f.close()
--------------------------------------------------------------------------

    Molecular point group: c1

    Geometry (in Angstrom), charge = 0, multiplicity = 1:

       Center              X                  Y                   Z               Mass
    ------------   -----------------  -----------------  -----------------  -----------------
           O          1.056167362432     1.084358019393     0.345633445061    15.994914619560
           C          0.963515362432    -0.100739980607     0.345463445061    12.000000000000
           C         -0.328693637568    -0.880540980607     0.345039445061    12.000000000000
           O          2.014080362432    -0.911472980607     0.345867445061    15.994914619560
           C         -1.571075637568     0.004800019393     0.345199445061    12.000000000000
           H         -0.312245637568    -1.535642980607    -0.521750554939     1.007825032070
           H         -0.312467637568    -1.536354980607     1.211295445061     1.007825032070
           C         -2.233503637568     0.077286019393    -1.031499554939    12.000000000000
           H         -1.300100637568     1.002534019393     0.676264445061     1.007825032070
           H         -2.280130637568    -0.372848980607     1.075354445061     1.007825032070
           C         -3.479872637568     0.961308019393    -1.040059554939    12.000000000000
           H         -1.518533637568     0.455505019393    -1.759404554939     1.007825032070
           H         -2.500615637568    -0.925261980607    -1.359553554939     1.007825032070
           H         -3.239405637568     1.979807019393    -0.749390554939     1.007825032070
           H         -3.929837637568     0.995839019393    -2.027285554939     1.007825032070
           H         -4.228729637568     0.588830019393    -0.347156554939     1.007825032070
           C          3.293735362432    -0.305152980607     0.346184445061    12.000000000000
           H          3.424525362432     0.306777019393    -0.534680554939     1.007825032070
           H          4.004755362432    -1.116570980607     0.346768445061     1.007825032070
           H          3.423791362432     0.307411019393     1.226728445061     1.007825032070

  Charge       = 0
  Multiplicity = 1
  Basis Set: 6-31G*
  Basis Set:

    Orbital Energies (a.u.)
    -----------------------

    Doubly Occupied:

       1A    -20.604507     2A    -20.546596     3A    -11.373107
       4A    -11.281363     5A    -11.234401     6A    -11.217293
       7A    -11.215968     8A    -11.207745     9A     -1.470251
      10A     -1.364043    11A     -1.087384    12A     -1.022548
      13A     -0.968804    14A     -0.884010    15A     -0.805113
      16A     -0.766654    17A     -0.703941    18A     -0.680892
      19A     -0.673080    20A     -0.630622    21A     -0.607000
      22A     -0.589465    23A     -0.578641    24A     -0.545729
      25A     -0.529141    26A     -0.515564    27A     -0.510753
      28A     -0.477972    29A     -0.467894    30A     -0.460758
      31A     -0.457082    32A     -0.440280

  @DF-RHF Final Energy:  -383.93784699494802

   => Energetics <=

    Nuclear Repulsion Energy =            385.5295581761205312
    One-Electron Energy =               -1287.0977395773447824
    Two-Electron Energy =                 517.6303344062764609
    DFT Exchange-Correlation Energy =       0.0000000000000000
    Empirical Dispersion Energy =           0.0000000000000000
    PCM Polarization Energy =               0.0000000000000000
    EFP Energy =                            0.0000000000000000
    Total Energy =                       -383.9378469949477903

  Mulliken Charges: (a.u.)
   Center  Symbol    Alpha    Beta     Spin     Total
       1     O     4.28520  4.28520  0.00000 -0.57041
       2     C     2.60965  2.60965  0.00000  0.78070
       3     C     3.21071  3.21071  0.00000 -0.42141
       4     O     4.30606  4.30606  0.00000 -0.61212
       5     C     3.16032  3.16032  0.00000 -0.32063
       6     H     0.39832  0.39832  0.00000  0.20336
       7     H     0.39734  0.39734  0.00000  0.20533
       8     C     3.15521  3.15521  0.00000 -0.31042
       9     H     0.39619  0.39619  0.00000  0.20762
      10     H     0.41977  0.41977  0.00000  0.16046
      11     C     3.24054  3.24054  0.00000 -0.48108
      12     H     0.41841  0.41841  0.00000  0.16319
      13     H     0.42410  0.42410  0.00000  0.15179
      14     H     0.41806  0.41806  0.00000  0.16387
      15     H     0.41919  0.41919  0.00000  0.16163
      16     H     0.42224  0.42224  0.00000  0.15552
      17     C     3.09232  3.09232  0.00000 -0.18465
      18     H     0.40905  0.40905  0.00000  0.18190
      19     H     0.40836  0.40836  0.00000  0.18328
      20     H     0.40898  0.40898  0.00000  0.18205

   Total alpha = 32.00000, Total beta = 32.00000, Total charge =  0.00000
