  ==> Input File <==

--------------------------------------------------------------------------
set {
	reference rhf
	basis 6-31G*
}

set_num_threads( 4 )
memory 2 gb

molecule MOL {
0 1

H	 3.463771	 0.168298	 -0.756243
C	 2.752674	 -0.045734	 0.033351
C	 1.322923	 0.120767	 -0.479465
H	 2.934561	 -1.059086	 0.377456
H	 2.958358	 0.631174	 0.856809
C	 0.306652	 -0.176050	 0.621399
H	 1.144658	 -0.551717	 -1.312180
H	 1.166477	 1.131798	 -0.836680
N	 -1.068537	 -0.011044	 0.085269
H	 0.372515	 -1.192590	 0.973735
H	 0.391664	 0.520566	 1.441230
O	 -1.227352	 0.784137	 -0.788710
O	 -1.928508	 -0.665844	 0.590948

	symmetry c1
}
set optking {
	frozen_dihedral = ("
		12 9 6 3
	")
}

ee = optimize('scf')
oeprop('DIPOLE', 'QUADRUPOLE', 'MULLIKEN_CHARGES')
f=open( 'psi4out.xyz', 'w' )
f.write( "13  " )
f.write( str(ee) + "\n" )
f.write( MOL.save_string_xyz() )
f.close()
--------------------------------------------------------------------------

    Molecular point group: c1
  Charge       = 0
  Multiplicity = 1
  Basis Set: 6-31G*
  Basis Set:
  @DF-RHF Final Energy:  -321.73408530118280
    Total Energy =                       -321.7340853011828585
    Molecular point group: c1
  Basis Set: 6-31G*
  Basis Set:
  Basis Set: 6-31G*
  Basis Set:
  @DF-RHF Final Energy:  -321.73358157894882
    Total Energy =                       -321.7335815789485878
  Basis Set: 6-31G*
  Basis Set:
  Basis Set: 6-31G*
  Basis Set:
  @DF-RHF Final Energy:  -321.73149566796621
    Total Energy =                       -321.7314956679662714
  Basis Set: 6-31G*
  Basis Set:
  Basis Set: 6-31G*
  Basis Set:
  @DF-RHF Final Energy:  -321.73378636163727
    Total Energy =                       -321.7337863616373852
  Basis Set: 6-31G*
  Basis Set:
  @DF-RHF Final Energy:  -321.73189641621491
    Total Energy =                       -321.7318964162147950
  Basis Set: 6-31G*
  Basis Set:
  @DF-RHF Final Energy:  -321.73508433033032
    Total Energy =                       -321.7350843303301531
  Basis Set: 6-31G*
  Basis Set:
  Basis Set: 6-31G*
  Basis Set:
  @DF-RHF Final Energy:  -321.73514499837523
    Total Energy =                       -321.7351449983751763
  Basis Set: 6-31G*
  Basis Set:
  Basis Set: 6-31G*
  Basis Set:
  @DF-RHF Final Energy:  -321.73514670868678
    Total Energy =                       -321.7351467086868979
  Basis Set: 6-31G*
  Basis Set:
  Charge       = 0
  Multiplicity = 1
  Basis Set: 6-31G*
  Basis Set:

    Orbital Energies (a.u.)
    -----------------------

    Doubly Occupied:

       1A    -20.602185     2A    -20.600571     3A    -15.848517
       4A    -11.300792     5A    -11.250941     6A    -11.237878
       7A     -1.631857     8A     -1.417091     9A     -1.133273
      10A     -1.027551    11A     -0.884662    12A     -0.827123
      13A     -0.760591    14A     -0.745419    15A     -0.725495
      16A     -0.659978    17A     -0.606683    18A     -0.579903
      19A     -0.551854    20A     -0.522928    21A     -0.510362
      22A     -0.484574    23A     -0.473148    24A     -0.449297

  @DF-RHF Final Energy:  -321.73514740566316

   => Energetics <=

    Nuclear Repulsion Energy =            247.0677771824354068
    One-Electron Energy =                -927.9405068234316332
    Two-Electron Energy =                 359.1375822353331273
    DFT Exchange-Correlation Energy =       0.0000000000000000
    Empirical Dispersion Energy =           0.0000000000000000
    PCM Polarization Energy =               0.0000000000000000
    EFP Energy =                            0.0000000000000000
    Total Energy =                       -321.7351474056630991
    Molecular point group: c1
  Basis Set: 6-31G*
  Basis Set:

  -Total Gradient:
     Atom            X                  Y                   Z
    ------   -----------------  -----------------  -----------------
       1       -0.000017571682    -0.000004017552    -0.000010836492
       2       -0.000017536485    -0.000006186010     0.000017854211
       3       -0.000011107857     0.000226048605     0.000067780230
       4       -0.000013994295     0.000003944075     0.000003360733
       5        0.000005118210     0.000007300039     0.000000141737
       6        0.000038062867    -0.000423687644    -0.000144085192
       7       -0.000013813356    -0.000012144233    -0.000021726444
       8        0.000001790631     0.000001474905     0.000031687566
       9       -0.000037633055     0.000438953866     0.000266633215
      10        0.000044832274    -0.000001142109     0.000014394088
      11        0.000016704583     0.000006583670     0.000000224516
      12        0.000006108293    -0.000260412902    -0.000187578026
      13       -0.000000960123     0.000023285288    -0.000037850141

  **** Optimization is complete! (in 9 steps) ****
    Final optimized geometry and variables:
    Molecular point group: c1

    Geometry (in Angstrom), charge = 0, multiplicity = 1:

    H            3.504432150669     0.155168126908    -0.746159807922
    C            2.773445682629    -0.054821329356     0.026122910197
    C            1.357045183332     0.140506308899    -0.516253695583
    H            2.934446003028    -1.073463820978     0.365627970523
    H            2.974306887044     0.611088435971     0.860134028988
    C            0.326416739672    -0.154447965965     0.561793890761
    H            1.189718922187    -0.517619783754    -1.362365319550
    H            1.226305958611     1.153324166360    -0.872226198662
    N           -1.077304656926    -0.015793456072     0.080306106085
    H            0.394242765078    -1.158420280070     0.949353318168
    H            0.398549326687     0.540056417442     1.389772281922
    O           -1.298638816517     0.770965616304    -0.787427388701
    O           -1.897257206104    -0.687286037031     0.626551458395

  Mulliken Charges: (a.u.)
   Center  Symbol    Alpha    Beta     Spin     Total
       1     H     0.40755  0.40755  0.00000  0.18490
       2     C     3.24978  3.24978  0.00000 -0.49956
       3     C     3.16754  3.16754  0.00000 -0.33507
       4     H     0.41600  0.41600  0.00000  0.16800
       5     H     0.41625  0.41625  0.00000  0.16750
       6     C     3.08869  3.08869  0.00000 -0.17737
       7     H     0.40557  0.40557  0.00000  0.18887
       8     H     0.39590  0.39590  0.00000  0.20820
       9     N     3.22324  3.22324  0.00000  0.55352
      10     H     0.38594  0.38594  0.00000  0.22812
      11     H     0.38583  0.38583  0.00000  0.22835
      12     O     4.22891  4.22891  0.00000 -0.45781
      13     O     4.22882  4.22882  0.00000 -0.45763

   Total alpha = 24.00000, Total beta = 24.00000, Total charge = -0.00000
