  ==> Input File <==

--------------------------------------------------------------------------
set {
	reference rhf
	basis cc-pvtz
}

set_num_threads( 4 )
memory 2 gb

molecule MOL {
0 1

H	 0.000000	 2.328000	 -0.103000
N	 0.000000	 1.351000	 -0.320000
C	 -1.200000	 0.714000	 0.195000
C	 1.200000	 0.714000	 0.195000
H	 -1.282000	 0.790000	 1.282000
H	 -2.072000	 1.189000	 -0.242000
C	 -1.167000	 -0.756000	 -0.192000
H	 2.072000	 1.189000	 -0.242000
H	 1.282000	 0.790000	 1.282000
C	 1.167000	 -0.757000	 -0.192000
H	 -2.001000	 -1.292000	 0.243000
H	 -1.220000	 -0.849000	 -1.275000
O	 -0.000000	 -1.369000	 0.286000
H	 2.001000	 -1.292000	 0.243000
H	 1.220000	 -0.850000	 -1.275000

	symmetry c1
}
ee = optimize('scf')
oeprop('DIPOLE', 'QUADRUPOLE', 'MULLIKEN_CHARGES')
f=open( 'psi4out.xyz', 'w' )
f.write( "15  " )
f.write( str(ee) + "\n" )
f.write( MOL.save_string_xyz() )
f.close()
--------------------------------------------------------------------------

    Molecular point group: c1
  Charge       = 0
  Multiplicity = 1
  Basis Set: CC-PVTZ
  Basis Set:
  @DF-RHF Final Energy:  -286.10390766937235
    Total Energy =                       -286.1039076693724041
    Molecular point group: c1
  Basis Set: CC-PVTZ
  Basis Set:
  Basis Set: CC-PVTZ
  Basis Set:
  @DF-RHF Final Energy:  -286.10399696808855
    Total Energy =                       -286.1039969680885520
  Basis Set: CC-PVTZ
  Basis Set:
  Charge       = 0
  Multiplicity = 1
  Basis Set: CC-PVTZ
  Basis Set:

    Orbital Energies (a.u.)
    -----------------------

    Doubly Occupied:

       1A    -20.546022     2A    -15.538298     3A    -11.263041
       4A    -11.263021     5A    -11.242587     6A    -11.242572
       7A     -1.383958     8A     -1.210421     9A     -1.037695
      10A     -0.928469    11A     -0.877956    12A     -0.778992
      13A     -0.708967    14A     -0.643114    15A     -0.642816
      16A     -0.608609    17A     -0.605444    18A     -0.589582
      19A     -0.543234    20A     -0.501046    21A     -0.493785
      22A     -0.453072    23A     -0.412853    24A     -0.369134

  @DF-RHF Final Energy:  -286.10400078075753

   => Energetics <=

    Nuclear Repulsion Energy =            265.6478490153586449
    One-Electron Energy =                -915.7343253341482523
    Two-Electron Energy =                 363.9824755380318493
    DFT Exchange-Correlation Energy =       0.0000000000000000
    Empirical Dispersion Energy =           0.0000000000000000
    PCM Polarization Energy =               0.0000000000000000
    EFP Energy =                            0.0000000000000000
    Total Energy =                       -286.1040007807578149
    Molecular point group: c1
  Basis Set: CC-PVTZ
  Basis Set:

  -Total Gradient:
     Atom            X                  Y                   Z
    ------   -----------------  -----------------  -----------------
       1       -0.000006179195    -0.000214441999    -0.000027207784
       2        0.000009810668     0.000211195840    -0.000061937692
       3       -0.000014304996    -0.000164200763     0.000155917633
       4       -0.000001241011    -0.000170938828     0.000161298779
       5        0.000010993417     0.000033151925    -0.000037226878
       6        0.000118462822    -0.000002965742    -0.000002166808
       7       -0.000038398693     0.000189147174    -0.000170144709
       8       -0.000124584573    -0.000014184578    -0.000004047667
       9       -0.000012481774     0.000040276483    -0.000031752484
      10        0.000013758107     0.000181787337    -0.000164510865
      11        0.000144072855     0.000037688074     0.000008609626
      12        0.000009738649    -0.000048344797     0.000026830823
      13        0.000036246738    -0.000047839665     0.000107715213
      14       -0.000126616696     0.000023452641     0.000015500058
      15       -0.000019276319    -0.000053783101     0.000023122755

  **** Optimization is complete! (in 3 steps) ****
    Final optimized geometry and variables:
    Molecular point group: c1

    Geometry (in Angstrom), charge = 0, multiplicity = 1:

    H            0.000085938378     2.348163280371    -0.096712140193
    N            0.000070615254     1.376097210667    -0.314451228961
    C           -1.198586146844     0.734770673121     0.192389733875
    C            1.198618534768     0.734625750578     0.192451287174
    H           -1.283291065725     0.812252957009     1.278326302484
    H           -2.070813095073     1.205471682978    -0.245101833894
    C           -1.165287321442    -0.732508044497    -0.191137632956
    H            2.070909536499     1.205191864825    -0.245031202942
    H            1.283284906756     0.812132775391     1.278395576727
    C            1.165219290816    -0.732636374191    -0.191133471837
    H           -1.999433403942    -1.262672306743     0.246583547375
    H           -1.224576051834    -0.826659480207    -1.273533496858
    O           -0.000032317427    -1.346808204733     0.278664454541
    H            1.999380272117    -1.262912716850     0.246508868808
    H            1.224409102310    -0.826749036548    -1.273546771993

  Mulliken Charges: (a.u.)
   Center  Symbol    Alpha    Beta     Spin     Total
       1     H     0.43821  0.43821  0.00000  0.12357
       2     N     3.64759  3.64759  0.00000 -0.29517
       3     C     3.04203  3.04203  0.00000 -0.08406
       4     C     3.04203  3.04203  0.00000 -0.08406
       5     H     0.46681  0.46681  0.00000  0.06639
       6     H     0.45293  0.45293  0.00000  0.09415
       7     C     2.98266  2.98266  0.00000  0.03468
       8     H     0.45293  0.45293  0.00000  0.09414
       9     H     0.46681  0.46681  0.00000  0.06639
      10     C     2.98266  2.98266  0.00000  0.03469
      11     H     0.45035  0.45035  0.00000  0.09931
      12     H     0.46855  0.46855  0.00000  0.06289
      13     O     4.18754  4.18754  0.00000 -0.37507
      14     H     0.45035  0.45035  0.00000  0.09929
      15     H     0.46856  0.46856  0.00000  0.06288

   Total alpha = 24.00000, Total beta = 24.00000, Total charge =  0.00000
