  ==> Input File <==

--------------------------------------------------------------------------
set {
	reference rhf
	basis 6-31G*
}

set_num_threads( 4 )
memory 2 gb

molecule MOL {
0 1

H	 1.305034	 -1.761945	 1.059464
O	 0.631967	 -1.188500	 0.722075
C	 1.135793	 0.118896	 0.612333
C	 0.031547	 1.023609	 0.088541
H	 1.978097	 0.145731	 -0.076648
H	 1.495485	 0.471380	 1.576427
C	 -1.134819	 0.293262	 -0.585751
H	 0.474374	 1.714721	 -0.623187
H	 -0.338529	 1.620940	 0.920081
C	 -1.917817	 -0.639439	 0.339494
H	 -0.758119	 -0.268455	 -1.433105
H	 -1.813832	 1.041889	 -0.986690
H	 -2.777680	 -1.057197	 -0.174994
H	 -1.310268	 -1.471279	 0.680599
H	 -2.283753	 -0.111424	 1.216626

	symmetry c1
}
set optking {
	frozen_dihedral = ("
		2 3 4 8
	")
}

ee = optimize('scf')
oeprop('DIPOLE', 'QUADRUPOLE', 'MULLIKEN_CHARGES')
f=open( 'psi4out.xyz', 'w' )
f.write( "15  " )
f.write( str(ee) + "\n" )
f.write( MOL.save_string_xyz() )
f.close()
--------------------------------------------------------------------------

    Molecular point group: c1
  Charge       = 0
  Multiplicity = 1
  Basis Set: 6-31G*
  Basis Set:
  @DF-RHF Final Energy:  -232.12729018463392
    Total Energy =                       -232.1272901846338641
    Molecular point group: c1
  Basis Set: 6-31G*
  Basis Set:
  Basis Set: 6-31G*
  Basis Set:
  @DF-RHF Final Energy:  -232.13409854127420
    Total Energy =                       -232.1340985412740565
  Basis Set: 6-31G*
  Basis Set:
  Basis Set: 6-31G*
  Basis Set:
  @DF-RHF Final Energy:  -232.13569093299824
    Total Energy =                       -232.1356909329982159
  Basis Set: 6-31G*
  Basis Set:
  Basis Set: 6-31G*
  Basis Set:
  @DF-RHF Final Energy:  -232.13615695172248
    Total Energy =                       -232.1361569517225121
  Basis Set: 6-31G*
  Basis Set:
  Basis Set: 6-31G*
  Basis Set:
  @DF-RHF Final Energy:  -232.13621871019782
    Total Energy =                       -232.1362187101976815
  Basis Set: 6-31G*
  Basis Set:
  Basis Set: 6-31G*
  Basis Set:
  @DF-RHF Final Energy:  -232.13622905968910
    Total Energy =                       -232.1362290596890148
  Basis Set: 6-31G*
  Basis Set:
  Basis Set: 6-31G*
  Basis Set:
  @DF-RHF Final Energy:  -232.13623098787338
    Total Energy =                       -232.1362309878733754
  Basis Set: 6-31G*
  Basis Set:
  Charge       = 0
  Multiplicity = 1
  Basis Set: 6-31G*
  Basis Set:

    Orbital Energies (a.u.)
    -----------------------

    Doubly Occupied:

       1A    -20.554574     2A    -11.269798     3A    -11.213632
       4A    -11.206686     5A    -11.192147     6A     -1.361368
       7A     -1.056677     8A     -0.967083     9A     -0.860310
      10A     -0.775021    11A     -0.703828    12A     -0.646532
      13A     -0.604748    14A     -0.575947    15A     -0.544332
      16A     -0.534388    17A     -0.507376    18A     -0.473527
      19A     -0.459464    20A     -0.445460    21A     -0.426647

  @DF-RHF Final Energy:  -232.13623121177673

   => Energetics <=

    Nuclear Repulsion Energy =            192.9223712974436751
    One-Electron Energy =                -697.3581136552836597
    Two-Electron Energy =                 272.2995111460631961
    DFT Exchange-Correlation Energy =       0.0000000000000000
    Empirical Dispersion Energy =           0.0000000000000000
    PCM Polarization Energy =               0.0000000000000000
    EFP Energy =                            0.0000000000000000
    Total Energy =                       -232.1362312117768170
    Molecular point group: c1
  Basis Set: 6-31G*
  Basis Set:

  -Total Gradient:
     Atom            X                  Y                   Z
    ------   -----------------  -----------------  -----------------
       1        0.000003751363    -0.000013002291     0.000003268505
       2        0.000876198707    -0.000202139388    -0.003046763628
       3       -0.001250494403    -0.000148176945     0.003388048082
       4        0.000971345994     0.002776451663     0.002809519660
       5       -0.000001533567    -0.000028950210     0.000007376238
       6        0.000002412187    -0.000027247615     0.000004119683
       7        0.000011852370     0.000026632850    -0.000012255423
       8       -0.000600677394    -0.002377407166    -0.003168355632
       9       -0.000005096813     0.000008525596     0.000005676136
      10       -0.000003503925     0.000011842274     0.000007046480
      11       -0.000002735521     0.000002838618     0.000006687683
      12       -0.000000758832    -0.000000926902    -0.000009687444
      13       -0.000016375454    -0.000004735938    -0.000001596191
      14        0.000010920699    -0.000021095601     0.000013047293
      15        0.000004694585    -0.000002608945    -0.000006131443

  **** Optimization is complete! (in 8 steps) ****
    Final optimized geometry and variables:
    Molecular point group: c1

    Geometry (in Angstrom), charge = 0, multiplicity = 1:

    H            1.842516573157    -1.609833878704     0.615017959652
    O            1.077085121291    -1.112640326395     0.364501610271
    C            1.401914679507     0.254951988054     0.339989591151
    C            0.186531634321     1.107654046398    -0.069327877261
    H            2.206126768863     0.415371048589    -0.375198992696
    H            1.769474698918     0.575978227816     1.311765858297
    C           -0.931290017448     0.361370021314    -0.817312910839
    H            0.552290157383     1.890018895407    -0.728240841435
    H           -0.237471552050     1.598339359876     0.801881676525
    C           -1.898819900025    -0.399211021765     0.090164281019
    H           -0.495612982176    -0.319022342209    -1.541312507908
    H           -1.496962566972     1.096269446900    -1.385281748783
    H           -2.677570962573    -0.878972737681    -0.496216400990
    H           -1.386663594666    -1.162047871463     0.660742441156
    H           -2.385973224808     0.278558948560     0.787248993213

  Mulliken Charges: (a.u.)
   Center  Symbol    Alpha    Beta     Spin     Total
       1     H     0.28016  0.28016  0.00000  0.43969
       2     O     4.37012  4.37012  0.00000 -0.74024
       3     C     2.99215  2.99215  0.00000  0.01570
       4     C     3.17356  3.17356  0.00000 -0.34711
       5     H     0.43125  0.43125  0.00000  0.13750
       6     H     0.42919  0.42919  0.00000  0.14161
       7     C     3.14686  3.14686  0.00000 -0.29372
       8     H     0.41945  0.41945  0.00000  0.16110
       9     H     0.41885  0.41885  0.00000  0.16230
      10     C     3.24109  3.24109  0.00000 -0.48218
      11     H     0.41462  0.41462  0.00000  0.17076
      12     H     0.42541  0.42541  0.00000  0.14918
      13     H     0.42469  0.42469  0.00000  0.15061
      14     H     0.40375  0.40375  0.00000  0.19249
      15     H     0.42885  0.42885  0.00000  0.14230

   Total alpha = 21.00000, Total beta = 21.00000, Total charge = -0.00000
