  ==> Input File <==

--------------------------------------------------------------------------
set {
	reference rhf
	basis 6-31G*
}

set_num_threads( 4 )
memory 2 gb

molecule MOL {
0 1

H	 -1.338678	 -0.491342	 -0.670974
N	 -0.626943	 -0.667432	 -0.000092
C	 -0.814774	 -1.762323	 0.924380
C	 0.469286	 0.129090	 0.000148
H	 -1.705521	 -1.614430	 1.525798
H	 0.043574	 -1.805059	 1.574872
H	 -0.903939	 -2.706002	 0.396600
C	 1.788933	 -0.616240	 -0.000037
O	 0.411098	 1.327768	 -0.000049
H	 1.872803	 -1.245775	 -0.880381
H	 2.595421	 0.101576	 0.003713
H	 1.870096	 -1.252171	 0.875943

	symmetry c1
}
set optking {
	frozen_dihedral = ("
		3 2 4 9
	")
}

ee = optimize('scf')
oeprop('DIPOLE', 'QUADRUPOLE', 'MULLIKEN_CHARGES')
f=open( 'psi4out.xyz', 'w' )
f.write( "12  " )
f.write( str(ee) + "\n" )
f.write( MOL.save_string_xyz() )
f.close()
--------------------------------------------------------------------------

    Molecular point group: c1
  Charge       = 0
  Multiplicity = 1
  Basis Set: 6-31G*
  Basis Set:
  @DF-RHF Final Energy:  -246.97810342220396
    Total Energy =                       -246.9781034222039580
    Molecular point group: c1
  Basis Set: 6-31G*
  Basis Set:
  Basis Set: 6-31G*
  Basis Set:
  @DF-RHF Final Energy:  -246.98545304065252
    Total Energy =                       -246.9854530406526010
  Basis Set: 6-31G*
  Basis Set:
  Basis Set: 6-31G*
  Basis Set:
  @DF-RHF Final Energy:  -246.99086504169045
    Total Energy =                       -246.9908650416905402
  Basis Set: 6-31G*
  Basis Set:
  Basis Set: 6-31G*
  Basis Set:
  @DF-RHF Final Energy:  -246.99346474669119
    Total Energy =                       -246.9934647466914157
  Basis Set: 6-31G*
  Basis Set:
  @DF-RHF Final Energy:  -246.99474527224874
    Total Energy =                       -246.9947452722487355
  @DF-RHF Final Energy:  -246.99564493229849
    Total Energy =                       -246.9956449322986600
  @DF-RHF Final Energy:  -246.99690879868908
    Total Energy =                       -246.9969087986890486
  @DF-RHF Final Energy:  -246.99708786654358
    Total Energy =                       -246.9970878665436089
  Basis Set: 6-31G*
  Basis Set:
  @DF-RHF Final Energy:  -246.99713498675214
    Total Energy =                       -246.9971349867521440
  Basis Set: 6-31G*
  Basis Set:
  Basis Set: 6-31G*
  Basis Set:
  @DF-RHF Final Energy:  -246.99714086219834
    Total Energy =                       -246.9971408621983642
  Basis Set: 6-31G*
  Basis Set:
  Basis Set: 6-31G*
  Basis Set:
  @DF-RHF Final Energy:  -246.99714293332678
    Total Energy =                       -246.9971429333266428
  Basis Set: 6-31G*
  Basis Set:
  Charge       = 0
  Multiplicity = 1
  Basis Set: 6-31G*
  Basis Set:

    Orbital Energies (a.u.)
    -----------------------

    Doubly Occupied:

       1A    -20.532324     2A    -15.574723     3A    -11.347419
       4A    -11.268798     5A    -11.230594     6A     -1.396842
       7A     -1.226691     8A     -1.007349     9A     -0.948905
      10A     -0.773602    11A     -0.675808    12A     -0.664836
      13A     -0.635549    14A     -0.595692    15A     -0.577484
      16A     -0.564295    17A     -0.550965    18A     -0.508669
      19A     -0.425778    20A     -0.393010

  @DF-RHF Final Energy:  -246.99714196349956

   => Energetics <=

    Nuclear Repulsion Energy =            181.2696987328167495
    One-Electron Energy =                -694.7350126748176535
    Two-Electron Energy =                 266.4681719785012319
    DFT Exchange-Correlation Energy =       0.0000000000000000
    Empirical Dispersion Energy =           0.0000000000000000
    PCM Polarization Energy =               0.0000000000000000
    EFP Energy =                            0.0000000000000000
    Total Energy =                       -246.9971419634996437
    Molecular point group: c1
  Basis Set: 6-31G*
  Basis Set:

  -Total Gradient:
     Atom            X                  Y                   Z
    ------   -----------------  -----------------  -----------------
       1       -0.000106740934    -0.000058478905     0.000172919608
       2        0.005095025597    -0.005476122776    -0.001648149995
       3       -0.003686329687     0.003803971250     0.002863763422
       4       -0.000232124143     0.001143085346    -0.008150909827
       5       -0.000000093418     0.000018492552     0.000000630916
       6        0.000004105802    -0.000018361174     0.000033084602
       7       -0.000001143833    -0.000042890020     0.000030604728
       8        0.000049559312    -0.000091000176    -0.000325990050
       9       -0.001155945873     0.000603002988     0.006937130685
      10        0.000044480864     0.000019879294     0.000013042924
      11        0.000030271463     0.000027181224     0.000056452729
      12       -0.000041065150     0.000071240397     0.000017420256

  **** Optimization is complete! (in 12 steps) ****
    Final optimized geometry and variables:
    Molecular point group: c1

    Geometry (in Angstrom), charge = 0, multiplicity = 1:

    H           -1.651828018582     0.051892650447    -0.508223753605
    N           -0.809611248260    -0.454846693046    -0.321070816439
    C           -1.013725973697    -1.473398095095     0.698340778099
    C            0.226623475940     0.453025561262    -0.209157145232
    H           -1.194104234004    -1.054238399775     1.685561593361
    H           -0.157678742889    -2.132806204509     0.754037594137
    H           -1.869379877476    -2.072388445185     0.417368019136
    C            1.595019761151    -0.119372503504     0.085869819231
    O            0.044472472254     1.628779289464    -0.330423035060
    H            1.771212354457    -1.037379745740    -0.461279620431
    H            2.339165457531     0.618668593442    -0.176233436203
    H            1.686092472099    -0.333109574249     1.146830398544

  Mulliken Charges: (a.u.)
   Center  Symbol    Alpha    Beta     Spin     Total
       1     H     0.31458  0.31458  0.00000  0.37084
       2     N     3.86858  3.86858  0.00000 -0.73716
       3     C     3.15519  3.15519  0.00000 -0.31039
       4     C     2.65135  2.65135  0.00000  0.69730
       5     H     0.41641  0.41641  0.00000  0.16718
       6     H     0.40913  0.40913  0.00000  0.18174
       7     H     0.40580  0.40580  0.00000  0.18840
       8     C     3.29458  3.29458  0.00000 -0.58916
       9     O     4.28259  4.28259  0.00000 -0.56518
      10     H     0.40445  0.40445  0.00000  0.19110
      11     H     0.39247  0.39247  0.00000  0.21506
      12     H     0.40486  0.40486  0.00000  0.19028

   Total alpha = 20.00000, Total beta = 20.00000, Total charge = -0.00000
