                              Psi4 1.0.54 Driver

  ==> Input File <==

--------------------------------------------------------------------------
set {
	reference rhf
	basis cc-pvtz
}

set_num_threads( 4 )
memory 2 gb

molecule MOL {
0 1

H	 2.112938	 4.806840	 0.678654
C	 2.514377	 4.385235	 1.610309
C	 1.544733	 3.543042	 2.394140
O	 3.628235	 4.615703	 1.932046
C	 0.885767	 2.452178	 1.544755
H	 2.062835	 3.125676	 3.247786
H	 0.777474	 4.218459	 2.766202
C	 1.854807	 1.365830	 1.083246
H	 0.088204	 2.000898	 2.124911
H	 0.409222	 2.907963	 0.680256
C	 1.181757	 0.280428	 0.247371
H	 2.322036	 0.913963	 1.954234
H	 2.661610	 1.812473	 0.507913
C	 2.151032	 -0.811012	 -0.202643
H	 0.371970	 -0.155800	 0.823821
H	 0.723597	 0.734596	 -0.628481
C	 3.580021	 -0.656538	 0.320835
H	 2.170545	 -0.847575	 -1.289412
H	 1.766632	 -1.772905	 0.124928
C	 4.327657	 0.562694	 -0.213579
H	 4.138806	 -1.549270	 0.057813
H	 3.561991	 -0.620783	 1.406976
H	 4.355973	 0.557257	 -1.298551
H	 3.867136	 1.491650	 0.100501
H	 5.351524	 0.571613	 0.142204

	symmetry c1
}
set optking {
	frozen_dihedral = ("
		8 11 14 18
	")
}

ee,wfn = optimize('scf', return_wfn=True)
oeprop( wfn, 'DIPOLE', 'QUADRUPOLE', 'MULLIKEN_CHARGES')
f=open( 'psi4out.xyz', 'w' )
f.write( "25  " )
f.write( str(ee) + "\n" )
f.write( MOL.save_string_xyz() )
f.close()
--------------------------------------------------------------------------

    Molecular point group: c1
  Charge       = 0
  Multiplicity = 1
  Basis Set: CC-PVTZ
  Basis Set:
  @DF-RHF Final Energy:  -387.22322442945199
    Total Energy =                       -387.2232244294522161
    Molecular point group: c1
  Basis Set: CC-PVTZ
  Basis Set:
  Basis Set: CC-PVTZ
  Basis Set:
  @DF-RHF Final Energy:  -387.24213234768382
    Total Energy =                       -387.2421323476836506
  Basis Set: CC-PVTZ
  Basis Set:
  Basis Set: CC-PVTZ
  Basis Set:
  @DF-RHF Final Energy:  -387.24638495754169
    Total Energy =                       -387.2463849575410677
  Basis Set: CC-PVTZ
  Basis Set:
  Basis Set: CC-PVTZ
  Basis Set:
  @DF-RHF Final Energy:  -387.24719818874871
    Total Energy =                       -387.2471981887484844
  Basis Set: CC-PVTZ
  Basis Set:
  @DF-RHF Final Energy:  -387.24451435446872
    Total Energy =                       -387.2445143544686061
  @DF-RHF Final Energy:  -387.24774744358729
    Total Energy =                       -387.2477474435870590
  @DF-RHF Final Energy:  -387.24794806659457
    Total Energy =                       -387.2479480665947449
  @DF-RHF Final Energy:  -387.24796814165819
    Total Energy =                       -387.2479681416587027
  Basis Set: CC-PVTZ
  Basis Set:
  @DF-RHF Final Energy:  -387.24798941710384
    Total Energy =                       -387.2479894171038950
  Basis Set: CC-PVTZ
  Basis Set:
  Basis Set: CC-PVTZ
  Basis Set:
  @DF-RHF Final Energy:  -387.24799813322295
    Total Energy =                       -387.2479981332228363
  Basis Set: CC-PVTZ
  Basis Set:
  Basis Set: CC-PVTZ
  Basis Set:
  @DF-RHF Final Energy:  -387.24800077779832
    Total Energy =                       -387.2480007777982109
  Basis Set: CC-PVTZ
  Basis Set:
  Charge       = 0
  Multiplicity = 1
  Basis Set: CC-PVTZ
  Basis Set:

    Orbital Energies (a.u.)
    -----------------------

    Doubly Occupied:

       1A    -20.551636     2A    -11.321165     3A    -11.233821
       4A    -11.232748     5A    -11.221209     6A    -11.218945
       7A    -11.215702     8A    -11.214702     9A    -11.205891
      10A     -1.406647    11A     -1.103356    12A     -1.066236
      13A     -1.011030    14A     -0.946355    15A     -0.874112
      16A     -0.830174    17A     -0.789639    18A     -0.769248
      19A     -0.669109    20A     -0.662359    21A     -0.631349
      22A     -0.624412    23A     -0.610764    24A     -0.594773
      25A     -0.565170    26A     -0.558787    27A     -0.535304
      28A     -0.521339    29A     -0.517000    30A     -0.499224
      31A     -0.492198    32A     -0.482188    33A     -0.450845
      34A     -0.449504    35A     -0.445319    36A     -0.412069

  @DF-RHF Final Energy:  -387.24800107713719

   => Energetics <=

    Nuclear Repulsion Energy =            451.2913909871201099
    One-Electron Energy =               -1419.2101335868355818
    Two-Electron Energy =                 580.6707415225785098
    DFT Exchange-Correlation Energy =       0.0000000000000000
    Empirical Dispersion Energy =           0.0000000000000000
    PCM Polarization Energy =               0.0000000000000000
    EFP Energy =                            0.0000000000000000
    Total Energy =                       -387.2480010771369052
    Molecular point group: c1
  Basis Set: CC-PVTZ
  Basis Set:

  -Total Gradient:
     Atom            X                  Y                   Z
    ------   -----------------  -----------------  -----------------
       1        0.000009447282    -0.000014774600     0.000020758300
       2        0.000018777819    -0.000013769404     0.000040674351
       3       -0.000003698171     0.000050382037    -0.000019560895
       4       -0.000058652579    -0.000031466724    -0.000022515950
       5        0.000019873593    -0.000047369012     0.000030403510
       6       -0.000028436983     0.000016439883    -0.000033161023
       7        0.000046235048     0.000011483033    -0.000021439471
       8        0.000092310122     0.000374780809    -0.000512969592
       9        0.000030944564    -0.000001614261    -0.000030966050
      10        0.000029899154    -0.000028300302     0.000049645462
      11       -0.000015596754    -0.000363497351     0.000663813685
      12       -0.000005723870     0.000006735658    -0.000021177812
      13       -0.000055119509    -0.000035204655     0.000058500990
      14       -0.000666520877    -0.000456623270    -0.000217829225
      15        0.000001471112     0.000026614268     0.000002013607
      16       -0.000007113144     0.000000791115    -0.000004998510
      17        0.000032460761    -0.000016704149     0.000002517983
      18        0.000553261527     0.000504773058     0.000009124424
      19        0.000010127778     0.000010805167    -0.000001255025
      20        0.000010528785     0.000009358769    -0.000001262906
      21        0.000015523869     0.000011637006     0.000008563281
      22        0.000005636250     0.000007162252    -0.000017494947
      23       -0.000006120566     0.000022396014     0.000031034028
      24        0.000010244063    -0.000051434968    -0.000003008666
      25       -0.000039759275     0.000007399629    -0.000009409545

  **** Optimization is complete! (in 12 steps) ****
    Final optimized geometry and variables:
    Molecular point group: c1

    Geometry (in Angstrom), charge = 0, multiplicity = 1:

    H           -0.671500491699     3.141453478857    -0.093619775649
    C           -0.246421735159     2.727545107614     0.830954386725
    C           -1.132024857187     1.748612429274     1.552484952370
    O            0.827010288719     3.066477288527     1.191844144112
    C           -1.630925268963     0.621080683912     0.643783396842
    H           -0.593592784051     1.362775348112     2.408311041436
    H           -1.984844023825     2.314311626833     1.921016564942
    C           -0.523142892414    -0.321990422935     0.175878676103
    H           -2.384057582559     0.055226190799     1.181088352988
    H           -2.134719052093     1.050668156855    -0.218502173465
    C           -1.069679435205    -1.436884200235    -0.716478210594
    H           -0.035729794287    -0.741895036031     1.049265447526
    H            0.233489244173     0.247602264326    -0.350274603852
    C           -0.084473400697    -2.515675005069    -1.250509549348
    H           -1.854704979381    -1.940859379233    -0.161666533874
    H           -1.567430671291    -0.973305157203    -1.562298970279
    C            1.384407361541    -2.477053596070    -0.802462929357
    H           -0.094306930844    -2.490205430718    -2.335322236933
    H           -0.485288428195    -3.485234127108    -0.978701139980
    C            2.268829139311    -1.509070098705    -1.586376067989
    H            1.791047309529    -3.475076274505    -0.932025527463
    H            1.456557904440    -2.267169990287     0.258539845177
    H            2.272923808221    -1.765410191783    -2.640727641684
    H            1.938740216299    -0.482093341269    -1.501507215278
    H            3.293049757417    -1.551528180281    -1.233703695426

  Mulliken Charges: (a.u.)
   Center  Symbol    Alpha    Beta     Spin     Total
       1     H     0.46394  0.46394  0.00000  0.07212
       2     C     2.90657  2.90657  0.00000  0.18686
       3     C     3.08717  3.08717  0.00000 -0.17434
       4     O     4.16623  4.16623  0.00000 -0.33246
       5     C     3.11578  3.11578  0.00000 -0.23155
       6     H     0.44328  0.44328  0.00000  0.11344
       7     H     0.44045  0.44045  0.00000  0.11911
       8     C     3.10070  3.10070  0.00000 -0.20140
       9     H     0.44287  0.44287  0.00000  0.11426
      10     H     0.44989  0.44989  0.00000  0.10022
      11     C     3.09655  3.09655  0.00000 -0.19309
      12     H     0.44790  0.44790  0.00000  0.10420
      13     H     0.44195  0.44195  0.00000  0.11610
      14     C     3.10209  3.10209  0.00000 -0.20417
      15     H     0.45017  0.45017  0.00000  0.09966
      16     H     0.45007  0.45007  0.00000  0.09987
      17     C     3.09841  3.09841  0.00000 -0.19682
      18     H     0.45229  0.45229  0.00000  0.09541
      19     H     0.44493  0.44493  0.00000  0.11013
      20     C     3.14717  3.14717  0.00000 -0.29433
      21     H     0.44378  0.44378  0.00000  0.11244
      22     H     0.45098  0.45098  0.00000  0.09804
      23     H     0.45527  0.45527  0.00000  0.08945
      24     H     0.45409  0.45409  0.00000  0.09182
      25     H     0.44748  0.44748  0.00000  0.10504

   Total alpha = 36.00000, Total beta = 36.00000, Total charge = -0.00000

*** Psi4 exiting successfully. Buy a developer a beer!
