  ==> Input File <==

--------------------------------------------------------------------------
set {
	reference rhf
	basis cc-pvtz
}

set_num_threads( 4 )
memory 2 gb

molecule MOL {
0 1

H	 -3.941973	 0.934228	 -0.390224
C	 -3.240162	 0.342701	 0.161016
C	 -2.105997	 -0.000418	 -0.398703
H	 -3.485368	 0.047206	 1.162193
O	 -1.189946	 -0.765863	 0.237511
H	 -1.846458	 0.297311	 -1.398265
C	 0.026572	 -0.995256	 -0.379403
C	 1.057223	 0.049888	 -0.004615
H	 -0.054361	 -1.010670	 -1.459674
H	 0.397526	 -1.952058	 -0.044198
F	 2.153260	 -0.141477	 -0.711130
F	 0.631140	 1.270217	 -0.251103
F	 1.380826	 -0.009827	 1.264311

	symmetry c1
}
set optking {
	frozen_dihedral = ("
		11 8 7 9
	")
}

ee = optimize('scf')
oeprop('DIPOLE', 'QUADRUPOLE', 'MULLIKEN_CHARGES')
f=open( 'psi4out.xyz', 'w' )
f.write( "13  " )
f.write( str(ee) + "\n" )
f.write( MOL.save_string_xyz() )
f.close()
--------------------------------------------------------------------------

    Molecular point group: c1
  Charge       = 0
  Multiplicity = 1
  Basis Set: CC-PVTZ
  Basis Set:
  @DF-RHF Final Energy:  -527.74181896638163
    Total Energy =                       -527.7418189663817429
    Molecular point group: c1
  Basis Set: CC-PVTZ
  Basis Set:
  Basis Set: CC-PVTZ
  Basis Set:
  @DF-RHF Final Energy:  -527.74184095105534
    Total Energy =                       -527.7418409510553374
  Basis Set: CC-PVTZ
  Basis Set:
  Basis Set: CC-PVTZ
  Basis Set:
  @DF-RHF Final Energy:  -527.74184661897118
    Total Energy =                       -527.7418466189712944
  Basis Set: CC-PVTZ
  Basis Set:
  Charge       = 0
  Multiplicity = 1
  Basis Set: CC-PVTZ
  Basis Set:

    Orbital Energies (a.u.)
    -----------------------

    Doubly Occupied:

       1A    -26.341914     2A    -26.340108     3A    -26.338647
       4A    -20.604378     5A    -11.497981     6A    -11.320054
       7A    -11.298681     8A    -11.213767     9A     -1.750580
      10A     -1.646911    11A     -1.645611    12A     -1.444995
      13A     -1.088201    14A     -1.020633    15A     -0.932393
      16A     -0.844392    17A     -0.839404    18A     -0.827454
      19A     -0.797684    20A     -0.729748    21A     -0.719748
      22A     -0.703897    23A     -0.681571    24A     -0.668271
      25A     -0.661599    26A     -0.651071    27A     -0.640233
      28A     -0.587891    29A     -0.566130    30A     -0.529392
      31A     -0.518349    32A     -0.356639

  @DF-RHF Final Energy:  -527.74184753485883

   => Energetics <=

    Nuclear Repulsion Energy =            413.4666948701921569
    One-Electron Energy =               -1550.8004250144817888
    Two-Electron Energy =                 609.5918826094308542
    DFT Exchange-Correlation Energy =       0.0000000000000000
    Empirical Dispersion Energy =           0.0000000000000000
    PCM Polarization Energy =               0.0000000000000000
    EFP Energy =                            0.0000000000000000
    Total Energy =                       -527.7418475348587208
    Molecular point group: c1
  Basis Set: CC-PVTZ
  Basis Set:

  -Total Gradient:
     Atom            X                  Y                   Z
    ------   -----------------  -----------------  -----------------
       1       -0.000010028481    -0.000021977918    -0.000008898529
       2        0.000003434036     0.000020028734    -0.000004645601
       3        0.000096564768     0.000097108979     0.000051211966
       4       -0.000000474205     0.000001726096     0.000004740182
       5       -0.000019121553    -0.000101982906    -0.000061065192
       6       -0.000021812553    -0.000026036006    -0.000019124215
       7       -0.001805475712     0.001977556818    -0.000189304309
       8        0.000998308757    -0.001472957380     0.001436157233
       9        0.001317996552    -0.001345412251    -0.000055194665
      10        0.000014353494    -0.000027412771    -0.000031086044
      11       -0.000541649523     0.000940398804    -0.001139314160
      12       -0.000014157053    -0.000053351670    -0.000003482120
      13       -0.000017938532     0.000012311473     0.000020005452

  **** Optimization is complete! (in 4 steps) ****
    Final optimized geometry and variables:
    Molecular point group: c1

    Geometry (in Angstrom), charge = 0, multiplicity = 1:

    H           -3.947993701993     0.931312597186    -0.384243677074
    C           -3.247407266114     0.335855646223     0.164320275125
    C           -2.107326907484     0.006136431415    -0.391399116199
    H           -3.498451912902     0.026027945222     1.159721676047
    O           -1.191626603679    -0.762242905238     0.241871809499
    H           -1.842313025011     0.317964957377    -1.385141999690
    C            0.022235095913    -0.992457022965    -0.377628840815
    C            1.059509840096     0.048109490227    -0.005587428871
    H           -0.053519158910    -1.018095863531    -1.458020807859
    H            0.392780001996    -1.949667705437    -0.041722317095
    F            2.158640048311    -0.157670189242    -0.703278771335
    F            0.645341742241     1.268535917436    -0.269757875929
    F            1.372967377426     0.001121264007     1.266784265186

  Mulliken Charges: (a.u.)
   Center  Symbol    Alpha    Beta     Spin     Total
       1     H     0.42519  0.42519  0.00000  0.14963
       2     C     3.19749  3.19749  0.00000 -0.39497
       3     C     2.95774  2.95774  0.00000  0.08451
       4     H     0.42486  0.42486  0.00000  0.15027
       5     O     4.14445  4.14445  0.00000 -0.28889
       6     H     0.43451  0.43451  0.00000  0.13098
       7     C     3.02077  3.02077  0.00000 -0.04154
       8     C     2.67467  2.67467  0.00000  0.65067
       9     H     0.45506  0.45506  0.00000  0.08988
      10     H     0.43578  0.43578  0.00000  0.12844
      11     F     4.61269  4.61269  0.00000 -0.22537
      12     F     4.60979  4.60979  0.00000 -0.21958
      13     F     4.60701  4.60701  0.00000 -0.21403

   Total alpha = 32.00000, Total beta = 32.00000, Total charge = -0.00000
