  ==> Input File <==

--------------------------------------------------------------------------
set {
	reference rhf
	basis 6-31G*
}

set_num_threads( 4 )
memory 2 gb

molecule MOL {
0 1

H	 -2.556224	 2.073025	 -1.841479
C	 -2.838661	 1.023983	 -1.688626
C	 -1.856608	 0.014712	 -2.226728
O	 -3.854489	 0.753599	 -1.134788
C	 -0.425299	 0.264139	 -1.731354
H	 -2.203819	 -0.976610	 -1.959456
H	 -1.878652	 0.094639	 -3.312905
C	 -0.252658	 0.041456	 -0.226725
H	 0.245951	 -0.395631	 -2.273029
H	 -0.125466	 1.278741	 -1.989113
C	 1.180775	 0.282413	 0.250794
H	 -0.551282	 -0.975520	 0.019101
H	 -0.928096	 0.694337	 0.322883
C	 2.148627	 -0.814315	 -0.201312
H	 1.516199	 1.249228	 -0.115937
H	 1.192670	 0.346017	 1.338083
C	 3.580890	 -0.659131	 0.322722
H	 2.166869	 -0.852443	 -1.289387
H	 1.762857	 -1.776509	 0.128956
C	 4.324889	 0.564933	 -0.213704
H	 4.142010	 -1.551473	 0.056605
H	 3.564836	 -0.624694	 1.410140
H	 4.342616	 0.565491	 -1.300421
H	 3.866655	 1.493402	 0.110242
H	 5.353900	 0.572371	 0.132816

	symmetry c1
}
set optking {
	frozen_dihedral = ("
		12 8 11 14
	")
}

ee = optimize('scf')
oeprop('DIPOLE', 'QUADRUPOLE', 'MULLIKEN_CHARGES')
f=open( 'psi4out.xyz', 'w' )
f.write( "25  " )
f.write( str(ee) + "\n" )
f.write( MOL.save_string_xyz() )
f.close()
--------------------------------------------------------------------------

    Molecular point group: c1
  Charge       = 0
  Multiplicity = 1
  Basis Set: 6-31G*
  Basis Set:
  @DF-RHF Final Energy:  -387.11986981517907
    Total Energy =                       -387.1198698151794133
    Molecular point group: c1
  Basis Set: 6-31G*
  Basis Set:
  Basis Set: 6-31G*
  Basis Set:
  @DF-RHF Final Energy:  -387.11991925050006
    Total Energy =                       -387.1199192505000610
  Basis Set: 6-31G*
  Basis Set:
  Basis Set: 6-31G*
  Basis Set:
  @DF-RHF Final Energy:  -387.12010867757050
    Total Energy =                       -387.1201086775705562
  Basis Set: 6-31G*
  Basis Set:
  Basis Set: 6-31G*
  Basis Set:
  @DF-RHF Final Energy:  -387.12020974306807
    Total Energy =                       -387.1202097430673348
  Basis Set: 6-31G*
  Basis Set:
  @DF-RHF Final Energy:  -387.12000480606343
    Total Energy =                       -387.1200048060630934
  @DF-RHF Final Energy:  -387.12025603251459
    Total Energy =                       -387.1202560325145896
  Basis Set: 6-31G*
  Basis Set:
  @DF-RHF Final Energy:  -387.12024315178041
    Total Energy =                       -387.1202431517799596
  Basis Set: 6-31G*
  Basis Set:
  Basis Set: 6-31G*
  Basis Set:
  @DF-RHF Final Energy:  -387.12025220909891
    Total Energy =                       -387.1202522090989078
  Basis Set: 6-31G*
  Basis Set:
  Basis Set: 6-31G*
  Basis Set:
  @DF-RHF Final Energy:  -387.12026046168882
    Total Energy =                       -387.1202604616879626
  Basis Set: 6-31G*
  Basis Set:
  Charge       = 0
  Multiplicity = 1
  Basis Set: 6-31G*
  Basis Set:

    Orbital Energies (a.u.)
    -----------------------

    Doubly Occupied:

       1A    -20.561954     2A    -11.326063     3A    -11.234989
       4A    -11.234400     5A    -11.224333     6A    -11.220226
       7A    -11.219218     8A    -11.218407     9A    -11.211705
      10A     -1.401888    11A     -1.104212    12A     -1.069265
      13A     -1.012970    14A     -0.940977    15A     -0.881169
      16A     -0.822861    17A     -0.789965    18A     -0.776049
      19A     -0.665484    20A     -0.653697    21A     -0.634676
      22A     -0.623195    23A     -0.605704    24A     -0.598079
      25A     -0.580149    26A     -0.548735    27A     -0.534393
      28A     -0.523721    29A     -0.518160    30A     -0.501006
      31A     -0.485417    32A     -0.477625    33A     -0.461392
      34A     -0.453280    35A     -0.447777    36A     -0.409145

  @DF-RHF Final Energy:  -387.12026044495627

   => Energetics <=

    Nuclear Repulsion Energy =            442.6209282955920230
    One-Electron Energy =               -1401.5378060536563680
    Two-Electron Energy =                 571.7966173131084133
    DFT Exchange-Correlation Energy =       0.0000000000000000
    Empirical Dispersion Energy =           0.0000000000000000
    PCM Polarization Energy =               0.0000000000000000
    EFP Energy =                            0.0000000000000000
    Total Energy =                       -387.1202604449559885
    Molecular point group: c1
  Basis Set: 6-31G*
  Basis Set:

  -Total Gradient:
     Atom            X                  Y                   Z
    ------   -----------------  -----------------  -----------------
       1        0.000000507043     0.000000220035     0.000000948754
       2        0.000004833392     0.000003501442    -0.000001749990
       3        0.000000705253     0.000002381363     0.000000039228
       4        0.000000700147    -0.000003606915    -0.000001509532
       5       -0.000010859757     0.000031446612     0.000010207309
       6        0.000001003449     0.000001185597     0.000001076841
       7        0.000000402803    -0.000003687298    -0.000005409126
       8       -0.000512293123     0.000247897998     0.001472720572
       9       -0.000006809762    -0.000004393011     0.000009462832
      10        0.000005594892     0.000002649219    -0.000010509650
      11        0.000288876385     0.000498541902    -0.001189782395
      12        0.000375708511    -0.000369389380    -0.000959111093
      13        0.000002782588     0.000000108673    -0.000009206886
      14       -0.000149473460    -0.000410997120     0.000678405326
      15        0.000007196481    -0.000000217538     0.000000657616
      16       -0.000005669536     0.000003606527     0.000007800181
      17       -0.000002667438     0.000005706808    -0.000000031328
      18       -0.000006493000     0.000001336979    -0.000003536965
      19        0.000010636595    -0.000002626150     0.000002666888
      20        0.000000938181    -0.000002448166    -0.000002372869
      21       -0.000001143339    -0.000001320218     0.000000386028
      22       -0.000002744460     0.000002744500    -0.000000806916
      23       -0.000001736213     0.000001543226    -0.000001338090
      24       -0.000001327464    -0.000002392168     0.000001791911
      25        0.000001331843    -0.000001792919    -0.000000798647

  **** Optimization is complete! (in 10 steps) ****
    Final optimized geometry and variables:
    Molecular point group: c1

    Geometry (in Angstrom), charge = 0, multiplicity = 1:

    H           -2.771889499807     1.917663451360    -1.090370232475
    C           -3.076283186107     0.881030494459    -0.899082109643
    C           -2.145681146669    -0.168458361822    -1.451709215334
    O           -4.078284150993     0.653670952189    -0.302269024013
    C           -0.688282489102     0.048698651664    -1.019942365643
    H           -2.510231722994    -1.142932486288    -1.147736985998
    H           -2.209726375918    -0.112272423838    -2.537662027775
    C           -0.467519361314    -0.153533446314     0.483245389648
    H           -0.062512692013    -0.634585558359    -1.583919102243
    H           -0.374038571142     1.052238121801    -1.302905390209
    C            0.975037994327     0.092483013762     0.942958594470
    H           -0.764850745208    -1.166040284141     0.748187471957
    H           -1.127851603271     0.511770877841     1.034744033514
    C            1.966024905689    -0.995477746774     0.514646355161
    H            1.301800528763     1.064734434249     0.582654839883
    H            0.982507474852     0.153609254361     2.029251828097
    C            3.373270626991    -0.833377914506     1.101447186942
    H            2.040576308907    -1.030183747995    -0.570121347144
    H            1.572501935808    -1.961645399239     0.824055319007
    C            4.128609685207     0.402059870409     0.608048963424
    H            3.953129929898    -1.718780333424     0.852881682389
    H            3.309039176133    -0.808113422398     2.187288966255
    H            4.197035067837     0.410386497966    -0.476599578444
    H            3.646272422000     1.323639661251     0.916479273242
    H            5.140200926848     0.417488267696     1.001698316508

  Mulliken Charges: (a.u.)
   Center  Symbol    Alpha    Beta     Spin     Total
       1     H     0.43264  0.43264  0.00000  0.13472
       2     C     2.83097  2.83097  0.00000  0.33807
       3     C     3.20797  3.20797  0.00000 -0.41595
       4     O     4.23783  4.23783  0.00000 -0.47566
       5     C     3.16794  3.16794  0.00000 -0.33589
       6     H     0.39971  0.39971  0.00000  0.20057
       7     H     0.40669  0.40669  0.00000  0.18662
       8     C     3.15666  3.15666  0.00000 -0.31333
       9     H     0.41086  0.41086  0.00000  0.17828
      10     H     0.42013  0.42013  0.00000  0.15974
      11     C     3.15626  3.15626  0.00000 -0.31252
      12     H     0.41834  0.41834  0.00000  0.16331
      13     H     0.41624  0.41624  0.00000  0.16752
      14     C     3.15450  3.15450  0.00000 -0.30900
      15     H     0.42132  0.42132  0.00000  0.15735
      16     H     0.41916  0.41916  0.00000  0.16168
      17     C     3.15252  3.15252  0.00000 -0.30504
      18     H     0.42379  0.42379  0.00000  0.15243
      19     H     0.42137  0.42137  0.00000  0.15726
      20     C     3.24137  3.24137  0.00000 -0.48275
      21     H     0.42033  0.42033  0.00000  0.15933
      22     H     0.42242  0.42242  0.00000  0.15515
      23     H     0.42264  0.42264  0.00000  0.15472
      24     H     0.41994  0.41994  0.00000  0.16012
      25     H     0.41837  0.41837  0.00000  0.16326

   Total alpha = 36.00000, Total beta = 36.00000, Total charge =  0.00000
