  ==> Input File <==

--------------------------------------------------------------------------
set {
	reference rhf
	basis 6-31G*
}

set_num_threads( 4 )
memory 2 gb

molecule MOL {
0 1

H	 2.629802	 -0.554641	 1.014452
N	 1.649349	 -0.355696	 1.036688
C	 0.880124	 -1.581817	 0.928836
C	 1.298466	 0.584987	 -0.011505
H	 1.160702	 -2.245746	 1.739542
H	 1.058630	 -2.105538	 -0.013232
C	 -0.601388	 -1.251133	 1.029827
H	 1.881999	 1.490210	 0.118226
H	 1.502310	 0.192502	 -1.010526
C	 -0.183305	 0.914329	 0.090069
H	 -0.813292	 -0.864553	 2.031202
H	 -1.185396	 -2.155599	 0.894103
N	 -0.975995	 -0.298722	 0.000000
H	 -0.465388	 1.573685	 -0.724318
H	 -0.367199	 1.445987	 1.028483
C	 -2.393863	 -0.024976	 0.000000
H	 -2.854032	 -0.467193	 -0.876721
H	 -2.854032	 -0.467193	 0.876721
H	 -2.623281	 1.044943	 0.000000

	symmetry c1
}
set optking {
	frozen_dihedral = ("
		7 13 16 19
	")
}

ee = optimize('scf')
oeprop('DIPOLE', 'QUADRUPOLE', 'MULLIKEN_CHARGES')
f=open( 'psi4out.xyz', 'w' )
f.write( "19  " )
f.write( str(ee) + "\n" )
f.write( MOL.save_string_xyz() )
f.close()
--------------------------------------------------------------------------

    Molecular point group: c1
  Charge       = 0
  Multiplicity = 1
  Basis Set: 6-31G*
  Basis Set:
  @DF-RHF Final Energy:  -305.19265999551720
    Total Energy =                       -305.1926599955172605
    Molecular point group: c1
  Basis Set: 6-31G*
  Basis Set:
  Basis Set: 6-31G*
  Basis Set:
  @DF-RHF Final Energy:  -305.19329909512328
    Total Energy =                       -305.1932990951230522
  Basis Set: 6-31G*
  Basis Set:
  Basis Set: 6-31G*
  Basis Set:
  @DF-RHF Final Energy:  -305.19343082216420
    Total Energy =                       -305.1934308221644869
  Basis Set: 6-31G*
  Basis Set:
  Charge       = 0
  Multiplicity = 1
  Basis Set: 6-31G*
  Basis Set:

    Orbital Energies (a.u.)
    -----------------------

    Doubly Occupied:

       1A    -15.537707     2A    -15.535828     3A    -11.237643
       4A    -11.237608     5A    -11.236840     6A    -11.236754
       7A    -11.234714     8A     -1.243897     9A     -1.182759
      10A     -1.022149    11A     -0.963651    12A     -0.859777
      13A     -0.858012    14A     -0.756494    15A     -0.690157
      16A     -0.630152    17A     -0.622903    18A     -0.604884
      19A     -0.603186    20A     -0.579786    21A     -0.543592
      22A     -0.535443    23A     -0.511624    24A     -0.487911
      25A     -0.465212    26A     -0.455816    27A     -0.362534
      28A     -0.339430

  @DF-RHF Final Energy:  -305.19343284497933

   => Energetics <=

    Nuclear Repulsion Energy =            339.2849841319825259
    One-Electron Energy =               -1085.8039049278618222
    Two-Electron Energy =                 441.3254879508995714
    DFT Exchange-Correlation Energy =       0.0000000000000000
    Empirical Dispersion Energy =           0.0000000000000000
    PCM Polarization Energy =               0.0000000000000000
    EFP Energy =                            0.0000000000000000
    Total Energy =                       -305.1934328449796681
    Molecular point group: c1
  Basis Set: 6-31G*
  Basis Set:

  -Total Gradient:
     Atom            X                  Y                   Z
    ------   -----------------  -----------------  -----------------
       1       -0.000035699643    -0.000000217097    -0.000019806691
       2       -0.000055254806     0.000008593372     0.000002937852
       3        0.000024422429    -0.000000498781    -0.000074429789
       4        0.000046727207     0.000073034436     0.000038641729
       5        0.000016661137    -0.000003273205     0.000008852398
       6        0.000010305739    -0.000005310563     0.000003244799
       7        0.000193399704     0.000922459712     0.000914874087
       8        0.000086469782     0.000005072469     0.000008647737
       9       -0.000033367281     0.000009538858     0.000034112224
      10        0.000148583343     0.000000833794     0.000012430064
      11       -0.000024928121     0.000016767438    -0.000029652734
      12        0.000004188356     0.000037137598    -0.000027101185
      13       -0.000350546144    -0.001340923213    -0.000762450323
      14        0.000007566084    -0.000044444382     0.000012494890
      15        0.000011071523    -0.000024647574    -0.000032944388
      16        0.000025380869     0.000418834869    -0.001724432775
      17        0.000019412432    -0.000015646396     0.000002858850
      18       -0.000013272926    -0.000000137016     0.000014495882
      19       -0.000081119683    -0.000057174321     0.001617227373

  **** Optimization is complete! (in 4 steps) ****
    Final optimized geometry and variables:
    Molecular point group: c1

    Geometry (in Angstrom), charge = 0, multiplicity = 1:

    H            2.692410652108    -0.275758894609     0.553644226627
    N            1.712990083627    -0.073409398596     0.586798131076
    C            0.938656125287    -1.296577667969     0.484448157735
    C            1.354591873704     0.869637940768    -0.456497657616
    H            1.225722830080    -1.963478928861     1.290660023060
    H            1.105263746758    -1.818554163512    -0.460791048273
    C           -0.540439304181    -0.961726303749     0.601754668613
    H            1.944489136705     1.771888311410    -0.333247965393
    H            1.544713781508     0.476237669826    -1.457873345432
    C           -0.124225478029     1.206733547387    -0.339822130914
    H           -0.742112869784    -0.582048624180     1.607695534255
    H           -1.125005436796    -1.865718325341     0.466085037524
    N           -0.923549565680    -0.003418657419    -0.419150534139
    H           -0.406763576766     1.863456281832    -1.155541112171
    H           -0.293274165614     1.745426549454     0.597233652265
    C           -2.357239790120     0.246351689592    -0.460855585999
    H           -2.804164041586    -0.182643323201    -1.352664935611
    H           -2.863013590221    -0.178365983395     0.402943952458
    H           -2.571040550766     1.310006901147    -0.451757611967

  Mulliken Charges: (a.u.)
   Center  Symbol    Alpha    Beta     Spin     Total
       1     H     0.32963  0.32963  0.00000  0.34073
       2     N     3.85426  3.85426  0.00000 -0.70852
       3     C     3.06330  3.06330  0.00000 -0.12660
       4     C     3.06341  3.06341  0.00000 -0.12682
       5     H     0.41802  0.41802  0.00000  0.16397
       6     H     0.42790  0.42790  0.00000  0.14420
       7     C     3.05510  3.05510  0.00000 -0.11019
       8     H     0.41802  0.41802  0.00000  0.16397
       9     H     0.42793  0.42793  0.00000  0.14415
      10     C     3.05485  3.05485  0.00000 -0.10969
      11     H     0.42827  0.42827  0.00000  0.14347
      12     H     0.41821  0.41821  0.00000  0.16358
      13     N     3.79251  3.79251  0.00000 -0.58502
      14     H     0.41828  0.41828  0.00000  0.16345
      15     H     0.42853  0.42853  0.00000  0.14295
      16     C     3.13949  3.13949  0.00000 -0.27897
      17     H     0.41641  0.41641  0.00000  0.16718
      18     H     0.42427  0.42427  0.00000  0.15146
      19     H     0.42164  0.42164  0.00000  0.15673

   Total alpha = 28.00000, Total beta = 28.00000, Total charge = -0.00000
