                              Psi4 1.0.54 Driver

  ==> Input File <==

--------------------------------------------------------------------------
set {
	reference rhf
	basis cc-pvtz
}

set_num_threads( 4 )
memory 2 gb

molecule MOL {
0 1

H	 2.582289	 0.071639	 1.168561
C	 1.948180	 -0.217873	 0.320185
C	 0.692262	 0.592428	 0.156232
O	 2.272024	 -1.112131	 -0.381998
C	 -0.554654	 -0.292621	 0.086567
H	 0.791858	 1.203694	 -0.731051
H	 0.617379	 1.254358	 1.016534
C	 -1.846385	 0.513195	 -0.016346
H	 -0.473986	 -0.956115	 -0.769708
H	 -0.597929	 -0.929215	 0.966651
C	 -3.089953	 -0.365049	 -0.098564
H	 -1.798267	 1.154820	 -0.891143
H	 -1.925398	 1.173265	 0.842889
H	 -3.055079	 -1.012299	 -0.968245
H	 -3.988403	 0.236438	 -0.170014
H	 -3.183055	 -0.995885	 0.779079

	symmetry c1
}
set optking {
	frozen_dihedral = ("
		4 2 3 6
	")
}

ee,wfn = optimize('scf', return_wfn=True)
oeprop( wfn, 'DIPOLE', 'QUADRUPOLE', 'MULLIKEN_CHARGES')
f=open( 'psi4out.xyz', 'w' )
f.write( "16  " )
f.write( str(ee) + "\n" )
f.write( MOL.save_string_xyz() )
f.close()
--------------------------------------------------------------------------

    Molecular point group: c1
  Charge       = 0
  Multiplicity = 1
  Basis Set: CC-PVTZ
  Basis Set:
  @DF-RHF Final Energy:  -270.11699403860825
    Total Energy =                       -270.1169940386081976
    Molecular point group: c1
  Basis Set: CC-PVTZ
  Basis Set:
  Basis Set: CC-PVTZ
  Basis Set:
  @DF-RHF Final Energy:  -270.11753874914621
    Total Energy =                       -270.1175387491462061
  Basis Set: CC-PVTZ
  Basis Set:
  Basis Set: CC-PVTZ
  Basis Set:
  @DF-RHF Final Energy:  -270.11711358585762
    Total Energy =                       -270.1171135858576804
  Basis Set: CC-PVTZ
  Basis Set:
  Basis Set: CC-PVTZ
  Basis Set:
  @DF-RHF Final Energy:  -270.11759436327100
    Total Energy =                       -270.1175943632711096
  Basis Set: CC-PVTZ
  Basis Set:
  Basis Set: CC-PVTZ
  Basis Set:
  @DF-RHF Final Energy:  -270.11760102166966
    Total Energy =                       -270.1176010216696568
  Basis Set: CC-PVTZ
  Basis Set:
  Charge       = 0
  Multiplicity = 1
  Basis Set: CC-PVTZ
  Basis Set:

    Orbital Energies (a.u.)
    -----------------------

    Doubly Occupied:

       1A    -20.552330     2A    -11.322619     3A    -11.234445
       4A    -11.225579     5A    -11.222435     6A    -11.212228
       7A     -1.407938     8A     -1.091339     9A     -1.015636
      10A     -0.907122    11A     -0.813895    12A     -0.779521
      13A     -0.683748    14A     -0.649124    15A     -0.632145
      16A     -0.601400    17A     -0.581722    18A     -0.546563
      19A     -0.528897    20A     -0.504678    21A     -0.482857
      22A     -0.480137    23A     -0.473930    24A     -0.411073

  @DF-RHF Final Energy:  -270.11760071065061

   => Energetics <=

    Nuclear Repulsion Energy =            231.6200855515629087
    One-Electron Energy =                -824.7526489310736224
    Two-Electron Energy =                 323.0149626688604485
    DFT Exchange-Correlation Energy =       0.0000000000000000
    Empirical Dispersion Energy =           0.0000000000000000
    PCM Polarization Energy =               0.0000000000000000
    EFP Energy =                            0.0000000000000000
    Total Energy =                       -270.1176007106502084
    Molecular point group: c1
  Basis Set: CC-PVTZ
  Basis Set:

  -Total Gradient:
     Atom            X                  Y                   Z
    ------   -----------------  -----------------  -----------------
       1       -0.000096433331    -0.000058759669    -0.000158242997
       2       -0.000686330190    -0.001306471173     0.000899887864
       3        0.000708586062     0.001270849000     0.000539705863
       4        0.000532743967     0.000811624788    -0.000584082809
       5        0.000009875785     0.000001209577    -0.000109130371
       6       -0.000452674514    -0.000808868253    -0.000590029297
       7       -0.000020526502     0.000053837119    -0.000003688280
       8       -0.000007986438     0.000000119906     0.000006502003
       9       -0.000003152689     0.000000632295    -0.000023827424
      10        0.000043814530     0.000021983381    -0.000004965939
      11       -0.000006479125     0.000011049947     0.000025334592
      12       -0.000004392084    -0.000011990360    -0.000002508841
      13       -0.000013625509     0.000013011340    -0.000003980523
      14        0.000009379868     0.000009403902    -0.000003469837
      15       -0.000010096681     0.000000266653     0.000007705572
      16       -0.000002703141    -0.000007898454     0.000004790423

  **** Optimization is complete! (in 6 steps) ****
    Final optimized geometry and variables:
    Molecular point group: c1

    Geometry (in Angstrom), charge = 0, multiplicity = 1:

    H            2.757784186140     0.226690343551     1.136953745250
    C            2.069297380367    -0.044407016054     0.328468589306
    C            0.783493206950     0.745500690167     0.247224171411
    O            2.364249943410    -0.899496168936    -0.433272465736
    C           -0.452055685195    -0.146159771574     0.111915539884
    H            0.866346535071     1.383093955577    -0.629115408712
    H            0.701235680686     1.393786495694     1.112502148729
    C           -1.741737002517     0.653886044013    -0.043067351142
    H           -0.317444178860    -0.800955544087    -0.740207055569
    H           -0.528186307835    -0.788042197066     0.985447469343
    C           -2.976854525639    -0.232006153396    -0.164735987068
    H           -1.665463998936     1.288975097283    -0.921325671979
    H           -1.859192961068     1.321055331097     0.806642221551
    H           -2.903512549588    -0.887889623811    -1.025402178095
    H           -3.875643660322     0.363021876815    -0.276995783643
    H           -3.099963281566    -0.854833276707     0.714893473676

  Mulliken Charges: (a.u.)
   Center  Symbol    Alpha    Beta     Spin     Total
       1     H     0.45431  0.45431  0.00000  0.09137
       2     C     2.91965  2.91965  0.00000  0.16070
       3     C     3.08725  3.08725  0.00000 -0.17450
       4     O     4.16707  4.16707  0.00000 -0.33414
       5     C     3.08996  3.08996  0.00000 -0.17992
       6     H     0.44436  0.44436  0.00000  0.11129
       7     H     0.44801  0.44801  0.00000  0.10397
       8     C     3.08457  3.08457  0.00000 -0.16915
       9     H     0.43977  0.43977  0.00000  0.12047
      10     H     0.45241  0.45241  0.00000  0.09519
      11     C     3.14906  3.14906  0.00000 -0.29812
      12     H     0.45323  0.45323  0.00000  0.09353
      13     H     0.45506  0.45506  0.00000  0.08988
      14     H     0.45285  0.45285  0.00000  0.09431
      15     H     0.44791  0.44791  0.00000  0.10418
      16     H     0.45453  0.45453  0.00000  0.09094

   Total alpha = 24.00000, Total beta = 24.00000, Total charge =  0.00000

*** Psi4 exiting successfully. Buy a developer a beer!
