  ==> Input File <==

--------------------------------------------------------------------------
set {
	reference rhf
	basis 6-31G*
}

set_num_threads( 4 )
memory 2 gb

molecule MOL {
0 1

O	 2.649734	 -0.168220	 0.665131
C	 1.705091	 0.115954	 0.001797
C	 0.381791	 -0.609817	 0.001258
O	 1.692527	 1.138990	 -0.843412
C	 -0.823008	 0.326187	 0.001381
H	 0.371250	 -1.265087	 -0.865474
H	 0.370908	 -1.265746	 0.867490
C	 -2.149452	 -0.435131	 -0.000098
H	 -0.770201	 0.977095	 -0.865636
H	 -0.771220	 0.975655	 0.869608
C	 -3.368779	 0.488503	 -0.000883
H	 -2.193746	 -1.087250	 -0.871175
H	 -2.195311	 -1.087803	 0.870418
C	 -4.693822	 -0.272754	 -0.001129
H	 -3.325798	 1.139422	 -0.871284
H	 -3.326423	 1.139959	 0.869145
H	 -4.781274	 -0.907928	 -0.878124
H	 -5.538651	 0.408946	 -0.001420
H	 -4.781694	 -0.907783	 0.875984
C	 2.877273	 1.908588	 -0.938538
H	 3.121724	 2.349593	 0.017123
H	 2.670878	 2.679578	 -1.664384
H	 3.703460	 1.295268	 -1.268325

	symmetry c1
}
set optking {
	frozen_dihedral = ("
		1 2 3 6
	")
}

ee = optimize('scf')
oeprop('DIPOLE', 'QUADRUPOLE', 'MULLIKEN_CHARGES')
f=open( 'psi4out.xyz', 'w' )
f.write( "23  " )
f.write( str(ee) + "\n" )
f.write( MOL.save_string_xyz() )
f.close()
--------------------------------------------------------------------------

    Molecular point group: c1
  Charge       = 0
  Multiplicity = 1
  Basis Set: 6-31G*
  Basis Set:
  @DF-RHF Final Energy:  -422.97414496815838
    Total Energy =                       -422.9741449681583845
    Molecular point group: c1
  Basis Set: 6-31G*
  Basis Set:
  Basis Set: 6-31G*
  Basis Set:
  @DF-RHF Final Energy:  -422.97259738346622
    Total Energy =                       -422.9725973834656543
  Basis Set: 6-31G*
  Basis Set:
  Basis Set: 6-31G*
  Basis Set:
  @DF-RHF Final Energy:  -422.97445033258532
    Total Energy =                       -422.9744503325855476
  Basis Set: 6-31G*
  Basis Set:
  Basis Set: 6-31G*
  Basis Set:
  @DF-RHF Final Energy:  -422.97464160883817
    Total Energy =                       -422.9746416088380556
  Basis Set: 6-31G*
  Basis Set:
  Basis Set: 6-31G*
  Basis Set:
  @DF-RHF Final Energy:  -422.97464422138881
    Total Energy =                       -422.9746442213888713
  Basis Set: 6-31G*
  Basis Set:
  Charge       = 0
  Multiplicity = 1
  Basis Set: 6-31G*
  Basis Set:

    Orbital Energies (a.u.)
    -----------------------

    Doubly Occupied:

       1A    -20.604786     2A    -20.542921     3A    -11.371449
       4A    -11.281141     5A    -11.234921     6A    -11.225991
       7A    -11.220960     8A    -11.219596     9A    -11.211841
      10A     -1.469276    11A     -1.361192    12A     -1.096486
      13A     -1.045217    14A     -0.983354    15A     -0.935481
      16A     -0.848071    17A     -0.797901    18A     -0.773835
      19A     -0.693070    20A     -0.681601    21A     -0.671953
      22A     -0.653472    23A     -0.609337    24A     -0.592640
      25A     -0.577999    26A     -0.567678    27A     -0.549923
      28A     -0.527221    29A     -0.523628    30A     -0.506835
      31A     -0.488943    32A     -0.478232    33A     -0.470331
      34A     -0.468635    35A     -0.454463    36A     -0.426236

  @DF-RHF Final Energy:  -422.97464498843857

   => Energetics <=

    Nuclear Repulsion Energy =            454.9546205290470766
    One-Electron Energy =               -1477.5253012069067609
    Two-Electron Energy =                 599.5960356894211145
    DFT Exchange-Correlation Energy =       0.0000000000000000
    Empirical Dispersion Energy =           0.0000000000000000
    PCM Polarization Energy =               0.0000000000000000
    EFP Energy =                            0.0000000000000000
    Total Energy =                       -422.9746449884385129
    Molecular point group: c1
  Basis Set: 6-31G*
  Basis Set:

  -Total Gradient:
     Atom            X                  Y                   Z
    ------   -----------------  -----------------  -----------------
       1        0.000273335446    -0.000407201546    -0.000696496996
       2       -0.000328513443     0.000480754228     0.001050535741
       3       -0.000257418653     0.000523399157    -0.000839111490
       4        0.000043164248     0.000005925412     0.000025001771
       5        0.000011994882    -0.000023816075    -0.000004559555
       6        0.000317673445    -0.000629825873     0.000430243173
       7       -0.000010459900     0.000009630763    -0.000016719927
       8       -0.000012436307     0.000024502607     0.000047613336
       9        0.000005006865     0.000021523941     0.000013053888
      10       -0.000026791629    -0.000017533810    -0.000008174344
      11       -0.000016857568    -0.000009826520    -0.000010484069
      12        0.000019903192     0.000002362823     0.000017263721
      13       -0.000008593412     0.000007872885     0.000016043991
      14       -0.000007746383     0.000008334344    -0.000021076739
      15        0.000003218836     0.000011724116     0.000003188494
      16       -0.000002248554    -0.000014625586     0.000002181005
      17       -0.000003984349    -0.000004165718    -0.000001474711
      18       -0.000004187565    -0.000002089871    -0.000004144120
      19        0.000004605804     0.000003906203     0.000000208833
      20       -0.000025385903    -0.000000612203     0.000001636647
      21        0.000006176902     0.000005166446     0.000000588391
      22        0.000013932362     0.000005985620    -0.000001911561
      23        0.000005611676    -0.000001391347    -0.000003405477

  **** Optimization is complete! (in 6 steps) ****
    Final optimized geometry and variables:
    Molecular point group: c1

    Geometry (in Angstrom), charge = 0, multiplicity = 1:

    O            2.790851519990    -0.485395823915     0.789493895317
    C            1.861335946594    -0.151765926130     0.127074621594
    C            0.528788864606    -0.861960749109     0.105116982805
    O            1.903680832698     0.875686077965    -0.710895130933
    C           -0.694612551122     0.059396432800     0.110130691113
    H            0.520236836111    -1.487275435736    -0.785039205594
    H            0.520180302018    -1.527564719918     0.959009611181
    C           -2.006330862538    -0.726766883622     0.137124252516
    H           -0.667896307168     0.700512421123    -0.763787347066
    H           -0.648548061001     0.714316113837     0.977346346894
    C           -3.243404057389     0.172979987995     0.137109974596
    H           -2.045916072772    -1.391024809527    -0.724762879763
    H           -2.028119862133    -1.367307041813     1.016974760026
    C           -4.552954802064    -0.614458685489     0.156923891050
    H           -3.221152969399     0.814916687985    -0.740785046269
    H           -3.206937462666     0.834430055688     0.999945957229
    H           -4.635210502389    -1.260783551272    -0.712350299021
    H           -5.411095018311     0.050312003637     0.156806696805
    H           -4.620312514950    -1.241298233525     1.041572119130
    C            3.124632527566     1.588757953845    -0.791152380351
    H            3.384260921800     2.006291541163     0.170845454981
    H            2.959420422744     2.376809908881    -1.509245225807
    H            3.921764054849     0.939553423976    -1.123533291497

  Mulliken Charges: (a.u.)
   Center  Symbol    Alpha    Beta     Spin     Total
       1     O     4.28744  4.28744  0.00000 -0.57489
       2     C     2.60941  2.60941  0.00000  0.78119
       3     C     3.20368  3.20368  0.00000 -0.40736
       4     O     4.30269  4.30269  0.00000 -0.60539
       5     C     3.15943  3.15943  0.00000 -0.31886
       6     H     0.40259  0.40259  0.00000  0.19482
       7     H     0.39803  0.39803  0.00000  0.20395
       8     C     3.15308  3.15308  0.00000 -0.30616
       9     H     0.40767  0.40767  0.00000  0.18466
      10     H     0.41734  0.41734  0.00000  0.16532
      11     C     3.15194  3.15194  0.00000 -0.30389
      12     H     0.42270  0.42270  0.00000  0.15460
      13     H     0.42156  0.42156  0.00000  0.15687
      14     C     3.23972  3.23972  0.00000 -0.47944
      15     H     0.42183  0.42183  0.00000  0.15634
      16     H     0.42178  0.42178  0.00000  0.15645
      17     H     0.42133  0.42133  0.00000  0.15734
      18     H     0.41832  0.41832  0.00000  0.16336
      19     H     0.42104  0.42104  0.00000  0.15793
      20     C     3.09230  3.09230  0.00000 -0.18460
      21     H     0.40853  0.40853  0.00000  0.18294
      22     H     0.40884  0.40884  0.00000  0.18232
      23     H     0.40875  0.40875  0.00000  0.18250

   Total alpha = 36.00000, Total beta = 36.00000, Total charge =  0.00000
