  ==> Input File <==

--------------------------------------------------------------------------
set {
	reference rhf
	basis 6-31G*
}

set_num_threads( 4 )
memory 2 gb

molecule MOL {
0 1

O	 -1.276010	 1.052711	 -0.768302
C	 -1.204840	 0.067374	 -0.106123
C	 -2.388195	 -0.672128	 0.458071
O	 -0.067104	 -0.527208	 0.221609
H	 -2.388023	 -1.694060	 0.097175
H	 -3.300579	 -0.174919	 0.164318
H	 -2.315377	 -0.706351	 1.539059
C	 1.170111	 0.034140	 -0.238951
C	 1.425983	 -0.583059	 -1.602470
C	 2.273507	 -0.261136	 0.765028
H	 1.036052	 1.101877	 -0.330993
H	 0.610282	 -0.362709	 -2.281679
H	 2.342187	 -0.185614	 -2.026662
H	 1.523561	 -1.660505	 -1.523470
H	 3.217390	 0.141238	 0.411199
H	 2.051763	 0.191098	 1.723303
H	 2.387299	 -1.332135	 0.899271

	symmetry c1
}
set optking {
	frozen_dihedral = ("
		11 8 4 2
	")
}

ee = optimize('scf')
oeprop('DIPOLE', 'QUADRUPOLE', 'MULLIKEN_CHARGES')
f=open( 'psi4out.xyz', 'w' )
f.write( "17  " )
f.write( str(ee) + "\n" )
f.write( MOL.save_string_xyz() )
f.close()
--------------------------------------------------------------------------

    Molecular point group: c1
  Charge       = 0
  Multiplicity = 1
  Basis Set: 6-31G*
  Basis Set:
  @DF-RHF Final Energy:  -344.91334487389611
    Total Energy =                       -344.9133448738962215
    Molecular point group: c1
  Basis Set: 6-31G*
  Basis Set:
  Basis Set: 6-31G*
  Basis Set:
  @DF-RHF Final Energy:  -344.91439133264242
    Total Energy =                       -344.9143913326421398
  Basis Set: 6-31G*
  Basis Set:
  Basis Set: 6-31G*
  Basis Set:
  @DF-RHF Final Energy:  -344.91443416699474
    Total Energy =                       -344.9144341669943401
  Basis Set: 6-31G*
  Basis Set:
  Basis Set: 6-31G*
  Basis Set:
  @DF-RHF Final Energy:  -344.91429415583480
    Total Energy =                       -344.9142941558345683
  Basis Set: 6-31G*
  Basis Set:
  Basis Set: 6-31G*
  Basis Set:
  @DF-RHF Final Energy:  -344.91456035553085
    Total Energy =                       -344.9145603555308526
  Basis Set: 6-31G*
  Basis Set:
  Charge       = 0
  Multiplicity = 1
  Basis Set: 6-31G*
  Basis Set:

    Orbital Energies (a.u.)
    -----------------------

    Doubly Occupied:

       1A    -20.598775     2A    -20.543005     3A    -11.374855
       4A    -11.289506     5A    -11.232384     6A    -11.219638
       7A    -11.216287     8A     -1.465277     9A     -1.361592
      10A     -1.078546    11A     -1.005026    12A     -0.948207
      13A     -0.848024    14A     -0.766555    15A     -0.691984
      16A     -0.668646    17A     -0.659086    18A     -0.612660
      19A     -0.586302    20A     -0.578481    21A     -0.563691
      22A     -0.550955    23A     -0.536797    24A     -0.520418
      25A     -0.501975    26A     -0.482545    27A     -0.446068
      28A     -0.436120

  @DF-RHF Final Energy:  -344.91456112215957

   => Energetics <=

    Nuclear Repulsion Energy =            322.7812310096500710
    One-Electron Energy =               -1109.8247727291445699
    Two-Electron Energy =                 442.1289805973347598
    DFT Exchange-Correlation Energy =       0.0000000000000000
    Empirical Dispersion Energy =           0.0000000000000000
    PCM Polarization Energy =               0.0000000000000000
    EFP Energy =                            0.0000000000000000
    Total Energy =                       -344.9145611221596823
    Molecular point group: c1
  Basis Set: 6-31G*
  Basis Set:

  -Total Gradient:
     Atom            X                  Y                   Z
    ------   -----------------  -----------------  -----------------
       1       -0.000028292137     0.000021785409     0.000001555267
       2        0.000105287318     0.000458762313     0.000664074438
       3        0.000020372305    -0.000009631056    -0.000021500095
       4       -0.000157530171    -0.000775342666    -0.001175209066
       5        0.000004904801     0.000003850540     0.000007947761
       6        0.000004723163     0.000006555196    -0.000003448238
       7        0.000002427249     0.000010926459     0.000005235564
       8        0.000400194759     0.000431635880     0.001408347129
       9       -0.000036866957     0.000011225651    -0.000002772428
      10       -0.000031417721    -0.000036101670    -0.000011361227
      11       -0.000288279409    -0.000117540922    -0.000899459558
      12       -0.000003274088    -0.000007473823     0.000002618272
      13        0.000011179726     0.000002186352     0.000011056395
      14       -0.000001034498     0.000012031457     0.000016450996
      15       -0.000020086596    -0.000002287512    -0.000018291565
      16       -0.000000364190     0.000007244706    -0.000008915845
      17        0.000018056452    -0.000017826314     0.000023672197

  **** Optimization is complete! (in 6 steps) ****
    Final optimized geometry and variables:
    Molecular point group: c1

    Geometry (in Angstrom), charge = 0, multiplicity = 1:

    O           -1.288253553813     1.157623734986    -0.603856960022
    C           -1.198233482277     0.191115247238     0.083037557539
    C           -2.364306637354    -0.525445826263     0.709550844125
    O           -0.051838559059    -0.395451114787     0.395821432652
    H           -2.382339549659    -1.556325775229     0.375271422028
    H           -3.284006629406    -0.030731167614     0.435092453476
    H           -2.252938918489    -0.532188499370     1.787685816951
    C            1.175979819555     0.166133141888    -0.088505474702
    C            1.497002098875    -0.431469006490    -1.449571351933
    C            2.227498598959    -0.141365154695     0.962547826454
    H            1.038621175782     1.232215084877    -0.187068234389
    H            0.717428575424    -0.194564465743    -2.163489581373
    H            2.432836925917    -0.029538041370    -1.824650425573
    H            1.590916256765    -1.510332453288    -1.379181663629
    H            3.186274510608     0.269394327497     0.663624196526
    H            1.952307658044     0.291773485473     1.917478399598
    H            2.338507202082    -1.212598782412     1.092423295754

  Mulliken Charges: (a.u.)
   Center  Symbol    Alpha    Beta     Spin     Total
       1     O     4.28534  4.28534  0.00000 -0.57067
       2     C     2.61789  2.61789  0.00000  0.76422
       3     C     3.28168  3.28168  0.00000 -0.56336
       4     O     4.31347  4.31347  0.00000 -0.62694
       5     H     0.40076  0.40076  0.00000  0.19848
       6     H     0.39733  0.39733  0.00000  0.20534
       7     H     0.40088  0.40088  0.00000  0.19824
       8     C     2.93029  2.93029  0.00000  0.13943
       9     C     3.24840  3.24840  0.00000 -0.49680
      10     C     3.24117  3.24117  0.00000 -0.48235
      11     H     0.39909  0.39909  0.00000  0.20182
      12     H     0.40465  0.40465  0.00000  0.19070
      13     H     0.41835  0.41835  0.00000  0.16331
      14     H     0.41660  0.41660  0.00000  0.16681
      15     H     0.41763  0.41763  0.00000  0.16473
      16     H     0.41242  0.41242  0.00000  0.17516
      17     H     0.41405  0.41405  0.00000  0.17189

   Total alpha = 28.00000, Total beta = 28.00000, Total charge =  0.00000
