  ==> Input File <==

--------------------------------------------------------------------------
set {
	reference rhf
	basis 6-31G*
}

set_num_threads( 1 )
memory 2 gb

molecule MOL {
0 1

H	 2.246352	 -1.268030	 0.315987
N	 2.434251	 -0.367735	 -0.081097
C	 1.267428	 0.496480	 0.024474
H	 2.672825	 -0.519657	 -1.042823
C	 -0.016086	 -0.325158	 -0.029487
H	 1.288818	 1.183521	 -0.816092
H	 1.267576	 1.109062	 0.929528
C	 -1.282277	 0.529072	 0.046735
H	 -0.012495	 -0.908639	 -0.945788
H	 -0.015903	 -1.041248	 0.791956
C	 -2.563920	 -0.301775	 -0.006060
H	 -1.284084	 1.244622	 -0.773004
H	 -1.271387	 1.115393	 0.963286
H	 -2.621848	 -0.873522	 -0.927727
H	 -3.445135	 0.329952	 0.047812
H	 -2.609542	 -1.004582	 0.821105

	symmetry c1
}
set optking {
	frozen_dihedral = ("
		6 3 5 9,
		12 8 5 9
	")
}

ee = energy('scf')
oeprop('DIPOLE', 'QUADRUPOLE', 'MULLIKEN_CHARGES')
f=open( 'psi4out.xyz', 'w' )
f.write( "16  " )
f.write( str(ee) + "\n" )
f.write( MOL.save_string_xyz() )
f.close()
--------------------------------------------------------------------------

    Molecular point group: c1

    Geometry (in Angstrom), charge = 0, multiplicity = 1:

       Center              X                  Y                   Z               Mass
    ------------   -----------------  -----------------  -----------------  -----------------
           H          2.258196473082    -1.254292329294     0.334435677359     1.007825032070
           N          2.446095473082    -0.353997329294    -0.062648322641    14.003074004780
           C          1.279272473082     0.510217670706     0.042922677359    12.000000000000
           H          2.684669473082    -0.505919329294    -1.024374322641     1.007825032070
           C         -0.004241526918    -0.311420329294    -0.011038322641    12.000000000000
           H          1.300662473082     1.197258670706    -0.797643322641     1.007825032070
           H          1.279420473082     1.122799670706     0.947976677359     1.007825032070
           C         -1.270432526918     0.542809670706     0.065183677359    12.000000000000
           H         -0.000650526918    -0.894901329294    -0.927339322641     1.007825032070
           H         -0.004058526918    -1.027510329294     0.810404677359     1.007825032070
           C         -2.552075526918    -0.288037329294     0.012388677359    12.000000000000
           H         -1.272239526918     1.258359670706    -0.754555322641     1.007825032070
           H         -1.259542526918     1.129130670706     0.981734677359     1.007825032070
           H         -2.610003526918    -0.859784329294    -0.909278322641     1.007825032070
           H         -3.433290526918     0.343689670706     0.066260677359     1.007825032070
           H         -2.597697526918    -0.990844329294     0.839553677359     1.007825032070

  Charge       = 0
  Multiplicity = 1
  Basis Set: 6-31G*
  Basis Set:

    Orbital Energies (a.u.)
    -----------------------

    Doubly Occupied:

       1A    -15.530713     2A    -11.240835     3A    -11.217754
       4A    -11.213885     5A    -11.210732     6A     -1.178493
       7A     -1.061770     8A     -0.959451     9A     -0.847529
      10A     -0.798801    11A     -0.675712    12A     -0.628586
      13A     -0.594614    14A     -0.589896    15A     -0.558023
      16A     -0.526264    17A     -0.504645    18A     -0.483363
      19A     -0.474252    20A     -0.467636    21A     -0.372782

  @DF-RHF Final Energy:  -212.31328648243738

   => Energetics <=

    Nuclear Repulsion Energy =            186.8109569472547378
    One-Electron Energy =                -655.9770562145045005
    Two-Electron Energy =                 256.8528127848126132
    DFT Exchange-Correlation Energy =       0.0000000000000000
    Empirical Dispersion Energy =           0.0000000000000000
    PCM Polarization Energy =               0.0000000000000000
    EFP Energy =                            0.0000000000000000
    Total Energy =                       -212.3132864824371495

  Mulliken Charges: (a.u.)
   Center  Symbol    Alpha    Beta     Spin     Total
       1     H     0.33370  0.33370  0.00000  0.33260
       2     N     3.92179  3.92179  0.00000 -0.84357
       3     C     3.05551  3.05551  0.00000 -0.11101
       4     H     0.33310  0.33310  0.00000  0.33380
       5     C     3.16126  3.16126  0.00000 -0.32252
       6     H     0.42255  0.42255  0.00000  0.15490
       7     H     0.41959  0.41959  0.00000  0.16082
       8     C     3.15578  3.15578  0.00000 -0.31156
       9     H     0.42572  0.42572  0.00000  0.14856
      10     H     0.42562  0.42562  0.00000  0.14876
      11     C     3.23873  3.23873  0.00000 -0.47747
      12     H     0.42278  0.42278  0.00000  0.15444
      13     H     0.42149  0.42149  0.00000  0.15702
      14     H     0.42188  0.42188  0.00000  0.15623
      15     H     0.41890  0.41890  0.00000  0.16219
      16     H     0.42160  0.42160  0.00000  0.15679

   Total alpha = 21.00000, Total beta = 21.00000, Total charge = -0.00000
