  ==> Input File <==

--------------------------------------------------------------------------
set {
	reference rhf
	basis cc-pvtz
}

set_num_threads( 4 )
memory 2 gb

molecule MOL {
0 1

H	 -2.123894	 -0.667238	 -0.609809
O	 -2.041679	 -0.058866	 0.103463
C	 -0.959304	 0.780994	 -0.094939
C	 0.354905	 0.037902	 -0.006215
H	 -0.985899	 1.279578	 -1.057596
H	 -0.969809	 1.529522	 0.682889
F	 1.339451	 0.755030	 -0.518258
F	 0.655829	 -0.210576	 1.251283
F	 0.329073	 -1.106086	 -0.646993

	symmetry c1
}
set optking {
	frozen_dihedral = ("
		7 4 3 5
	")
}

ee = optimize('scf')
oeprop('DIPOLE', 'QUADRUPOLE', 'MULLIKEN_CHARGES')
f=open( 'psi4out.xyz', 'w' )
f.write( "9  " )
f.write( str(ee) + "\n" )
f.write( MOL.save_string_xyz() )
f.close()
--------------------------------------------------------------------------

    Molecular point group: c1
  Charge       = 0
  Multiplicity = 1
  Basis Set: CC-PVTZ
  Basis Set:
  @DF-RHF Final Energy:  -450.84583276335843
    Total Energy =                       -450.8458327633585441
    Molecular point group: c1
  Basis Set: CC-PVTZ
  Basis Set:
  Basis Set: CC-PVTZ
  Basis Set:
  @DF-RHF Final Energy:  -450.84625802456748
    Total Energy =                       -450.8462580245675326
  Basis Set: CC-PVTZ
  Basis Set:
  Basis Set: CC-PVTZ
  Basis Set:
  @DF-RHF Final Energy:  -450.84639247806018
    Total Energy =                       -450.8463924780600109
  Basis Set: CC-PVTZ
  Basis Set:
  Basis Set: CC-PVTZ
  Basis Set:
  @DF-RHF Final Energy:  -450.84640685069758
    Total Energy =                       -450.8464068506975764
  Basis Set: CC-PVTZ
  Basis Set:
  Basis Set: CC-PVTZ
  Basis Set:
  @DF-RHF Final Energy:  -450.84640821591677
    Total Energy =                       -450.8464082159167106
  Basis Set: CC-PVTZ
  Basis Set:
  Charge       = 0
  Multiplicity = 1
  Basis Set: CC-PVTZ
  Basis Set:

    Orbital Energies (a.u.)
    -----------------------

    Doubly Occupied:

       1A    -26.339665     2A    -26.339516     3A    -26.337231
       4A    -20.583950     5A    -11.494619     6A    -11.309921
       7A     -1.748390     8A     -1.644897     9A     -1.643867
      10A     -1.407765    11A     -1.050040    12A     -0.930269
      13A     -0.838362    14A     -0.836379    15A     -0.813677
      16A     -0.730880    17A     -0.718865    18A     -0.704721
      19A     -0.671474    20A     -0.667220    21A     -0.649855
      22A     -0.632553    23A     -0.620502    24A     -0.532654
      25A     -0.484906

  @DF-RHF Final Energy:  -450.84640835420720

   => Energetics <=

    Nuclear Repulsion Energy =            277.6021183507822911
    One-Electron Energy =               -1177.4326967176989456
    Two-Electron Energy =                 448.9841700127097965
    DFT Exchange-Correlation Energy =       0.0000000000000000
    Empirical Dispersion Energy =           0.0000000000000000
    PCM Polarization Energy =               0.0000000000000000
    EFP Energy =                            0.0000000000000000
    Total Energy =                       -450.8464083542068011
    Molecular point group: c1
  Basis Set: CC-PVTZ
  Basis Set:

  -Total Gradient:
     Atom            X                  Y                   Z
    ------   -----------------  -----------------  -----------------
       1       -0.000011806339    -0.000004194629     0.000000142966
       2        0.000046000324     0.000011134031    -0.000005556698
       3       -0.001973368611    -0.003858203257    -0.002556913638
       4        0.000867410629     0.002187808520     0.003852370149
       5        0.001483859754     0.002883318257     0.001434413190
       6        0.000002659011    -0.000006685293    -0.000002939972
       7       -0.000426198244    -0.001203365329    -0.002647981530
       8        0.000011305258     0.000029449174    -0.000053473685
       9        0.000000138220    -0.000039261475    -0.000020060779

  **** Optimization is complete! (in 6 steps) ****
    Final optimized geometry and variables:
    Molecular point group: c1

    Geometry (in Angstrom), charge = 0, multiplicity = 1:

    H           -2.106161264917    -0.700107097341    -0.578394887921
    O           -2.048464400820    -0.046161601943     0.095811627052
    C           -0.960912604667     0.779396696634    -0.119173208699
    C            0.356336223342     0.038489564729    -0.002852614940
    H           -0.973745664939     1.275812031662    -1.083157624321
    H           -0.971338683097     1.544028316308     0.643666916529
    F            1.336727754829     0.763696397826    -0.500057010984
    F            0.662024930261    -0.261606760472     1.236670252817
    F            0.322646433985    -1.092276315343    -0.686205759621

  Mulliken Charges: (a.u.)
   Center  Symbol    Alpha    Beta     Spin     Total
       1     H     0.38561  0.38561  0.00000  0.22878
       2     O     4.19160  4.19160  0.00000 -0.38321
       3     C     2.99245  2.99245  0.00000  0.01510
       4     C     2.68215  2.68215  0.00000  0.63570
       5     H     0.46259  0.46259  0.00000  0.07482
       6     H     0.44883  0.44883  0.00000  0.10234
       7     F     4.61175  4.61175  0.00000 -0.22351
       8     F     4.60744  4.60744  0.00000 -0.21487
       9     F     4.61758  4.61758  0.00000 -0.23516

   Total alpha = 25.00000, Total beta = 25.00000, Total charge = -0.00000
