                              Psi4 1.0.54 Driver

  ==> Input File <==

--------------------------------------------------------------------------
set {
	reference rhf
	basis cc-pvtz
}

set_num_threads( 4 )
memory 2 gb

molecule MOL {
0 1

H	 -2.801171	 2.360405	 -0.155368
O	 -2.113218	 1.767264	 -0.394324
C	 -2.302264	 0.528872	 0.237390
C	 -1.175688	 -0.398187	 -0.171891
H	 -2.308144	 0.650032	 1.318620
H	 -3.259277	 0.097626	 -0.048937
C	 0.196029	 0.106276	 0.266738
H	 -1.201873	 -0.515469	 -1.250677
H	 -1.365975	 -1.378728	 0.252664
C	 1.330220	 -0.826136	 -0.155230
H	 0.359542	 1.097229	 -0.145561
H	 0.212134	 0.218135	 1.348778
C	 2.719700	 -0.407669	 0.328325
H	 1.339388	 -0.911200	 -1.239363
H	 1.119001	 -1.821953	 0.224128
C	 3.241564	 0.893452	 -0.276737
H	 3.418299	 -1.204729	 0.093035
H	 2.711776	 -0.323368	 1.411960
H	 3.254204	 0.841071	 -1.360784
H	 2.634460	 1.745075	 0.005842
H	 4.254264	 1.092401	 0.054971

	symmetry c1
}
set optking {
	frozen_dihedral = ("
		2 3 4 8
	")
}

ee,wfn = optimize('scf', return_wfn=True)
oeprop( wfn, 'DIPOLE', 'QUADRUPOLE', 'MULLIKEN_CHARGES')
f=open( 'psi4out.xyz', 'w' )
f.write( "21  " )
f.write( str(ee) + "\n" )
f.write( MOL.save_string_xyz() )
f.close()
--------------------------------------------------------------------------

    Molecular point group: c1
  Charge       = 0
  Multiplicity = 1
  Basis Set: CC-PVTZ
  Basis Set:
  @DF-RHF Final Energy:  -310.33293585454129
    Total Energy =                       -310.3329358545415175
    Molecular point group: c1
  Basis Set: CC-PVTZ
  Basis Set:
  Basis Set: CC-PVTZ
  Basis Set:
  @DF-RHF Final Energy:  -310.33303999114406
    Total Energy =                       -310.3330399911444601
  Basis Set: CC-PVTZ
  Basis Set:
  Basis Set: CC-PVTZ
  Basis Set:
  @DF-RHF Final Energy:  -310.33305147987056
    Total Energy =                       -310.3330514798705622
  Basis Set: CC-PVTZ
  Basis Set:
  Basis Set: CC-PVTZ
  Basis Set:
  @DF-RHF Final Energy:  -310.33304994695527
    Total Energy =                       -310.3330499469551569
  Basis Set: CC-PVTZ
  Basis Set:
  Basis Set: CC-PVTZ
  Basis Set:
  @DF-RHF Final Energy:  -310.33305329434023
    Total Energy =                       -310.3330532943405728
  Basis Set: CC-PVTZ
  Basis Set:
  Charge       = 0
  Multiplicity = 1
  Basis Set: CC-PVTZ
  Basis Set:

    Orbital Energies (a.u.)
    -----------------------

    Doubly Occupied:

       1A    -20.546363     2A    -11.265898     3A    -11.210365
       4A    -11.209119     5A    -11.206889     6A    -11.204135
       7A    -11.201285     8A     -1.364204     9A     -1.082328
      10A     -1.031141    11A     -0.954113    12A     -0.875754
      13A     -0.802048    14A     -0.773569    15A     -0.708227
      16A     -0.642548    17A     -0.627552    18A     -0.601540
      19A     -0.589406    20A     -0.563942    21A     -0.541175
      22A     -0.518723    23A     -0.501894    24A     -0.496190
      25A     -0.476572    26A     -0.456300    27A     -0.454195
      28A     -0.442526    29A     -0.429694

  @DF-RHF Final Energy:  -310.33305333352575

   => Energetics <=

    Nuclear Repulsion Energy =            317.8107616486087181
    One-Electron Energy =               -1050.7322395965343276
    Two-Electron Energy =                 422.5884246143997416
    DFT Exchange-Correlation Energy =       0.0000000000000000
    Empirical Dispersion Energy =           0.0000000000000000
    PCM Polarization Energy =               0.0000000000000000
    EFP Energy =                            0.0000000000000000
    Total Energy =                       -310.3330533335258679
    Molecular point group: c1
  Basis Set: CC-PVTZ
  Basis Set:

  -Total Gradient:
     Atom            X                  Y                   Z
    ------   -----------------  -----------------  -----------------
       1       -0.000003264005    -0.000000780244    -0.000004000263
       2        0.000215315722     0.000125739006     0.000304826197
       3       -0.000344256452    -0.000250136626    -0.000381120198
       4        0.000428656935     0.000517929912     0.000017439220
       5        0.000001732822    -0.000000853408    -0.000001011183
       6       -0.000002750476     0.000002156714     0.000001062678
       7       -0.000004149592    -0.000009555331     0.000012186622
       8       -0.000299643232    -0.000391901387     0.000056848337
       9        0.000004519820     0.000003161193     0.000001370460
      10        0.000003991064    -0.000001421310    -0.000001806972
      11       -0.000001873165     0.000006922844    -0.000000203075
      12       -0.000000402262     0.000002422171    -0.000000906078
      13       -0.000001116736    -0.000002261712    -0.000004288177
      14        0.000001538209    -0.000002096628     0.000000469187
      15        0.000004803449     0.000001489182     0.000000048574
      16        0.000000811074     0.000000135187     0.000000058644
      17        0.000000360971     0.000001079538    -0.000000393753
      18       -0.000001377779     0.000000173058    -0.000001457236
      19       -0.000000398720    -0.000001045782    -0.000000160206
      20       -0.000001341416    -0.000000444681     0.000000894447
      21       -0.000001156237    -0.000000711694     0.000000142775

  **** Optimization is complete! (in 6 steps) ****
    Final optimized geometry and variables:
    Molecular point group: c1

    Geometry (in Angstrom), charge = 0, multiplicity = 1:

    H           -3.045796168045     2.093237553584    -0.098646432621
    O           -2.361035630429     1.503320215317    -0.353574574849
    C           -2.525710080600     0.265272320776     0.288202334186
    C           -1.395803638045    -0.660557988962    -0.118862157805
    H           -2.525033713343     0.396064055062     1.368654915053
    H           -3.477859523066    -0.180062771290     0.011180186532
    C           -0.013061065799    -0.171613647637     0.303430665007
    H           -1.429504313939    -0.790776199547    -1.196409578398
    H           -1.589566778363    -1.636266318125     0.319564636118
    C            1.102895064401    -1.119827087640    -0.130540289422
    H            0.149116897969     0.815295453943    -0.109171462456
    H            0.011118197692    -0.063469800302     1.386164647427
    C            2.503086400528    -0.716271102084     0.334816242333
    H            1.098777906031    -1.205542885676    -1.214859468926
    H            0.886764069331    -2.114104514741     0.251994431427
    C            3.031163042259     0.576752312696    -0.281860849637
    H            3.190395716028    -1.521908994880     0.094753209488
    H            2.508678512156    -0.627240711864     1.418139198596
    H            3.033453110898     0.517986632277    -1.365595645112
    H            2.433125835338     1.434467643089     0.000481760969
    H            4.048644373099     0.768326754487     0.039823346221

  Mulliken Charges: (a.u.)
   Center  Symbol    Alpha    Beta     Spin     Total
       1     H     0.39595  0.39595  0.00000  0.20809
       2     O     4.19784  4.19784  0.00000 -0.39568
       3     C     2.97438  2.97438  0.00000  0.05124
       4     C     3.09138  3.09138  0.00000 -0.18276
       5     H     0.47352  0.47352  0.00000  0.05295
       6     H     0.46512  0.46512  0.00000  0.06976
       7     C     3.09262  3.09262  0.00000 -0.18524
       8     H     0.45220  0.45220  0.00000  0.09559
       9     H     0.45402  0.45402  0.00000  0.09197
      10     C     3.09448  3.09448  0.00000 -0.18895
      11     H     0.44128  0.44128  0.00000  0.11743
      12     H     0.45910  0.45910  0.00000  0.08181
      13     C     3.08968  3.08968  0.00000 -0.17937
      14     H     0.45397  0.45397  0.00000  0.09205
      15     H     0.45180  0.45180  0.00000  0.09639
      16     C     3.15182  3.15182  0.00000 -0.30363
      17     H     0.44954  0.44954  0.00000  0.10092
      18     H     0.45579  0.45579  0.00000  0.08843
      19     H     0.45505  0.45505  0.00000  0.08989
      20     H     0.45263  0.45263  0.00000  0.09473
      21     H     0.44782  0.44782  0.00000  0.10437

   Total alpha = 29.00000, Total beta = 29.00000, Total charge = -0.00000

*** Psi4 exiting successfully. Buy a developer a beer!
