  ==> Input File <==

--------------------------------------------------------------------------
set {
	reference rhf
	basis 6-31G*
}

set_num_threads( 4 )
memory 2 gb

molecule MOL {
0 1

H	 2.652209	 0.763231	 0.000000
O	 2.263154	 -0.100023	 0.000000
C	 0.912879	 -0.015685	 0.000000
C	 0.333446	 0.966655	 0.792369
C	 0.115268	 -0.863161	 -0.751455
H	 0.969905	 1.613363	 1.367258
C	 -1.041758	 1.092066	 0.825462
H	 0.565491	 -1.624942	 -1.365872
C	 -1.264541	 -0.725977	 -0.708744
H	 -1.485656	 1.854402	 1.440674
C	 -1.852070	 0.248522	 0.076635
H	 -1.876579	 -1.387964	 -1.295151
H	 -2.921218	 0.352130	 0.107478

	symmetry c1
}
set optking {
	frozen_dihedral = ("
		4 3 2 1
	")
}

ee = optimize('scf')
oeprop('DIPOLE', 'QUADRUPOLE', 'MULLIKEN_CHARGES')
f=open( 'psi4out.xyz', 'w' )
f.write( "13  " )
f.write( str(ee) + "\n" )
f.write( MOL.save_string_xyz() )
f.close()
--------------------------------------------------------------------------

    Molecular point group: c1
  Charge       = 0
  Multiplicity = 1
  Basis Set: 6-31G*
  Basis Set:
  @DF-RHF Final Energy:  -305.55402625291680
    Total Energy =                       -305.5540262529166284
    Molecular point group: c1
  Basis Set: 6-31G*
  Basis Set:
  Basis Set: 6-31G*
  Basis Set:
  @DF-RHF Final Energy:  -305.55566873859743
    Total Energy =                       -305.5556687385974897
  Basis Set: 6-31G*
  Basis Set:
  Basis Set: 6-31G*
  Basis Set:
  @DF-RHF Final Energy:  -305.55579364461227
    Total Energy =                       -305.5557936446123222
  Basis Set: 6-31G*
  Basis Set:
  Basis Set: 6-31G*
  Basis Set:
  @DF-RHF Final Energy:  -305.55580832917536
    Total Energy =                       -305.5558083291753064
  Basis Set: 6-31G*
  Basis Set:
  Basis Set: 6-31G*
  Basis Set:
  @DF-RHF Final Energy:  -305.55581132522804
    Total Energy =                       -305.5558113252277508
  Basis Set: 6-31G*
  Basis Set:
  Charge       = 0
  Multiplicity = 1
  Basis Set: 6-31G*
  Basis Set:

    Orbital Energies (a.u.)
    -----------------------

    Doubly Occupied:

       1A    -20.584856     2A    -11.294306     3A    -11.236197
       4A    -11.234482     5A    -11.227953     6A    -11.224066
       7A    -11.223131     8A     -1.401896     9A     -1.147372
      10A     -1.018282    11A     -1.003844    12A     -0.841927
      13A     -0.822352    14A     -0.734420    15A     -0.682317
      16A     -0.647962    17A     -0.617187    18A     -0.593005
      19A     -0.588324    20A     -0.541050    21A     -0.513622
      22A     -0.490918    23A     -0.474807    24A     -0.337420
      25A     -0.314611

  @DF-RHF Final Energy:  -305.55581161659029

   => Energetics <=

    Nuclear Repulsion Energy =            272.9381425808304584
    One-Electron Energy =                -955.3952987570304458
    Two-Electron Energy =                 376.9013445596095835
    DFT Exchange-Correlation Energy =       0.0000000000000000
    Empirical Dispersion Energy =           0.0000000000000000
    PCM Polarization Energy =               0.0000000000000000
    EFP Energy =                            0.0000000000000000
    Total Energy =                       -305.5558116165904039
    Molecular point group: c1
  Basis Set: 6-31G*
  Basis Set:

  -Total Gradient:
     Atom            X                  Y                   Z
    ------   -----------------  -----------------  -----------------
       1       -0.000050175015     0.000065422537    -0.002495826015
       2        0.000066889150    -0.000742129047     0.003873468827
       3        0.000136459064     0.001915947265    -0.002826005655
       4       -0.000095904901    -0.001213507562     0.001434036362
       5       -0.000048821531    -0.000017268326     0.000016941739
       6       -0.000006545935    -0.000005024802    -0.000003446582
       7       -0.000000664397    -0.000007418628     0.000028606048
       8        0.000009296427     0.000007811210     0.000004840669
       9       -0.000004831141    -0.000000967803     0.000005441429
      10       -0.000013836446     0.000003427553    -0.000007552261
      11        0.000007462854    -0.000016901731    -0.000030021066
      12       -0.000000851201     0.000002346212    -0.000005697047
      13        0.000001523068     0.000008263123     0.000005213552

  **** Optimization is complete! (in 6 steps) ****
    Final optimized geometry and variables:
    Molecular point group: c1

    Geometry (in Angstrom), charge = 0, multiplicity = 1:

    H            2.699125184238     0.593205970263    -0.052837705500
    O            2.256291780595    -0.243754993583    -0.067772667411
    C            0.907330047286    -0.070384596190    -0.032241010914
    C            0.317450048994     0.895325073198     0.768125463654
    C            0.120638612226    -0.933249292823    -0.778911878266
    H            0.933940198530     1.546066252830     1.364165948344
    C           -1.063214517602     1.011229551078     0.799405601830
    H            0.598865812088    -1.679882517792    -1.385214337002
    C           -1.257428650411    -0.817396951601    -0.729751621041
    H           -1.515708024402     1.766407393948     1.417181606718
    C           -1.857787092930     0.156776413918     0.053919264035
    H           -1.864554555192    -1.488101406426    -1.311345102409
    H           -2.928473310104     0.245846001366     0.084605731493

  Mulliken Charges: (a.u.)
   Center  Symbol    Alpha    Beta     Spin     Total
       1     H     0.27241  0.27241  0.00000  0.45518
       2     O     4.38193  4.38193  0.00000 -0.76385
       3     C     2.80435  2.80435  0.00000  0.39129
       4     C     3.13474  3.13474  0.00000 -0.26949
       5     C     3.12060  3.12060  0.00000 -0.24120
       6     H     0.40137  0.40137  0.00000  0.19726
       7     C     3.09285  3.09285  0.00000 -0.18569
       8     H     0.39191  0.39191  0.00000  0.21619
       9     C     3.09330  3.09330  0.00000 -0.18661
      10     H     0.39830  0.39830  0.00000  0.20341
      11     C     3.11008  3.11008  0.00000 -0.22016
      12     H     0.39800  0.39800  0.00000  0.20400
      13     H     0.40016  0.40016  0.00000  0.19968

   Total alpha = 25.00000, Total beta = 25.00000, Total charge = -0.00000
