  ==> Input File <==

--------------------------------------------------------------------------
set {
	reference rhf
	basis cc-pvtz
}

set_num_threads( 4 )
memory 2 gb

molecule MOL {
0 1

H	 2.312618	 2.424073	 0.621252
N	 1.507166	 1.841056	 0.537849
C	 1.860978	 0.530248	 0.016256
H	 0.868395	 2.306827	 -0.072379
C	 0.644130	 -0.381765	 -0.031064
H	 2.604902	 0.099969	 0.678332
H	 2.313669	 0.576210	 -0.975164
C	 -0.678115	 0.376691	 0.025731
H	 0.693998	 -0.977147	 -0.936845
H	 0.693309	 -1.082142	 0.800523
C	 -1.900706	 -0.535531	 -0.022488
H	 -0.725296	 1.079516	 -0.802982
H	 -0.715474	 0.974884	 0.933278
C	 -3.220513	 0.226854	 0.028039
H	 -1.865036	 -1.134397	 -0.928236
H	 -1.857948	 -1.236381	 0.806820
H	 -3.309098	 0.911849	 -0.808725
H	 -4.066838	 -0.449485	 -0.008086
H	 -3.301685	 0.809374	 0.939860

	symmetry c1
}
set optking {
	frozen_dihedral = ("
		6 3 5 9
	")
}

ee = optimize('scf')
oeprop('DIPOLE', 'QUADRUPOLE', 'MULLIKEN_CHARGES')
f=open( 'psi4out.xyz', 'w' )
f.write( "19  " )
f.write( str(ee) + "\n" )
f.write( MOL.save_string_xyz() )
f.close()
--------------------------------------------------------------------------

    Molecular point group: c1
  Charge       = 0
  Multiplicity = 1
  Basis Set: CC-PVTZ
  Basis Set:
  @DF-RHF Final Energy:  -251.43745545286302
    Total Energy =                       -251.4374554528632189
    Molecular point group: c1
  Basis Set: CC-PVTZ
  Basis Set:
  Basis Set: CC-PVTZ
  Basis Set:
  @DF-RHF Final Energy:  -251.43796304731421
    Total Energy =                       -251.4379630473144971
  Basis Set: CC-PVTZ
  Basis Set:
  Basis Set: CC-PVTZ
  Basis Set:
  @DF-RHF Final Energy:  -251.44006934098655
    Total Energy =                       -251.4400693409864971
  Basis Set: CC-PVTZ
  Basis Set:
  Basis Set: CC-PVTZ
  Basis Set:
  @DF-RHF Final Energy:  -251.44024546049752
    Total Energy =                       -251.4402454604976924
  Basis Set: CC-PVTZ
  Basis Set:
  Basis Set: CC-PVTZ
  Basis Set:
  @DF-RHF Final Energy:  -251.44025704198347
    Total Energy =                       -251.4402570419836138
  Basis Set: CC-PVTZ
  Basis Set:
  Basis Set: CC-PVTZ
  Basis Set:
  @DF-RHF Final Energy:  -251.44025902899787
    Total Energy =                       -251.4402590289980708
  Basis Set: CC-PVTZ
  Basis Set:
  Charge       = 0
  Multiplicity = 1
  Basis Set: CC-PVTZ
  Basis Set:

    Orbital Energies (a.u.)
    -----------------------

    Doubly Occupied:

       1A    -15.525845     2A    -11.239265     3A    -11.209393
       4A    -11.208415     5A    -11.205681     6A    -11.203407
       7A     -1.176907     8A     -1.069306     9A     -0.994444
      10A     -0.906352    11A     -0.814333    12A     -0.776546
      13A     -0.666899    14A     -0.648740    15A     -0.613503
      16A     -0.584110    17A     -0.562822    18A     -0.550507
      19A     -0.525653    20A     -0.498809    21A     -0.483932
      22A     -0.462290    23A     -0.459170    24A     -0.444859
      25A     -0.380521

  @DF-RHF Final Energy:  -251.44026123147975

   => Energetics <=

    Nuclear Repulsion Energy =            250.1489210525614055
    One-Electron Energy =                -834.7549526256952959
    Two-Electron Energy =                 333.1657703416543086
    DFT Exchange-Correlation Energy =       0.0000000000000000
    Empirical Dispersion Energy =           0.0000000000000000
    PCM Polarization Energy =               0.0000000000000000
    EFP Energy =                            0.0000000000000000
    Total Energy =                       -251.4402612314796102
    Molecular point group: c1
  Basis Set: CC-PVTZ
  Basis Set:

  -Total Gradient:
     Atom            X                  Y                   Z
    ------   -----------------  -----------------  -----------------
       1       -0.000005338030    -0.000009995794    -0.000003918649
       2       -0.000003101457    -0.000031342308    -0.000012083712
       3        0.001938031315    -0.002735624893    -0.006330532813
       4        0.000000080761    -0.000003976581     0.000003218660
       5        0.003209380227    -0.004505891797     0.004468210157
       6       -0.002120198671     0.003031917809     0.004683577382
       7        0.000003162587    -0.000003737440    -0.000002878633
       8        0.000021554647     0.000003451984    -0.000000293380
       9       -0.003030941741     0.004260072584    -0.002811594698
      10        0.000000227644     0.000000349566     0.000001159354
      11       -0.000015806510    -0.000008089599     0.000007743752
      12       -0.000000020729     0.000001217917    -0.000000501990
      13       -0.000002295415     0.000001811488    -0.000000259967
      14        0.000004860788    -0.000000026445    -0.000001456456
      15        0.000001513340     0.000002876504     0.000000115319
      16       -0.000002441373    -0.000002596006     0.000000601862
      17       -0.000000990463     0.000000870284    -0.000000550043
      18        0.000002079820    -0.000000714667    -0.000000709370
      19        0.000000243257    -0.000000572607     0.000000153223

  **** Optimization is complete! (in 7 steps) ****
    Final optimized geometry and variables:
    Molecular point group: c1

    Geometry (in Angstrom), charge = 0, multiplicity = 1:

    H            2.790130012955     1.971786472383     0.582847883058
    N            1.923820804430     1.490527556979     0.467939091201
    C            2.152130598899     0.168569603175    -0.105653851049
    H            1.352572544462     2.055118919708    -0.123725154118
    C            0.893600799227    -0.724818373407    -0.095599560799
    H            2.901527623116    -0.288265472083     0.528653816263
    H            2.555180062491     0.219284468903    -1.115074206419
    C           -0.444370410522     0.016641105943    -0.067085813809
    H            0.897590245070    -1.321996538344    -1.002443814303
    H            0.932046283828    -1.405188729852     0.747508365860
    C           -1.638108443272    -0.933562314999    -0.112967770380
    H           -0.506273367481     0.695431315797    -0.916222901206
    H           -0.505873123490     0.629489810586     0.823636040418
    C           -2.979974287898    -0.209374902618    -0.082478965386
    H           -1.580642650466    -1.546371902302    -1.008653562494
    H           -1.581154083766    -1.619256166174     0.728133377971
    H           -3.083611160143     0.459085717068    -0.930999842075
    H           -3.806305238489    -0.910506836349    -0.112212368908
    H           -3.082666955036     0.385250640871     0.819062717134

  Mulliken Charges: (a.u.)
   Center  Symbol    Alpha    Beta     Spin     Total
       1     H     0.42944  0.42944  0.00000  0.14111
       2     N     3.69065  3.69065  0.00000 -0.38130
       3     C     3.03496  3.03496  0.00000 -0.06992
       4     H     0.42758  0.42758  0.00000  0.14484
       5     C     3.08495  3.08495  0.00000 -0.16991
       6     H     0.45600  0.45600  0.00000  0.08801
       7     H     0.46246  0.46246  0.00000  0.07508
       8     C     3.09417  3.09417  0.00000 -0.18834
       9     H     0.45599  0.45599  0.00000  0.08802
      10     H     0.45381  0.45381  0.00000  0.09238
      11     C     3.08512  3.08512  0.00000 -0.17024
      12     H     0.46044  0.46044  0.00000  0.07913
      13     H     0.44351  0.44351  0.00000  0.11297
      14     C     3.15009  3.15009  0.00000 -0.30018
      15     H     0.45623  0.45623  0.00000  0.08755
      16     H     0.45460  0.45460  0.00000  0.09079
      17     H     0.45641  0.45641  0.00000  0.08719
      18     H     0.44906  0.44906  0.00000  0.10189
      19     H     0.45453  0.45453  0.00000  0.09093

   Total alpha = 25.00000, Total beta = 25.00000, Total charge = -0.00000
