  ==> Input File <==

--------------------------------------------------------------------------
set {
	reference rhf
	basis cc-pvtz
}

set_num_threads( 4 )
memory 2 gb

molecule MOL {
0 1

H	 -0.939693	 0.000281	 1.681345
O	 -0.046262	 -0.000157	 1.387678
C	 -0.000837	 0.000006	 -0.025491
C	 1.118104	 0.924653	 -0.501040
C	 0.222658	 -1.424276	 -0.530088
C	 -1.358809	 0.523234	 -0.473076
H	 1.154320	 0.973479	 -1.583213
H	 2.083873	 0.570705	 -0.153072
H	 0.967186	 1.925226	 -0.115632
H	 0.226032	 -1.461438	 -1.613321
H	 1.176130	 -1.810547	 -0.182586
H	 -0.559087	 -2.078592	 -0.165108
H	 -1.421455	 0.560447	 -1.554269
H	 -1.523448	 1.519704	 -0.083007
H	 -2.148151	 -0.118911	 -0.103206

	symmetry c1
}
set optking {
	frozen_dihedral = ("
		4 3 2 1
	")
}

ee = optimize('scf')
oeprop('DIPOLE', 'QUADRUPOLE', 'MULLIKEN_CHARGES')
f=open( 'psi4out.xyz', 'w' )
f.write( "15  " )
f.write( str(ee) + "\n" )
f.write( MOL.save_string_xyz() )
f.close()
--------------------------------------------------------------------------

    Molecular point group: c1
  Charge       = 0
  Multiplicity = 1
  Basis Set: CC-PVTZ
  Basis Set:
  @DF-RHF Final Energy:  -232.24331038414650
    Total Energy =                       -232.2433103841465254
    Molecular point group: c1
  Basis Set: CC-PVTZ
  Basis Set:
  Basis Set: CC-PVTZ
  Basis Set:
  @DF-RHF Final Energy:  -232.24480703905203
    Total Energy =                       -232.2448070390519206
  Basis Set: CC-PVTZ
  Basis Set:
  Basis Set: CC-PVTZ
  Basis Set:
  @DF-RHF Final Energy:  -232.24523588686401
    Total Energy =                       -232.2452358868640658
  Basis Set: CC-PVTZ
  Basis Set:
  Basis Set: CC-PVTZ
  Basis Set:
  @DF-RHF Final Energy:  -232.24524084370270
    Total Energy =                       -232.2452408437023905
  Basis Set: CC-PVTZ
  Basis Set:
  Basis Set: CC-PVTZ
  Basis Set:
  @DF-RHF Final Energy:  -232.24516934376859
    Total Energy =                       -232.2451693437685094
  Basis Set: CC-PVTZ
  Basis Set:
  Basis Set: CC-PVTZ
  Basis Set:
  @DF-RHF Final Energy:  -232.24524164027096
    Total Energy =                       -232.2452416402710469
  Basis Set: CC-PVTZ
  Basis Set:
  Charge       = 0
  Multiplicity = 1
  Basis Set: CC-PVTZ
  Basis Set:

    Orbital Energies (a.u.)
    -----------------------

    Doubly Occupied:

       1A    -20.540701     2A    -11.281039     3A    -11.215319
       4A    -11.204304     5A    -11.203377     6A     -1.363339
       7A     -1.065626     8A     -0.945555     9A     -0.937398
      10A     -0.778565    11A     -0.672031    12A     -0.624542
      13A     -0.622947    14A     -0.576289    15A     -0.557533
      16A     -0.534240    17A     -0.517087    18A     -0.511328
      19A     -0.503698    20A     -0.458015    21A     -0.427322

  @DF-RHF Final Energy:  -232.24524167881262

   => Energetics <=

    Nuclear Repulsion Energy =            200.6050209671859363
    One-Electron Energy =                -712.6200161740603107
    Two-Electron Energy =                 279.7697535280616989
    DFT Exchange-Correlation Energy =       0.0000000000000000
    Empirical Dispersion Energy =           0.0000000000000000
    PCM Polarization Energy =               0.0000000000000000
    EFP Energy =                            0.0000000000000000
    Total Energy =                       -232.2452416788126470
    Molecular point group: c1
  Basis Set: CC-PVTZ
  Basis Set:

  -Total Gradient:
     Atom            X                  Y                   Z
    ------   -----------------  -----------------  -----------------
       1        0.000013942128     0.001660433226    -0.000035299594
       2       -0.000152303556    -0.001811456286    -0.000098478521
       3        0.000742069796    -0.000595487236    -0.000040869617
       4       -0.000600544759     0.000749975402     0.000053547508
       5        0.000038305618     0.000012657317     0.000024555833
       6       -0.000021238843     0.000001570341     0.000067390847
       7       -0.000019136921    -0.000026339097     0.000012450533
       8        0.000022908822    -0.000002255417     0.000010204124
       9       -0.000020038590    -0.000008826369     0.000001002256
      10        0.000017360847     0.000017942075     0.000011348813
      11        0.000014885648    -0.000036563359     0.000017286539
      12       -0.000011083051     0.000037926621    -0.000007468225
      13       -0.000005859627     0.000005921686    -0.000012607459
      14       -0.000015817100    -0.000022964201     0.000003631092
      15       -0.000003450411     0.000017465295    -0.000006694128

  **** Optimization is complete! (in 7 steps) ****
    Final optimized geometry and variables:
    Molecular point group: c1

    Geometry (in Angstrom), charge = 0, multiplicity = 1:

    H           -0.814160620317    -0.004951814937     1.752989321653
    O            0.051679708986    -0.016746049271     1.390613515639
    C            0.001606451158    -0.003649130759    -0.025359287098
    C            1.122139365241     0.921273983660    -0.485567972868
    C            0.229158240911    -1.426072019704    -0.530528904280
    C           -1.352319327084     0.525018382329    -0.491895173982
    H            1.185621238148     0.949204712624    -1.567359129206
    H            2.072026556103     0.577639050430    -0.095158545342
    H            0.953144059172     1.926998906246    -0.121606262685
    H            0.245908856837    -1.462023736702    -1.614168873673
    H            1.172647247107    -1.805549383288    -0.158834387066
    H           -0.558180712715    -2.083904728056    -0.180165382410
    H           -1.402919507613     0.565872826161    -1.572971105355
    H           -1.524406052253     1.523764171165    -0.107017219795
    H           -2.156837831752    -0.118588673778    -0.148402356473

  Mulliken Charges: (a.u.)
   Center  Symbol    Alpha    Beta     Spin     Total
       1     H     0.39272  0.39272  0.00000  0.21455
       2     O     4.21443  4.21443  0.00000 -0.42886
       3     C     2.87975  2.87975  0.00000  0.24050
       4     C     3.14011  3.14011  0.00000 -0.28022
       5     C     3.14194  3.14194  0.00000 -0.28388
       6     C     3.16064  3.16064  0.00000 -0.32128
       7     H     0.45946  0.45946  0.00000  0.08107
       8     H     0.44736  0.44736  0.00000  0.10527
       9     H     0.45197  0.45197  0.00000  0.09605
      10     H     0.45871  0.45871  0.00000  0.08258
      11     H     0.44816  0.44816  0.00000  0.10369
      12     H     0.45471  0.45471  0.00000  0.09057
      13     H     0.45122  0.45122  0.00000  0.09755
      14     H     0.44606  0.44606  0.00000  0.10789
      15     H     0.45274  0.45274  0.00000  0.09452

   Total alpha = 21.00000, Total beta = 21.00000, Total charge = -0.00000
