  ==> Input File <==

--------------------------------------------------------------------------
set {
	reference rhf
	basis 6-31G*
}

set_num_threads( 4 )
memory 2 gb

molecule MOL {
0 1

H	 2.911820	 -0.256008	 -1.972176
O	 1.992048	 -0.458483	 -2.070313
C	 1.274963	 0.032683	 -1.036420
C	 1.861081	 0.735781	 0.008291
C	 -0.091579	 -0.186316	 -1.042231
H	 2.924733	 0.905114	 0.010889
C	 1.081110	 1.218974	 1.045518
H	 -0.545574	 -0.729245	 -1.848576
C	 -0.865228	 0.300799	 0.000000
H	 1.545991	 1.761650	 1.848491
C	 -0.285358	 1.004745	 1.047847
C	 -2.333960	 0.069074	 0.000000
H	 -0.893100	 1.379171	 1.852496
O	 -2.847347	 -1.003763	 0.000000
H	 -2.943845	 0.977528	 0.000000

	symmetry c1
}
set optking {
	frozen_dihedral = ("
		11 9 12 14
	")
}

ee = optimize('scf')
oeprop('DIPOLE', 'QUADRUPOLE', 'MULLIKEN_CHARGES')
f=open( 'psi4out.xyz', 'w' )
f.write( "15  " )
f.write( str(ee) + "\n" )
f.write( MOL.save_string_xyz() )
f.close()
--------------------------------------------------------------------------

    Molecular point group: c1
  Charge       = 0
  Multiplicity = 1
  Basis Set: 6-31G*
  Basis Set:
  @DF-RHF Final Energy:  -418.27661790158174
    Total Energy =                       -418.2766179015810621
    Molecular point group: c1
  Basis Set: 6-31G*
  Basis Set:
  Basis Set: 6-31G*
  Basis Set:
  @DF-RHF Final Energy:  -418.27519268763263
    Total Energy =                       -418.2751926876320567
  Basis Set: 6-31G*
  Basis Set:
  Basis Set: 6-31G*
  Basis Set:
  @DF-RHF Final Energy:  -418.27711056591039
    Total Energy =                       -418.2771105659096520
  Basis Set: 6-31G*
  Basis Set:
  Basis Set: 6-31G*
  Basis Set:
  @DF-RHF Final Energy:  -418.27724870058671
    Total Energy =                       -418.2772487005870516
  Basis Set: 6-31G*
  Basis Set:
  Basis Set: 6-31G*
  Basis Set:
  @DF-RHF Final Energy:  -418.27725052474955
    Total Energy =                       -418.2772505247494337
  Basis Set: 6-31G*
  Basis Set:
  Charge       = 0
  Multiplicity = 1
  Basis Set: 6-31G*
  Basis Set:

    Orbital Energies (a.u.)
    -----------------------

    Doubly Occupied:

       1A    -20.601972     2A    -20.570799     3A    -11.335542
       4A    -11.312760     5A    -11.255546     6A    -11.252281
       7A    -11.244070     8A    -11.242145     9A    -11.239284
      10A     -1.421774    11A     -1.410207    12A     -1.168003
      13A     -1.047504    14A     -1.024728    15A     -0.898907
      16A     -0.842964    17A     -0.816037    18A     -0.737201
      19A     -0.700498    20A     -0.681506    21A     -0.651175
      22A     -0.638957    23A     -0.613153    24A     -0.600297
      25A     -0.579745    26A     -0.544713    27A     -0.532010
      28A     -0.513244    29A     -0.489657    30A     -0.423582
      31A     -0.352825    32A     -0.324021

  @DF-RHF Final Energy:  -418.27725109069735

   => Energetics <=

    Nuclear Repulsion Energy =            402.6122461679355524
    One-Electron Energy =               -1367.6447850242454933
    Two-Electron Energy =                 546.7552877656132750
    DFT Exchange-Correlation Energy =       0.0000000000000000
    Empirical Dispersion Energy =           0.0000000000000000
    PCM Polarization Energy =               0.0000000000000000
    EFP Energy =                            0.0000000000000000
    Total Energy =                       -418.2772510906966090
    Molecular point group: c1
  Basis Set: 6-31G*
  Basis Set:

  -Total Gradient:
     Atom            X                  Y                   Z
    ------   -----------------  -----------------  -----------------
       1       -0.000007247664     0.000022239552    -0.000003724473
       2        0.000007323277    -0.000005932664     0.000026307327
       3       -0.000040040753    -0.000046123303    -0.000008361640
       4       -0.000016117738     0.000060087707     0.000014785668
       5        0.000067448506     0.000003123455    -0.000038726794
       6        0.000006004424    -0.000012881882     0.000000544075
       7        0.000087711805    -0.000022095877    -0.000022158956
       8       -0.000007054443     0.000015646211     0.000005597391
       9       -0.001342925019     0.006773763167    -0.000639683719
      10        0.000000691007    -0.000003397145    -0.000004967321
      11        0.000877163282    -0.004764477272     0.002485915102
      12        0.000190769725    -0.001775951237    -0.008544010693
      13       -0.000002695680    -0.000001370107     0.000000763642
      14        0.000180902257    -0.000220304750     0.006720963462
      15       -0.000001933003    -0.000022325852     0.000006756930

  **** Optimization is complete! (in 6 steps) ****
    Final optimized geometry and variables:
    Molecular point group: c1

    Geometry (in Angstrom), charge = 0, multiplicity = 1:

    H            2.937125755609    -0.447765982299    -1.676362979617
    O            2.012695045330    -0.618636946278    -1.790499408532
    C            1.298990039795    -0.119345956355    -0.759086077905
    C            1.886578979330     0.570280065620     0.290216018533
    C           -0.072349831919    -0.328024564897    -0.772966540149
    H            2.952388762092     0.723813914883     0.304899823803
    C            1.099308628901     1.056727070957     1.321724959260
    H           -0.510701494838    -0.890076370421    -1.575906098757
    C           -0.852017625040     0.188341146656     0.246456102655
    H            1.563560514749     1.578937139508     2.138645563146
    C           -0.271008170030     0.875788116482     1.305964991594
    C           -2.321868290014    -0.091482081673     0.276451202244
    H           -0.878936081220     1.261384524655     2.105183004629
    O           -2.783495277961    -1.185643450162     0.252213891846
    H           -2.970361735710     0.782071552145     0.389962010959

  Mulliken Charges: (a.u.)
   Center  Symbol    Alpha    Beta     Spin     Total
       1     H     0.27032  0.27032  0.00000  0.45936
       2     O     4.37601  4.37601  0.00000 -0.75201
       3     C     2.79291  2.79291  0.00000  0.41418
       4     C     3.13985  3.13985  0.00000 -0.27970
       5     C     3.11948  3.11948  0.00000 -0.23896
       6     H     0.40019  0.40019  0.00000  0.19961
       7     C     3.09033  3.09033  0.00000 -0.18067
       8     H     0.37952  0.37952  0.00000  0.24096
       9     C     3.02675  3.02675  0.00000 -0.05350
      10     H     0.39358  0.39358  0.00000  0.21284
      11     C     3.11793  3.11793  0.00000 -0.23585
      12     C     2.85036  2.85036  0.00000  0.29929
      13     H     0.39440  0.39440  0.00000  0.21120
      14     O     4.22553  4.22553  0.00000 -0.45106
      15     H     0.42284  0.42284  0.00000  0.15431

   Total alpha = 32.00000, Total beta = 32.00000, Total charge = -0.00000
