  ==> Input File <==

--------------------------------------------------------------------------
set {
	reference rhf
	basis 6-31G*
}

set_num_threads( 4 )
memory 2 gb

molecule MOL {
0 1

H	 -2.646374	 -0.642757	 1.268656
C	 -2.083525	 -0.384536	 0.393091
O	 -0.807605	 -0.127164	 0.768327
F	 -2.118945	 -1.383102	 -0.486752
F	 -2.621877	 0.670592	 -0.209486
C	 0.084052	 0.273579	 -0.209957
C	 1.353033	 -0.546803	 -0.018071
Cl	 0.433844	 2.004619	 -0.074457
H	 -0.288836	 0.092657	 -1.202930
F	 1.402310	 -1.528516	 -0.893257
F	 1.338095	 -1.075339	 1.189350
F	 2.436035	 0.181508	 -0.139087

	symmetry c1
}
set optking {
	frozen_dihedral = ("
		10 7 6 9
	")
}

ee = optimize('scf')
oeprop('DIPOLE', 'QUADRUPOLE', 'MULLIKEN_CHARGES')
f=open( 'psi4out.xyz', 'w' )
f.write( "12  " )
f.write( str(ee) + "\n" )
f.write( MOL.save_string_xyz() )
f.close()
--------------------------------------------------------------------------

    Molecular point group: c1
  Charge       = 0
  Multiplicity = 1
  Basis Set: 6-31G*
  Basis Set:
  @DF-RHF Final Energy: -1146.30458000502131
    Total Energy =                      -1146.3045800050208527
    Molecular point group: c1
  Basis Set: 6-31G*
  Basis Set:
  Basis Set: 6-31G*
  Basis Set:
  @DF-RHF Final Energy: -1146.30508761263536
    Total Energy =                      -1146.3050876126358162
  Basis Set: 6-31G*
  Basis Set:
  Basis Set: 6-31G*
  Basis Set:
  @DF-RHF Final Energy: -1146.30706011815209
    Total Energy =                      -1146.3070601181520942
  Basis Set: 6-31G*
  Basis Set:
  Basis Set: 6-31G*
  Basis Set:
  @DF-RHF Final Energy: -1146.30715566762410
    Total Energy =                      -1146.3071556676245564
  Basis Set: 6-31G*
  Basis Set:
  @DF-RHF Final Energy: -1146.30716983084267
    Total Energy =                      -1146.3071698308426676
  @DF-RHF Final Energy: -1146.30717307181567
    Total Energy =                      -1146.3071730718156687
  Basis Set: 6-31G*
  Basis Set:
  @DF-RHF Final Energy: -1146.30713680357894
    Total Energy =                      -1146.3071368035787145
  Basis Set: 6-31G*
  Basis Set:
  Basis Set: 6-31G*
  Basis Set:
  @DF-RHF Final Energy: -1146.30717234193980
    Total Energy =                      -1146.3071723419391219
  Basis Set: 6-31G*
  Basis Set:
  Basis Set: 6-31G*
  Basis Set:
  @DF-RHF Final Energy: -1146.30717568967202
    Total Energy =                      -1146.3071756896711122
  Basis Set: 6-31G*
  Basis Set:
  Charge       = 0
  Multiplicity = 1
  Basis Set: 6-31G*
  Basis Set:

    Orbital Energies (a.u.)
    -----------------------

    Doubly Occupied:

       1A   -104.844122     2A    -26.358947     3A    -26.357978
       4A    -26.356730     5A    -26.345603     6A    -26.345434
       7A    -20.647308     8A    -11.529347     9A    -11.488400
      10A    -11.401375    11A    -10.578755    12A     -8.048120
      13A     -8.044546    14A     -8.044495    15A     -1.761381
      16A     -1.716801    17A     -1.657914    18A     -1.654107
      19A     -1.637607    20A     -1.483627    21A     -1.177820
      22A     -1.049800    23A     -0.985337    24A     -0.918801
      25A     -0.857863    26A     -0.851383    27A     -0.844585
      28A     -0.823929    29A     -0.810722    30A     -0.790751
      31A     -0.724849    32A     -0.723861    33A     -0.704788
      34A     -0.701700    35A     -0.676643    36A     -0.674595
      37A     -0.657811    38A     -0.656506    39A     -0.646331
      40A     -0.630968    41A     -0.596028    42A     -0.579225
      43A     -0.523084    44A     -0.475341    45A     -0.468942

  @DF-RHF Final Energy: -1146.30717613983506

   => Energetics <=

    Nuclear Repulsion Energy =            735.6934052285924963
    One-Electron Energy =               -3054.2926437016058117
    Two-Electron Energy =                1172.2920623331790466
    DFT Exchange-Correlation Energy =       0.0000000000000000
    Empirical Dispersion Energy =           0.0000000000000000
    PCM Polarization Energy =               0.0000000000000000
    EFP Energy =                            0.0000000000000000
    Total Energy =                      -1146.3071761398343824
    Molecular point group: c1
  Basis Set: 6-31G*
  Basis Set:

  -Total Gradient:
     Atom            X                  Y                   Z
    ------   -----------------  -----------------  -----------------
       1       -0.000009043278     0.000002025651    -0.000011798932
       2        0.000100461623    -0.000009831414    -0.000047321133
       3        0.000026059997     0.000099235490     0.000020793697
       4       -0.000040417586    -0.000037181971    -0.000000519629
       5       -0.000081691279     0.000007996848     0.000005861585
       6        0.004950190854     0.006648065350    -0.003821804203
       7       -0.003977009064    -0.004925741849     0.004746940966
       8       -0.000002030184     0.000096056134     0.000012865024
       9       -0.003562376276    -0.004890849463     0.002455471789
      10        0.002540777762     0.003032557125    -0.003468167560
      11        0.000042965455     0.000001602226    -0.000015079149
      12        0.000012111972    -0.000023934139     0.000122757550

  **** Optimization is complete! (in 10 steps) ****
    Final optimized geometry and variables:
    Molecular point group: c1

    Geometry (in Angstrom), charge = 0, multiplicity = 1:

    H           -2.669891128143    -0.649796887494     1.225902345465
    C           -2.090731119420    -0.381981991116     0.363941970782
    O           -0.821350868614    -0.135907281455     0.764788039587
    F           -2.113753556718    -1.371692571472    -0.528204955671
    F           -2.618435850477     0.679911976130    -0.236013338496
    C            0.090315933643     0.283024676722    -0.193799437946
    C            1.371922081265    -0.556205883236     0.000326512642
    CL           0.382125187138     2.019667119120    -0.047184961674
    H           -0.290316915261     0.073086537876    -1.177056339794
    F            1.352315601889    -1.548263461188    -0.873389050498
    F            1.460512355146    -1.058044851093     1.205674036517
    F            2.461525259404     0.139484766713    -0.235363413854

  Mulliken Charges: (a.u.)
   Center  Symbol    Alpha    Beta     Spin     Total
       1     H     0.40139  0.40139  0.00000  0.19723
       2     C     2.56669  2.56669  0.00000  0.86663
       3     O     4.29603  4.29603  0.00000 -0.59206
       4     F     4.68728  4.68728  0.00000 -0.37457
       5     F     4.68412  4.68412  0.00000 -0.36824
       6     C     3.06573  3.06573  0.00000 -0.13146
       7     C     2.42685  2.42685  0.00000  1.14631
       8    CL     8.49391  8.49391  0.00000  0.01219
       9     H     0.36399  0.36399  0.00000  0.27201
      10     F     4.67811  4.67811  0.00000 -0.35622
      11     F     4.66544  4.66544  0.00000 -0.33088
      12     F     4.67046  4.67046  0.00000 -0.34093

   Total alpha = 45.00000, Total beta = 45.00000, Total charge = -0.00000
