                              Psi4 1.0.54 Driver

  ==> Input File <==

--------------------------------------------------------------------------
set {
	reference rhf
	basis cc-pvtz
}

set_num_threads( 4 )
memory 2 gb

molecule MOL {
0 1

H	 -3.461531	 0.673986	 -1.388638
C	 -2.641312	 1.215147	 -1.879833
C	 -1.745676	 1.987907	 -0.950010
O	 -2.522593	 1.169133	 -3.055033
C	 -1.216901	 1.136108	 0.207794
H	 -0.939307	 2.419874	 -1.528376
H	 -2.343922	 2.803371	 -0.549480
C	 -0.247837	 0.040196	 -0.230469
H	 -0.723267	 1.790943	 0.917623
H	 -2.054749	 0.691724	 0.739516
C	 1.181757	 0.280428	 0.247371
H	 -0.259600	 -0.030819	 -1.314870
H	 -0.591284	 -0.923375	 0.136958
C	 2.151032	 -0.811012	 -0.202643
H	 1.515939	 1.247397	 -0.115449
H	 1.191514	 0.341223	 1.333422
C	 3.580021	 -0.656538	 0.320835
H	 2.170545	 -0.847575	 -1.289412
H	 1.766632	 -1.772905	 0.124928
C	 4.327657	 0.562694	 -0.213579
H	 4.138806	 -1.549270	 0.057813
H	 3.561991	 -0.620783	 1.406976
H	 4.355973	 0.557257	 -1.298551
H	 3.867136	 1.491650	 0.100501
H	 5.351524	 0.571613	 0.142204

	symmetry c1
}
set optking {
	frozen_dihedral = ("
		3 5 8 12
	")
}

ee,wfn = optimize('scf', return_wfn=True)
oeprop( wfn, 'DIPOLE', 'QUADRUPOLE', 'MULLIKEN_CHARGES')
f=open( 'psi4out.xyz', 'w' )
f.write( "25  " )
f.write( str(ee) + "\n" )
f.write( MOL.save_string_xyz() )
f.close()
--------------------------------------------------------------------------

    Molecular point group: c1
  Charge       = 0
  Multiplicity = 1
  Basis Set: CC-PVTZ
  Basis Set:
  @DF-RHF Final Energy:  -387.25502296946706
    Total Energy =                       -387.2550229694670634
    Molecular point group: c1
  Basis Set: CC-PVTZ
  Basis Set:
  Basis Set: CC-PVTZ
  Basis Set:
  @DF-RHF Final Energy:  -387.25524895434080
    Total Energy =                       -387.2552489543410275
  Basis Set: CC-PVTZ
  Basis Set:
  Basis Set: CC-PVTZ
  Basis Set:
  @DF-RHF Final Energy:  -387.25500475051700
    Total Energy =                       -387.2550047505169459
  Basis Set: CC-PVTZ
  Basis Set:
  Basis Set: CC-PVTZ
  Basis Set:
  @DF-RHF Final Energy:  -387.25531691827376
    Total Energy =                       -387.2553169182748434
  Basis Set: CC-PVTZ
  Basis Set:
  @DF-RHF Final Energy:  -387.25526970486914
    Total Energy =                       -387.2552697048687378
  Basis Set: CC-PVTZ
  Basis Set:
  @DF-RHF Final Energy:  -387.25534794533911
    Total Energy =                       -387.2553479453390537
  Basis Set: CC-PVTZ
  Basis Set:
  Basis Set: CC-PVTZ
  Basis Set:
  @DF-RHF Final Energy:  -387.25534998325082
    Total Energy =                       -387.2553499832508805
  Basis Set: CC-PVTZ
  Basis Set:
  Basis Set: CC-PVTZ
  Basis Set:
  @DF-RHF Final Energy:  -387.25535101636405
    Total Energy =                       -387.2553510163635337
  Basis Set: CC-PVTZ
  Basis Set:
  Charge       = 0
  Multiplicity = 1
  Basis Set: CC-PVTZ
  Basis Set:

    Orbital Energies (a.u.)
    -----------------------

    Doubly Occupied:

       1A    -20.552177     2A    -11.321096     3A    -11.234147
       4A    -11.232733     5A    -11.220363     6A    -11.217071
       7A    -11.215364     8A    -11.213800     9A    -11.207668
      10A     -1.406930    11A     -1.103128    12A     -1.069651
      13A     -1.013189    14A     -0.942171    15A     -0.876275
      16A     -0.821628    17A     -0.786874    18A     -0.781484
      19A     -0.669200    20A     -0.655855    21A     -0.643244
      22A     -0.620737    23A     -0.607968    24A     -0.591048
      25A     -0.577052    26A     -0.547647    27A     -0.539733
      28A     -0.524667    29A     -0.511894    30A     -0.500713
      31A     -0.486824    32A     -0.475317    33A     -0.463101
      34A     -0.457597    35A     -0.441910    36A     -0.412304

  @DF-RHF Final Energy:  -387.25535090678272

   => Energetics <=

    Nuclear Repulsion Energy =            442.9316977782050344
    One-Electron Energy =               -1402.4889683602941659
    Two-Electron Energy =                 572.3019196753065216
    DFT Exchange-Correlation Energy =       0.0000000000000000
    Empirical Dispersion Energy =           0.0000000000000000
    PCM Polarization Energy =               0.0000000000000000
    EFP Energy =                            0.0000000000000000
    Total Energy =                       -387.2553509067826099
    Molecular point group: c1
  Basis Set: CC-PVTZ
  Basis Set:

  -Total Gradient:
     Atom            X                  Y                   Z
    ------   -----------------  -----------------  -----------------
       1        0.000006081883    -0.000001323410     0.000003838027
       2       -0.000010596595     0.000024107376    -0.000034277847
       3       -0.000891681456    -0.000696548579    -0.000132815625
       4       -0.000000755175    -0.000022738653     0.000002512875
       5        0.001540419267     0.001263944467     0.000190458451
       6       -0.000003430709    -0.000000378914    -0.000002720435
       7        0.000001646207    -0.000007232623     0.000007426542
       8       -0.001818328331    -0.001601599666    -0.000004729487
       9       -0.000015418040     0.000005121660     0.000016791178
      10        0.000010432325     0.000007635787     0.000001619787
      11        0.000036986626    -0.000001099395     0.000032898237
      12        0.001170683668     0.001016607418    -0.000074655891
      13       -0.000003074732    -0.000003753333    -0.000005222925
      14       -0.000010608046    -0.000014345653     0.000009587833
      15        0.000050216261     0.000027177740     0.000005909585
      16       -0.000001087260    -0.000011781241    -0.000001454657
      17        0.000001911066     0.000006322166    -0.000034915913
      18        0.000002322043    -0.000016976694     0.000001707975
      19       -0.000019195731     0.000010632204     0.000016452417
      20       -0.000009259429    -0.000000073870     0.000009622035
      21       -0.000005833443     0.000007100258    -0.000015290070
      22       -0.000001249418    -0.000010686581    -0.000003666681
      23        0.000000772838    -0.000006465805     0.000008666866
      24       -0.000036110059     0.000015444050    -0.000002554222
      25        0.000005156240     0.000010911296     0.000004811942

  **** Optimization is complete! (in 9 steps) ****
    Final optimized geometry and variables:
    Molecular point group: c1

    Geometry (in Angstrom), charge = 0, multiplicity = 1:

    H           -3.843358490625     0.235671531554    -0.726807448017
    C           -2.977307151855     0.703461450861    -1.214204459031
    C           -2.066676768708     1.466274892778    -0.291323524936
    O           -2.820612924391     0.587758510921    -2.380328269706
    C           -1.552675038532     0.601169319159     0.865565022010
    H           -1.251925468001     1.877937984988    -0.873163021950
    H           -2.646449738210     2.294309453305     0.110342661538
    C           -0.581978240897    -0.515656681015     0.428409730116
    H           -1.067356705101     1.249453481824     1.585177106032
    H           -2.405558655220     0.173122758903     1.383239977547
    C            0.852962927749    -0.282791904185     0.900805490975
    H           -0.575498123438    -0.594780572127    -0.654010957846
    H           -0.926554087794    -1.473498018682     0.802638013608
    C            1.816878323903    -1.371262979603     0.434769791035
    H            1.186151255948     0.687418817327     0.544641218228
    H            0.867481152614    -0.231276184822     1.987236146238
    C            3.248599546753    -1.226193218896     0.953501805141
    H            1.831156078736    -1.396268776812    -0.652301469848
    H            1.431075830080    -2.335674828186     0.754035784912
    C            3.994138760206     0.000730564393     0.433989582379
    H            3.805367194875    -2.115154164371     0.673876385609
    H            3.236037137288    -1.207080202571     2.040173684515
    H            4.016669567639     0.011969785246    -0.650984659649
    H            3.535530960657     0.924907453575     0.764600416963
    H            5.019822773805     0.003846141636     0.784682924654

  Mulliken Charges: (a.u.)
   Center  Symbol    Alpha    Beta     Spin     Total
       1     H     0.46366  0.46366  0.00000  0.07267
       2     C     2.90514  2.90514  0.00000  0.18971
       3     C     3.08585  3.08585  0.00000 -0.17171
       4     O     4.16593  4.16593  0.00000 -0.33187
       5     C     3.12301  3.12301  0.00000 -0.24601
       6     H     0.44331  0.44331  0.00000  0.11339
       7     H     0.44232  0.44232  0.00000  0.11537
       8     C     3.10074  3.10074  0.00000 -0.20148
       9     H     0.44299  0.44299  0.00000  0.11401
      10     H     0.44272  0.44272  0.00000  0.11456
      11     C     3.09074  3.09074  0.00000 -0.18148
      12     H     0.44524  0.44524  0.00000  0.10952
      13     H     0.44522  0.44522  0.00000  0.10957
      14     C     3.09649  3.09649  0.00000 -0.19298
      15     H     0.45173  0.45173  0.00000  0.09654
      16     H     0.45353  0.45353  0.00000  0.09293
      17     C     3.09065  3.09065  0.00000 -0.18130
      18     H     0.45122  0.45122  0.00000  0.09757
      19     H     0.44949  0.44949  0.00000  0.10102
      20     C     3.15255  3.15255  0.00000 -0.30510
      21     H     0.44790  0.44790  0.00000  0.10420
      22     H     0.45503  0.45503  0.00000  0.08994
      23     H     0.45377  0.45377  0.00000  0.09245
      24     H     0.45458  0.45458  0.00000  0.09084
      25     H     0.44617  0.44617  0.00000  0.10765

   Total alpha = 36.00000, Total beta = 36.00000, Total charge = -0.00000

*** Psi4 exiting successfully. Buy a developer a beer!
