  ==> Input File <==

--------------------------------------------------------------------------
set {
	reference rhf
	basis 6-31G*
}

set_num_threads( 4 )
memory 2 gb

molecule MOL {
0 1

H	 1.040753	 1.851456	 0.136908
O	 0.217198	 1.373506	 0.144094
C	 0.489431	 0.077273	 0.000046
C	 -0.764129	 -0.759190	 0.000191
O	 1.600121	 -0.328184	 -0.111920
C	 -2.038368	 0.075731	 -0.000248
H	 -0.717284	 -1.412404	 -0.866059
H	 -0.717458	 -1.411724	 0.866967
H	 -2.086483	 0.712501	 -0.875098
H	 -2.908485	 -0.571682	 -0.000042
H	 -2.086576	 0.713280	 0.874068

	symmetry c1
}
set optking {
	frozen_dihedral = ("
		2 3 4 7
	")
}

ee = optimize('scf')
oeprop('DIPOLE', 'QUADRUPOLE', 'MULLIKEN_CHARGES')
f=open( 'psi4out.xyz', 'w' )
f.write( "11  " )
f.write( str(ee) + "\n" )
f.write( MOL.save_string_xyz() )
f.close()
--------------------------------------------------------------------------

    Molecular point group: c1
  Charge       = 0
  Multiplicity = 1
  Basis Set: 6-31G*
  Basis Set:
  @DF-RHF Final Energy:  -266.84218104130036
    Total Energy =                       -266.8421810413003641
    Molecular point group: c1
  Basis Set: 6-31G*
  Basis Set:
  Basis Set: 6-31G*
  Basis Set:
  @DF-RHF Final Energy:  -266.84307784523412
    Total Energy =                       -266.8430778452340064
  Basis Set: 6-31G*
  Basis Set:
  Basis Set: 6-31G*
  Basis Set:
  @DF-RHF Final Energy:  -266.84336603757356
    Total Energy =                       -266.8433660375734462
  Basis Set: 6-31G*
  Basis Set:
  Basis Set: 6-31G*
  Basis Set:
  @DF-RHF Final Energy:  -266.84325446015288
    Total Energy =                       -266.8432544601528207
  Basis Set: 6-31G*
  Basis Set:
  Basis Set: 6-31G*
  Basis Set:
  @DF-RHF Final Energy:  -266.84339098265048
    Total Energy =                       -266.8433909826502486
  Basis Set: 6-31G*
  Basis Set:
  Charge       = 0
  Multiplicity = 1
  Basis Set: 6-31G*
  Basis Set:

    Orbital Energies (a.u.)
    -----------------------

    Doubly Occupied:

       1A    -20.616606     2A    -20.547645     3A    -11.382633
       4A    -11.244661     5A    -11.224332     6A     -1.476805
       7A     -1.365229     8A     -1.066204     9A     -0.908933
      10A     -0.824169    11A     -0.701751    12A     -0.673180
      13A     -0.662090    14A     -0.595626    15A     -0.586321
      16A     -0.554539    17A     -0.523325    18A     -0.517326
      19A     -0.470016    20A     -0.439999

  @DF-RHF Final Energy:  -266.84339213301757

   => Energetics <=

    Nuclear Repulsion Energy =            180.0547291714243840
    One-Electron Energy =                -721.0334638703080827
    Two-Electron Energy =                 274.1353425658661536
    DFT Exchange-Correlation Energy =       0.0000000000000000
    Empirical Dispersion Energy =           0.0000000000000000
    PCM Polarization Energy =               0.0000000000000000
    EFP Energy =                            0.0000000000000000
    Total Energy =                       -266.8433921330175735
    Molecular point group: c1
  Basis Set: 6-31G*
  Basis Set:

  -Total Gradient:
     Atom            X                  Y                   Z
    ------   -----------------  -----------------  -----------------
       1       -0.000015672685    -0.000041661667    -0.000001221922
       2       -0.000055208101     0.000065675378    -0.000184412913
       3        0.000080052623    -0.000059480232     0.000199466264
       4        0.000135166928    -0.000127110069     0.000093349981
       5        0.000006981417     0.000016661627     0.000010980885
       6       -0.000020071109    -0.000017101822     0.000002002775
       7       -0.000103392437     0.000164008448    -0.000118982786
       8       -0.000004788910    -0.000009778364     0.000003325427
       9       -0.000000352351     0.000000903970     0.000009442532
      10       -0.000023596319     0.000014032262    -0.000001594355
      11        0.000000880938    -0.000006149532    -0.000012355886

  **** Optimization is complete! (in 6 steps) ****
    Final optimized geometry and variables:
    Molecular point group: c1

    Geometry (in Angstrom), charge = 0, multiplicity = 1:

    H            1.226119031639     1.703004679671     0.119961725094
    O            0.374485583533     1.276362613813     0.121982107872
    C            0.574831156963    -0.031632821001    -0.008185387289
    C           -0.693752564999    -0.853106641090    -0.011655997848
    O            1.664669433240    -0.496227103302    -0.104737923162
    C           -2.006430850352    -0.074753458198    -0.008961910686
    H           -0.627040671600    -1.502693467353    -0.877645894167
    H           -0.629558558936    -1.505368809262     0.854044251233
    H           -2.088452483070     0.566162537884    -0.878805421562
    H           -2.841722894808    -0.766558286556    -0.020377088590
    H           -2.096009084627     0.548654488526     0.872100611741

  Mulliken Charges: (a.u.)
   Center  Symbol    Alpha    Beta     Spin     Total
       1     H     0.26715  0.26715  0.00000  0.46570
       2     O     4.34823  4.34823  0.00000 -0.69646
       3     C     2.62369  2.62369  0.00000  0.75262
       4     C     3.21157  3.21157  0.00000 -0.42314
       5     O     4.28207  4.28207  0.00000 -0.56413
       6     C     3.23982  3.23982  0.00000 -0.47964
       7     H     0.39510  0.39510  0.00000  0.20981
       8     H     0.39557  0.39557  0.00000  0.20886
       9     H     0.41150  0.41150  0.00000  0.17701
      10     H     0.41548  0.41548  0.00000  0.16904
      11     H     0.40982  0.40982  0.00000  0.18036

   Total alpha = 20.00000, Total beta = 20.00000, Total charge =  0.00000
