                              Psi4 1.0.54 Driver

  ==> Input File <==

--------------------------------------------------------------------------
set {
	reference rhf
	basis cc-pvtz
}

set_num_threads( 4 )
memory 2 gb

molecule MOL {
0 1

H	 2.342730	 0.877684	 -1.045694
C	 2.360424	 0.000000	 -0.411793
C	 1.173749	 0.000000	 0.526870
H	 3.286567	 0.000000	 0.151574
H	 2.342730	 -0.877684	 -1.045694
O	 0.000000	 0.000000	 -0.223739
H	 1.203779	 0.876757	 1.172538
H	 1.203779	 -0.876757	 1.172538
C	 -1.173749	 0.000000	 0.526870
C	 -0.929837	 0.737553	 1.825256
H	 -1.488118	 -1.023351	 0.727908
H	 -1.975334	 0.478974	 -0.033966
H	 -0.143599	 0.256100	 2.393151
H	 -1.831626	 0.750109	 2.426707
H	 -0.631330	 1.760014	 1.630472

	symmetry c1
}
set optking {
	frozen_dihedral = ("
		11 9 6 3
	")
}

ee,wfn = optimize('scf', return_wfn=True)
oeprop( wfn, 'DIPOLE', 'QUADRUPOLE', 'MULLIKEN_CHARGES')
f=open( 'psi4out.xyz', 'w' )
f.write( "15  " )
f.write( str(ee) + "\n" )
f.write( MOL.save_string_xyz() )
f.close()
--------------------------------------------------------------------------

    Molecular point group: c1
  Charge       = 0
  Multiplicity = 1
  Basis Set: CC-PVTZ
  Basis Set:
  @DF-RHF Final Energy:  -232.21555052435278
    Total Energy =                       -232.2155505243527500
    Molecular point group: c1
  Basis Set: CC-PVTZ
  Basis Set:
  Basis Set: CC-PVTZ
  Basis Set:
  @DF-RHF Final Energy:  -231.30802503669744
    Total Energy =                       -231.3080250366974724
  Basis Set: CC-PVTZ
  Basis Set:
  Basis Set: CC-PVTZ
  Basis Set:
  @DF-RHF Final Energy:  -231.50402533131580
    Total Energy =                       -231.5040253313158018
  Basis Set: CC-PVTZ
  Basis Set:
  Basis Set: CC-PVTZ
  Basis Set:
  @DF-RHF Final Energy:  -230.68964668005509
    Total Energy =                       -230.6896466800550343
  Basis Set: CC-PVTZ
  Basis Set:
  @DF-RHF Final Energy:  -230.94854591115066
    Total Energy =                       -230.9485459111505747
  @DF-RHF Final Energy:  -231.31799830025574
    Total Energy =                       -231.3179983002556241
  @DF-RHF Final Energy:  -231.65153918780015
    Total Energy =                       -231.6515391877999264
  @DF-RHF Final Energy:  -231.89282208927696
    Total Energy =                       -231.8928220892769332
  @DF-RHF Final Energy:  -231.99807215924588
    Total Energy =                       -231.9980721592457655
  @DF-RHF Final Energy:  -232.02215893490009
    Total Energy =                       -232.0221589348998918
  @DF-RHF Final Energy:  -232.07954614172880
    Total Energy =                       -232.0795461417286560
  @DF-RHF Final Energy:  -232.19152129588511
    Total Energy =                       -232.1915212958850816
  @DF-RHF Final Energy:  -232.21623990733275
    Total Energy =                       -232.2162399073325219
  @DF-RHF Final Energy:  -231.35175615472937
    Total Energy =                       -231.3517561547293155
  @DF-RHF Final Energy:  -231.66122166404841
    Total Energy =                       -231.6612216640483553
  @DF-RHF Final Energy:  -231.85716351718028
    Total Energy =                       -231.8571635171804814
  @DF-RHF Final Energy:  -232.07789333472545
    Total Energy =                       -232.0778933347254736
  @DF-RHF Final Energy:  -232.19541079196171
    Total Energy =                       -232.1954107919619332
  @DF-RHF Final Energy:  -232.20289757304096
    Total Energy =                       -232.2028975730410139
  @DF-RHF Final Energy:  -232.22195181137451
    Total Energy =                       -232.2219518113744812
  @DF-RHF Final Energy:  -232.21494409545446
    Total Energy =                       -232.2149440954542570
  @DF-RHF Final Energy:  -232.22624050830052
    Total Energy =                       -232.2262405083005206
  Basis Set: CC-PVTZ
  Basis Set:
  @DF-RHF Final Energy:  -232.22655829392775
    Total Energy =                       -232.2265582939276669
  Basis Set: CC-PVTZ
  Basis Set:
  Basis Set: CC-PVTZ
  Basis Set:
  @DF-RHF Final Energy:  -232.22659085873440
    Total Energy =                       -232.2265908587343120
  Basis Set: CC-PVTZ
  Basis Set:
  Basis Set: CC-PVTZ
  Basis Set:
  @DF-RHF Final Energy:  -232.22659621284967
    Total Energy =                       -232.2265962128497563
  Basis Set: CC-PVTZ
  Basis Set:
  Charge       = 0
  Multiplicity = 1
  Basis Set: CC-PVTZ
  Basis Set:

    Orbital Energies (a.u.)
    -----------------------

    Doubly Occupied:

       1A    -20.541490     2A    -11.266289     3A    -11.264781
       4A    -11.214044     5A    -11.205507     6A     -1.374050
       7A     -1.040885     8A     -0.991013     9A     -0.871567
      10A     -0.799317    11A     -0.675685    12A     -0.660481
      13A     -0.624413    14A     -0.595191    15A     -0.548235
      16A     -0.537182    17A     -0.524149    18A     -0.504193
      19A     -0.494478    20A     -0.452388    21A     -0.406631

  @DF-RHF Final Energy:  -232.22659716560216

   => Energetics <=

    Nuclear Repulsion Energy =            193.4071218387621514
    One-Electron Energy =                -698.0834977311164948
    Two-Electron Energy =                 272.4497787267521289
    DFT Exchange-Correlation Energy =       0.0000000000000000
    Empirical Dispersion Energy =           0.0000000000000000
    PCM Polarization Energy =               0.0000000000000000
    EFP Energy =                            0.0000000000000000
    Total Energy =                       -232.2265971656022430
    Molecular point group: c1
  Basis Set: CC-PVTZ
  Basis Set:

  -Total Gradient:
     Atom            X                  Y                   Z
    ------   -----------------  -----------------  -----------------
       1        0.000016456490    -0.000010036536     0.000013296399
       2       -0.000032244992     0.000017563404    -0.000005152269
       3        0.003787598295     0.002056558551     0.000069070048
       4       -0.000014325372     0.000033655702     0.000003412230
       5        0.000048238594     0.000019901446    -0.000044908365
       6       -0.005061701182    -0.004117359680     0.000494105259
       7       -0.000061637218    -0.000037569097     0.000049883607
       8        0.000002323589     0.000029184253    -0.000017109863
       9       -0.000730333982     0.005766086569    -0.003150493657
      10       -0.000019810801     0.000120023882    -0.000068890451
      11        0.002104266909    -0.003839506809     0.002664737174
      12       -0.000040238898    -0.000013836297    -0.000014113557
      13        0.000025205895     0.000005081976     0.000001685419
      14       -0.000002052598    -0.000017120106     0.000010123327
      15       -0.000021744728    -0.000012627261    -0.000005645300

  **** Optimization is complete! (in 26 steps) ****
    Final optimized geometry and variables:
    Molecular point group: c1

    Geometry (in Angstrom), charge = 0, multiplicity = 1:

    H           -0.048014102479     1.190178311737     2.431139594477
    C           -0.933972308762     1.105973205658     1.813978172005
    C           -0.557138413393     0.719754300173     0.399635783939
    H           -1.450556071881     2.059374966462     1.819723688297
    H           -1.582903399100     0.358421399012     2.252483983259
    O            0.113537239570    -0.502217819722     0.445485648190
    H            0.070477004670     1.490115453905    -0.037206603134
    H           -1.453769053282     0.642653587396    -0.214639617876
    C            0.468854137703    -1.125458249720    -0.757025374348
    C            0.907023871966    -0.214447415644    -1.891705971683
    H           -0.340386319649    -1.780355518725    -1.075941205941
    H            1.293590911246    -1.779714364744    -0.502134683309
    H            0.105562702487     0.414851513529    -2.256739482659
    H            1.244673965652    -0.829571843265    -2.717901383835
    H            1.731462144753     0.420010318949    -1.588096585964

  Mulliken Charges: (a.u.)
   Center  Symbol    Alpha    Beta     Spin     Total
       1     H     0.45164  0.45164  0.00000  0.09671
       2     C     3.13631  3.13631  0.00000 -0.27262
       3     C     2.96660  2.96660  0.00000  0.06680
       4     H     0.45953  0.45953  0.00000  0.08094
       5     H     0.45153  0.45153  0.00000  0.09694
       6     O     4.18153  4.18153  0.00000 -0.36307
       7     H     0.46984  0.46984  0.00000  0.06032
       8     H     0.47390  0.47390  0.00000  0.05220
       9     C     2.97680  2.97680  0.00000  0.04641
      10     C     3.16182  3.16182  0.00000 -0.32363
      11     H     0.46692  0.46692  0.00000  0.06616
      12     H     0.45658  0.45658  0.00000  0.08684
      13     H     0.45118  0.45118  0.00000  0.09764
      14     H     0.44596  0.44596  0.00000  0.10808
      15     H     0.44987  0.44987  0.00000  0.10027

   Total alpha = 21.00000, Total beta = 21.00000, Total charge = -0.00000

*** Psi4 exiting successfully. Buy a developer a beer!
