                              Psi4 1.0.54 Driver

  ==> Input File <==

--------------------------------------------------------------------------
set {
	reference rhf
	basis cc-pvtz
}

set_num_threads( 4 )
memory 2 gb

molecule MOL {
0 1

O	 -3.682301	 -0.451496	 -0.166407
C	 -2.664672	 0.129869	 0.003507
C	 -2.580999	 1.610880	 0.256268
O	 -1.481217	 -0.452708	 0.001092
H	 -3.162946	 1.842882	 1.138079
H	 -1.562901	 1.940178	 0.389239
H	 -3.030786	 2.128398	 -0.580357
C	 -0.332055	 0.384012	 -0.000250
C	 0.892252	 -0.506059	 -0.000295
H	 -0.360822	 1.020205	 -0.874146
H	 -0.359817	 1.021310	 0.872861
C	 2.188199	 0.299473	 -0.001416
H	 0.857046	 -1.152781	 -0.871031
H	 0.857910	 -1.151798	 0.871202
C	 3.437151	 -0.577593	 -0.000991
H	 2.209565	 0.950707	 -0.871712
H	 2.210062	 0.952234	 0.867721
C	 4.732399	 0.226982	 -0.000914
H	 3.417321	 -1.229122	 -0.869998
H	 3.416993	 -1.228707	 0.868337
H	 4.797903	 0.863451	 -0.876963
H	 5.598517	 -0.424436	 -0.000420
H	 4.797415	 0.864118	 0.874691

	symmetry c1
}
set optking {
	frozen_dihedral = ("
		1 2 4 8
	")
}

ee,wfn = optimize('scf', return_wfn=True)
oeprop( wfn, 'DIPOLE', 'QUADRUPOLE', 'MULLIKEN_CHARGES')
f=open( 'psi4out.xyz', 'w' )
f.write( "23  " )
f.write( str(ee) + "\n" )
f.write( MOL.save_string_xyz() )
f.close()
--------------------------------------------------------------------------

    Molecular point group: c1
  Charge       = 0
  Multiplicity = 1
  Basis Set: CC-PVTZ
  Basis Set:
  @DF-RHF Final Energy:  -423.10319630454995
    Total Energy =                       -423.1031963045502380
    Molecular point group: c1
  Basis Set: CC-PVTZ
  Basis Set:
  Basis Set: CC-PVTZ
  Basis Set:
  @DF-RHF Final Energy:  -423.04830924543552
    Total Energy =                       -423.0483092454355756
  Basis Set: CC-PVTZ
  Basis Set:
  Basis Set: CC-PVTZ
  Basis Set:
  @DF-RHF Final Energy:  -423.11048384731498
    Total Energy =                       -423.1104838473150949
  Basis Set: CC-PVTZ
  Basis Set:
  Basis Set: CC-PVTZ
  Basis Set:
  @DF-RHF Final Energy:  -423.11753971070630
    Total Energy =                       -423.1175397107066374
  Basis Set: CC-PVTZ
  Basis Set:
  @DF-RHF Final Energy:  -423.11941213334967
    Total Energy =                       -423.1194121333500107
  @DF-RHF Final Energy:  -423.10511496169016
    Total Energy =                       -423.1051149616896510
  @DF-RHF Final Energy:  -423.11908016176301
    Total Energy =                       -423.1190801617628949
  @DF-RHF Final Energy:  -423.11963739331196
    Total Energy =                       -423.1196373933116774
  @DF-RHF Final Energy:  -423.11965581056467
    Total Energy =                       -423.1196558105646091
  @DF-RHF Final Energy:  -423.11986976432570
    Total Energy =                       -423.1198697643258129
  @DF-RHF Final Energy:  -423.12001446288679
    Total Energy =                       -423.1200144628863882
  @DF-RHF Final Energy:  -423.11449562122107
    Total Energy =                       -423.1144956212212946
  @DF-RHF Final Energy:  -423.12094292301373
    Total Energy =                       -423.1209429230135584
  @DF-RHF Final Energy:  -423.11896477448312
    Total Energy =                       -423.1189647744836293
  @DF-RHF Final Energy:  -423.11730392635246
    Total Energy =                       -423.1173039263525197
  @DF-RHF Final Energy:  -423.12171351545561
    Total Energy =                       -423.1217135154552125
  @DF-RHF Final Energy:  -423.12054533484013
    Total Energy =                       -423.1205453348405854
  @DF-RHF Final Energy:  -423.12185959955718
    Total Energy =                       -423.1218595995566147
  Basis Set: CC-PVTZ
  Basis Set:
  @DF-RHF Final Energy:  -423.12192306484042
    Total Energy =                       -423.1219230648406437
  Basis Set: CC-PVTZ
  Basis Set:
  Basis Set: CC-PVTZ
  Basis Set:
  @DF-RHF Final Energy:  -423.12202625816394
    Total Energy =                       -423.1220262581640554
  Basis Set: CC-PVTZ
  Basis Set:
  Basis Set: CC-PVTZ
  Basis Set:
  @DF-RHF Final Energy:  -423.12203799310362
    Total Energy =                       -423.1220379931031630
  Basis Set: CC-PVTZ
  Basis Set:
  Charge       = 0
  Multiplicity = 1
  Basis Set: CC-PVTZ
  Basis Set:

    Orbital Energies (a.u.)
    -----------------------

    Doubly Occupied:

       1A    -20.592268     2A    -20.526061     3A    -11.367482
       4A    -11.294167     5A    -11.239785     6A    -11.227595
       7A    -11.226972     8A    -11.223231     9A    -11.214432
      10A     -1.464665    11A     -1.366122    12A     -1.099202
      13A     -1.037702    14A     -1.016162    15A     -0.944725
      16A     -0.849308    17A     -0.808176    18A     -0.780193
      19A     -0.701892    20A     -0.698002    21A     -0.662822
      22A     -0.651859    23A     -0.610786    24A     -0.597091
      25A     -0.582990    26A     -0.573830    27A     -0.569872
      28A     -0.541768    29A     -0.533637    30A     -0.507030
      31A     -0.500536    32A     -0.482870    33A     -0.476166
      34A     -0.474754    35A     -0.446482    36A     -0.432512

  @DF-RHF Final Energy:  -423.12204034358399

   => Energetics <=

    Nuclear Repulsion Energy =            450.4386219675008078
    One-Electron Energy =               -1468.4750355663102255
    Two-Electron Energy =                 594.9143732552249730
    DFT Exchange-Correlation Energy =       0.0000000000000000
    Empirical Dispersion Energy =           0.0000000000000000
    PCM Polarization Energy =               0.0000000000000000
    EFP Energy =                            0.0000000000000000
    Total Energy =                       -423.1220403435844446
    Molecular point group: c1
  Basis Set: CC-PVTZ
  Basis Set:

  -Total Gradient:
     Atom            X                  Y                   Z
    ------   -----------------  -----------------  -----------------
       1        0.000048361960     0.000402116376    -0.000940387894
       2       -0.000115275545    -0.000417736880     0.000812586114
       3        0.000042722153    -0.000054694931     0.000042634063
       4        0.000034441682    -0.000119280811     0.000982098614
       5       -0.000024819964    -0.000004116346     0.000002841711
       6       -0.000024944505     0.000019652646    -0.000021253921
       7        0.000007135390     0.000004514299    -0.000009505227
       8        0.000009057509     0.000109786123    -0.000871057751
       9        0.000014686444     0.000029736722    -0.000001462008
      10       -0.000007048718     0.000008166075    -0.000005574973
      11        0.000011501541     0.000022053338     0.000001410774
      12        0.000020825355    -0.000022313406     0.000002633528
      13       -0.000011235564     0.000006180127     0.000012027793
      14        0.000000260994     0.000001587837    -0.000004928845
      15       -0.000007834870     0.000020430817    -0.000012139538
      16       -0.000004750647     0.000001524609     0.000000101303
      17        0.000002047735     0.000004670331    -0.000005998485
      18        0.000010154303    -0.000016422274     0.000016805471
      19       -0.000003779743    -0.000004635996     0.000002956319
      20        0.000005745570    -0.000002465833    -0.000002513193
      21       -0.000003161390    -0.000002416643     0.000000117824
      22       -0.000007529826     0.000006916087    -0.000000229736
      23        0.000003440127     0.000006747732    -0.000001161943

  **** Optimization is complete! (in 22 steps) ****
    Final optimized geometry and variables:
    Molecular point group: c1

    Geometry (in Angstrom), charge = 0, multiplicity = 1:

    O           -3.549937530517    -0.907616907468    -0.508900634743
    C           -2.714563762449    -0.169543218957    -0.124131946828
    C           -3.033568789448     1.190284500324     0.447169679596
    O           -1.440536412535    -0.543888849622    -0.175628229804
    H           -4.102139377620     1.321825665161     0.419676791146
    H           -2.685928315354     1.264961744680     1.469846186528
    H           -2.557888021464     1.976704742138    -0.124328693899
    C           -0.362016950360     0.335314661103     0.066508267450
    C            0.921015434436    -0.454958752013    -0.088235897750
    H           -0.387531168296     1.153911434538    -0.643648828309
    H           -0.430193179368     0.749469563118     1.065343211599
    C            2.161503391046     0.401503806073     0.146995094175
    H            0.944793622925    -0.883538358423    -1.084041560261
    H            0.901659903413    -1.285395925247     0.609189423108
    C            3.463139168561    -0.380568130571    -0.005721984525
    H            2.164432628397     1.237066496843    -0.549162665314
    H            2.121495602137     0.835055489408     1.143648009820
    C            4.704208251441     0.473405245091     0.229309510099
    H            3.505546969083    -0.813116789444    -1.001104898872
    H            3.462344236263    -1.215321199295     0.689231834645
    H            4.751345468619     1.298045189552    -0.474113715480
    H            5.609137035867    -0.111338596671     0.113451489992
    H            4.707640825013     0.892877713469     1.229871708759

  Mulliken Charges: (a.u.)
   Center  Symbol    Alpha    Beta     Spin     Total
       1     O     4.18227  4.18227  0.00000 -0.36453
       2     C     2.82237  2.82237  0.00000  0.35526
       3     C     3.16815  3.16815  0.00000 -0.33629
       4     O     4.12541  4.12541  0.00000 -0.25083
       5     H     0.42527  0.42527  0.00000  0.14946
       6     H     0.44538  0.44538  0.00000  0.10924
       7     H     0.44748  0.44748  0.00000  0.10505
       8     C     2.98455  2.98455  0.00000  0.03090
       9     C     3.08059  3.08059  0.00000 -0.16117
      10     H     0.46068  0.46068  0.00000  0.07864
      11     H     0.46206  0.46206  0.00000  0.07587
      12     C     3.09932  3.09932  0.00000 -0.19864
      13     H     0.44546  0.44546  0.00000  0.10909
      14     H     0.44662  0.44662  0.00000  0.10676
      15     C     3.08591  3.08591  0.00000 -0.17182
      16     H     0.45411  0.45411  0.00000  0.09177
      17     H     0.45449  0.45449  0.00000  0.09102
      18     C     3.14942  3.14942  0.00000 -0.29884
      19     H     0.45185  0.45185  0.00000  0.09631
      20     H     0.45213  0.45213  0.00000  0.09573
      21     H     0.45484  0.45484  0.00000  0.09032
      22     H     0.44667  0.44667  0.00000  0.10666
      23     H     0.45498  0.45498  0.00000  0.09003

   Total alpha = 36.00000, Total beta = 36.00000, Total charge =  0.00000

*** Psi4 exiting successfully. Buy a developer a beer!
