                              Psi4 1.0.54 Driver

  ==> Input File <==

--------------------------------------------------------------------------
set {
	reference rhf
	basis cc-pvtz
}

set_num_threads( 4 )
memory 2 gb

molecule MOL {
0 1

H	 -2.816458	 -0.841657	 -0.064679
N	 -1.878861	 -0.711874	 0.250184
C	 -1.341419	 0.551458	 -0.220231
H	 -1.333674	 -1.468530	 -0.105118
C	 0.082190	 0.731516	 0.254705
H	 -1.357065	 0.652078	 -1.304747
H	 -1.939897	 1.357530	 0.189797
O	 0.881195	 -0.248324	 -0.336237
H	 0.440901	 1.722476	 -0.020063
H	 0.119896	 0.643586	 1.338114
C	 2.246129	 -0.064225	 -0.156562
H	 2.759254	 -0.873833	 -0.655183
H	 2.580272	 0.877918	 -0.585991
H	 2.513816	 -0.075811	 0.897370

	symmetry c1
}
set optking {
	frozen_dihedral = ("
		11 8 5 3
	")
}

ee,wfn = optimize('scf', return_wfn=True)
oeprop( wfn, 'DIPOLE', 'QUADRUPOLE', 'MULLIKEN_CHARGES')
f=open( 'psi4out.xyz', 'w' )
f.write( "14  " )
f.write( str(ee) + "\n" )
f.write( MOL.save_string_xyz() )
f.close()
--------------------------------------------------------------------------

    Molecular point group: c1
  Charge       = 0
  Multiplicity = 1
  Basis Set: CC-PVTZ
  Basis Set:
  @DF-RHF Final Energy:  -248.22576606315513
    Total Energy =                       -248.2257660631551062
    Molecular point group: c1
  Basis Set: CC-PVTZ
  Basis Set:
  Basis Set: CC-PVTZ
  Basis Set:
  @DF-RHF Final Energy:  -248.22578194456813
    Total Energy =                       -248.2257819445683253
  Basis Set: CC-PVTZ
  Basis Set:
  Charge       = 0
  Multiplicity = 1
  Basis Set: CC-PVTZ
  Basis Set:

    Orbital Energies (a.u.)
    -----------------------

    Doubly Occupied:

       1A    -20.550625     2A    -15.523260     3A    -11.264071
       4A    -11.264044     5A    -11.239912     6A     -1.384524
       7A     -1.175707     8A     -1.000591     9A     -0.908275
      10A     -0.815518    11A     -0.684399    12A     -0.677392
      13A     -0.647040    14A     -0.610541    15A     -0.609346
      16A     -0.542412    17A     -0.531017    18A     -0.497939
      19A     -0.474494    20A     -0.419819    21A     -0.383569

  @DF-RHF Final Energy:  -248.22578325374079

   => Energetics <=

    Nuclear Repulsion Energy =            194.5164199623315824
    One-Electron Energy =                -723.0754165212906628
    Two-Electron Energy =                 280.3332133052183508
    DFT Exchange-Correlation Energy =       0.0000000000000000
    Empirical Dispersion Energy =           0.0000000000000000
    PCM Polarization Energy =               0.0000000000000000
    EFP Energy =                            0.0000000000000000
    Total Energy =                       -248.2257832537407012
    Molecular point group: c1
  Basis Set: CC-PVTZ
  Basis Set:

  -Total Gradient:
     Atom            X                  Y                   Z
    ------   -----------------  -----------------  -----------------
       1       -0.000021626096    -0.000028736355     0.000009438495
       2       -0.000051840501    -0.000050869561     0.000017429547
       3        0.000318553980     0.000826799410    -0.001060593330
       4       -0.000005900945     0.000000222293    -0.000004873769
       5       -0.000247137499    -0.000654917342     0.000858741679
       6        0.000000065550     0.000009279755     0.000004665336
       7        0.000009034742    -0.000023338628     0.000009007264
       8       -0.000036650958    -0.000869168087     0.001406589663
       9       -0.000013648597    -0.000004185201    -0.000004877884
      10        0.000013435812    -0.000016080641    -0.000010291232
      11        0.000068012767     0.000828399501    -0.001217346804
      12       -0.000033108582    -0.000008677036     0.000002214551
      13        0.000001060335     0.000001457668    -0.000002555687
      14       -0.000000250009    -0.000010185779    -0.000007547829

  **** Optimization is complete! (in 3 steps) ****
    Final optimized geometry and variables:
    Molecular point group: c1

    Geometry (in Angstrom), charge = 0, multiplicity = 1:

    H           -2.821828462351    -0.882870132273    -0.019586640234
    N           -1.886315681171    -0.748897995128     0.299683687415
    C           -1.350546740676     0.515661442980    -0.169747329080
    H           -1.336790672339    -1.504938369925    -0.050292311017
    C            0.074013738673     0.698333046526     0.301764443595
    H           -1.366470464291     0.617459193758    -1.254099966807
    H           -1.949915799965     1.320258045221     0.242092542510
    O            0.872861303692    -0.284436733704    -0.285329443654
    H            0.425858820167     1.687525675057     0.012701772962
    H            0.121329300038     0.622974441404     1.385623325479
    C            2.238399247339    -0.101598706984    -0.110430745082
    H            2.748125738049    -0.920410992806    -0.597316908846
    H            2.573042727122     0.833195156383    -0.554564944716
    H            2.510060695131    -0.098630593676     0.942893134535

  Mulliken Charges: (a.u.)
   Center  Symbol    Alpha    Beta     Spin     Total
       1     H     0.43039  0.43039  0.00000  0.13922
       2     N     3.69383  3.69383  0.00000 -0.38765
       3     C     3.02117  3.02117  0.00000 -0.04235
       4     H     0.42235  0.42235  0.00000  0.15530
       5     C     2.96833  2.96833  0.00000  0.06334
       6     H     0.46549  0.46549  0.00000  0.06902
       7     H     0.45926  0.45926  0.00000  0.08148
       8     O     4.17964  4.17964  0.00000 -0.35928
       9     H     0.47230  0.47230  0.00000  0.05540
      10     H     0.46661  0.46661  0.00000  0.06678
      11     C     3.03127  3.03127  0.00000 -0.06255
      12     H     0.44781  0.44781  0.00000  0.10439
      13     H     0.47088  0.47088  0.00000  0.05824
      14     H     0.47066  0.47066  0.00000  0.05868

   Total alpha = 21.00000, Total beta = 21.00000, Total charge =  0.00000

*** Psi4 exiting successfully. Buy a developer a beer!
