  ==> Input File <==

--------------------------------------------------------------------------
set {
	reference rhf
	basis 6-31G*
}

set_num_threads( 1 )
memory 2 gb

molecule MOL {
0 1

H	 -0.832346	 -1.188146	 -0.821264
N	 -0.626943	 -0.667432	 -0.000092
C	 -1.513373	 -0.800925	 1.133547
C	 0.469286	 0.129090	 0.000148
H	 -2.521161	 -0.491695	 0.877137
H	 -1.144580	 -0.169944	 1.925748
H	 -1.543021	 -1.826781	 1.485361
C	 1.788933	 -0.616240	 -0.000037
O	 0.411098	 1.327768	 -0.000049
H	 1.872803	 -1.245775	 -0.880381
H	 2.595421	 0.101576	 0.003713
H	 1.870096	 -1.252171	 0.875943

	symmetry c1
}
set optking {
	frozen_dihedral = ("
		4 2 3 5
	")
}

ee = energy('scf')
oeprop('DIPOLE', 'QUADRUPOLE', 'MULLIKEN_CHARGES')
f=open( 'psi4out.xyz', 'w' )
f.write( "12  " )
f.write( str(ee) + "\n" )
f.write( MOL.save_string_xyz() )
f.close()
--------------------------------------------------------------------------

    Molecular point group: c1

    Geometry (in Angstrom), charge = 0, multiplicity = 1:

       Center              X                  Y                   Z               Mass
    ------------   -----------------  -----------------  -----------------  -----------------
           H         -0.928633087679    -1.055557986854    -1.055275742170     1.007825032070
           N         -0.723230087679    -0.534843986854    -0.234103742170    14.003074004780
           C         -1.609660087679    -0.668336986854     0.899535257830    12.000000000000
           C          0.372998912321     0.261678013146    -0.233863742170    12.000000000000
           H         -2.617448087679    -0.359106986854     0.643125257830     1.007825032070
           H         -1.240867087679    -0.037355986854     1.691736257830     1.007825032070
           H         -1.639308087679    -1.694192986854     1.251349257830     1.007825032070
           C          1.692645912321    -0.483651986854    -0.234048742170    12.000000000000
           O          0.314810912321     1.460356013146    -0.234060742170    15.994914619560
           H          1.776515912321    -1.113186986854    -1.114392742170     1.007825032070
           H          2.499133912321     0.234164013146    -0.230298742170     1.007825032070
           H          1.773808912321    -1.119582986854     0.641931257830     1.007825032070

  Charge       = 0
  Multiplicity = 1
  Basis Set: 6-31G*
  Basis Set:

    Orbital Energies (a.u.)
    -----------------------

    Doubly Occupied:

       1A    -20.543150     2A    -15.549285     3A    -11.347252
       4A    -11.259941     5A    -11.224657     6A     -1.395899
       7A     -1.220096     8A     -1.007225     9A     -0.934943
      10A     -0.782144    11A     -0.684708    12A     -0.646197
      13A     -0.642098    14A     -0.588121    15A     -0.581311
      16A     -0.562896    17A     -0.548785    18A     -0.489265
      19A     -0.424283    20A     -0.370202

  @DF-RHF Final Energy:  -246.96862928976907

   => Energetics <=

    Nuclear Repulsion Energy =            180.8892585863565046
    One-Electron Energy =                -694.1108799291148443
    Two-Electron Energy =                 266.2529920529894412
    DFT Exchange-Correlation Energy =       0.0000000000000000
    Empirical Dispersion Energy =           0.0000000000000000
    PCM Polarization Energy =               0.0000000000000000
    EFP Energy =                            0.0000000000000000
    Total Energy =                       -246.9686292897688986

  Mulliken Charges: (a.u.)
   Center  Symbol    Alpha    Beta     Spin     Total
       1     H     0.31047  0.31047  0.00000  0.37905
       2     N     3.90281  3.90281  0.00000 -0.80563
       3     C     3.13103  3.13103  0.00000 -0.26206
       4     C     2.65948  2.65948  0.00000  0.68105
       5     H     0.41385  0.41385  0.00000  0.17229
       6     H     0.40697  0.40697  0.00000  0.18607
       7     H     0.41948  0.41948  0.00000  0.16104
       8     C     3.27804  3.27804  0.00000 -0.55608
       9     O     4.25654  4.25654  0.00000 -0.51308
      10     H     0.41224  0.41224  0.00000  0.17553
      11     H     0.40146  0.40146  0.00000  0.19708
      12     H     0.40762  0.40762  0.00000  0.18475

   Total alpha = 20.00000, Total beta = 20.00000, Total charge =  0.00000
