  ==> Input File <==

--------------------------------------------------------------------------
set {
	reference rhf
	basis cc-pvtz
}

set_num_threads( 4 )
memory 2 gb

molecule MOL {
0 1

H	 1.436497	 -1.413834	 -0.575642
O	 1.583947	 -0.677544	 -0.001533
C	 0.489979	 0.078084	 0.002623
C	 -0.763662	 -0.754014	 0.000816
O	 0.539051	 1.259395	 -0.000088
C	 -2.038001	 0.074705	 -0.000833
H	 -0.712945	 -1.405886	 -0.864342
H	 -0.715137	 -1.405770	 0.866182
H	 -2.087267	 0.710831	 -0.874232
H	 -2.903419	 -0.576199	 -0.001922
H	 -2.089467	 0.710909	 0.872389

	symmetry c1
}
set optking {
	frozen_dihedral = ("
		1 2 3 5
	")
}

ee = optimize('scf')
oeprop('DIPOLE', 'QUADRUPOLE', 'MULLIKEN_CHARGES')
f=open( 'psi4out.xyz', 'w' )
f.write( "11  " )
f.write( str(ee) + "\n" )
f.write( MOL.save_string_xyz() )
f.close()
--------------------------------------------------------------------------

    Molecular point group: c1
  Charge       = 0
  Multiplicity = 1
  Basis Set: CC-PVTZ
  Basis Set:
  @DF-RHF Final Energy:  -266.93776593208599
    Total Energy =                       -266.9377659320860516
    Molecular point group: c1
  Basis Set: CC-PVTZ
  Basis Set:
  Basis Set: CC-PVTZ
  Basis Set:
  @DF-RHF Final Energy:  -266.93906381222621
    Total Energy =                       -266.9390638122259816
  Basis Set: CC-PVTZ
  Basis Set:
  Basis Set: CC-PVTZ
  Basis Set:
  @DF-RHF Final Energy:  -266.93915716694130
    Total Energy =                       -266.9391571669414134
  Basis Set: CC-PVTZ
  Basis Set:
  Basis Set: CC-PVTZ
  Basis Set:
  @DF-RHF Final Energy:  -266.93906375381357
    Total Energy =                       -266.9390637538135707
  Basis Set: CC-PVTZ
  Basis Set:
  Basis Set: CC-PVTZ
  Basis Set:
  @DF-RHF Final Energy:  -266.93919657789343
    Total Energy =                       -266.9391965778936537
  Basis Set: CC-PVTZ
  Basis Set:
  Charge       = 0
  Multiplicity = 1
  Basis Set: CC-PVTZ
  Basis Set:

    Orbital Energies (a.u.)
    -----------------------

    Doubly Occupied:

       1A    -20.598297     2A    -20.543235     3A    -11.374175
       4A    -11.251671     5A    -11.223446     6A     -1.468880
       7A     -1.374501     8A     -1.068587     9A     -0.909455
      10A     -0.825944    11A     -0.719034    12A     -0.671670
      13A     -0.662005    14A     -0.617471    15A     -0.585538
      16A     -0.534151    17A     -0.525934    18A     -0.511580
      19A     -0.487399    20A     -0.447291

  @DF-RHF Final Energy:  -266.93919756485900

   => Energetics <=

    Nuclear Repulsion Energy =            179.8207831892063666
    One-Electron Energy =                -720.7194429581761597
    Two-Electron Energy =                 273.9594622041108778
    DFT Exchange-Correlation Energy =       0.0000000000000000
    Empirical Dispersion Energy =           0.0000000000000000
    PCM Polarization Energy =               0.0000000000000000
    EFP Energy =                            0.0000000000000000
    Total Energy =                       -266.9391975648588868
    Molecular point group: c1
  Basis Set: CC-PVTZ
  Basis Set:

  -Total Gradient:
     Atom            X                  Y                   Z
    ------   -----------------  -----------------  -----------------
       1        0.002334367050     0.003810826553    -0.005230488053
       2       -0.003097570831    -0.004681699434     0.003986915119
       3        0.000827193637     0.000741573359     0.007154118442
       4        0.000011029036     0.000014903281     0.000082551992
       5       -0.000055949401     0.000124772542    -0.005945214930
       6       -0.000001245005     0.000011468386    -0.000017929490
       7        0.000008533288     0.000007425709    -0.000025095697
       8       -0.000018267033    -0.000015337484    -0.000022904560
       9        0.000007719759    -0.000007934945     0.000015940730
      10       -0.000014057971    -0.000004212794     0.000005539114
      11       -0.000001752526    -0.000001785169    -0.000003432669

  **** Optimization is complete! (in 6 steps) ****
    Final optimized geometry and variables:
    Molecular point group: c1

    Geometry (in Angstrom), charge = 0, multiplicity = 1:

    H            1.564938573500    -1.386236378480    -0.580753252065
    O            1.632410612980    -0.640143911484    -0.010198762847
    C            0.498787854520     0.082352966234     0.008732945012
    C           -0.770872809763    -0.737101627544     0.012068708151
    O            0.539541316574     1.256171899438     0.023600112921
    C           -2.036943129409     0.104191595499     0.006202677352
    H           -0.744425019515    -1.397010309341    -0.851887838423
    H           -0.731937528959    -1.383774937956     0.882472398723
    H           -2.078949878041     0.735906908627    -0.870653276980
    H           -2.910359877567    -0.536145725752     0.011034505650
    H           -2.076517708320     0.745837896784     0.875562375145

  Mulliken Charges: (a.u.)
   Center  Symbol    Alpha    Beta     Spin     Total
       1     H     0.38813  0.38813  0.00000  0.22373
       2     O     4.15524  4.15524  0.00000 -0.31048
       3     C     2.80641  2.80641  0.00000  0.38718
       4     C     3.11023  3.11023  0.00000 -0.22045
       5     O     4.16789  4.16789  0.00000 -0.33579
       6     C     3.14000  3.14000  0.00000 -0.28000
       7     H     0.45333  0.45333  0.00000  0.09333
       8     H     0.43703  0.43703  0.00000  0.12593
       9     H     0.44693  0.44693  0.00000  0.10614
      10     H     0.45033  0.45033  0.00000  0.09934
      11     H     0.44447  0.44447  0.00000  0.11106

   Total alpha = 20.00000, Total beta = 20.00000, Total charge = -0.00000
