  ==> Input File <==

--------------------------------------------------------------------------
set {
	reference rhf
	basis 6-31G*
}

set_num_threads( 4 )
memory 2 gb

molecule MOL {
0 1

H	 -0.314752	 3.001425	 -0.790005
C	 0.411227	 2.338203	 -0.303388
C	 0.065331	 0.871482	 -0.349150
O	 1.385684	 2.789984	 0.204596
C	 -1.339775	 0.583656	 0.198860
H	 0.824100	 0.323952	 0.198021
H	 0.114241	 0.561320	 -1.392015
C	 -1.808407	 -0.848507	 -0.061364
H	 -2.036183	 1.280685	 -0.256307
H	 -1.360094	 0.788874	 1.267089
H	 -1.828843	 -1.063152	 -1.125336
H	 -2.808409	 -1.004529	 0.329750
H	 -1.153967	 -1.577789	 0.406873

	symmetry c1
}
set optking {
	frozen_dihedral = ("
		6 3 5 9
	")
}

ee = optimize('scf')
oeprop('DIPOLE', 'QUADRUPOLE', 'MULLIKEN_CHARGES')
f=open( 'psi4out.xyz', 'w' )
f.write( "13  " )
f.write( str(ee) + "\n" )
f.write( MOL.save_string_xyz() )
f.close()
--------------------------------------------------------------------------

    Molecular point group: c1
  Charge       = 0
  Multiplicity = 1
  Basis Set: 6-31G*
  Basis Set:
  @DF-RHF Final Energy:  -230.98479683634449
    Total Energy =                       -230.9847968363444011
    Molecular point group: c1
  Basis Set: 6-31G*
  Basis Set:
  Basis Set: 6-31G*
  Basis Set:
  @DF-RHF Final Energy:  -230.98488968281902
    Total Energy =                       -230.9848896828191300
  Basis Set: 6-31G*
  Basis Set:
  Basis Set: 6-31G*
  Basis Set:
  @DF-RHF Final Energy:  -230.98406905125731
    Total Energy =                       -230.9840690512573076
  Basis Set: 6-31G*
  Basis Set:
  Basis Set: 6-31G*
  Basis Set:
  @DF-RHF Final Energy:  -230.98491953400642
    Total Energy =                       -230.9849195340065364
  Basis Set: 6-31G*
  Basis Set:
  Basis Set: 6-31G*
  Basis Set:
  @DF-RHF Final Energy:  -230.98492358561944
    Total Energy =                       -230.9849235856193275
  Basis Set: 6-31G*
  Basis Set:
  Basis Set: 6-31G*
  Basis Set:
  @DF-RHF Final Energy:  -230.98492554865896
    Total Energy =                       -230.9849255486590209
  Basis Set: 6-31G*
  Basis Set:
  Basis Set: 6-31G*
  Basis Set:
  @DF-RHF Final Energy:  -230.98492667299769
    Total Energy =                       -230.9849266729976023
  Basis Set: 6-31G*
  Basis Set:
  Charge       = 0
  Multiplicity = 1
  Basis Set: 6-31G*
  Basis Set:

    Orbital Energies (a.u.)
    -----------------------

    Doubly Occupied:

       1A    -20.563141     2A    -11.326996     3A    -11.239333
       4A    -11.235844     5A    -11.224061     6A     -1.402932
       7A     -1.087148     8A     -0.976521     9A     -0.840236
      10A     -0.794159    11A     -0.677959    12A     -0.641880
      13A     -0.628770    14A     -0.588809    15A     -0.558726
      16A     -0.530840    17A     -0.515564    18A     -0.491594
      19A     -0.483641    20A     -0.410566

  @DF-RHF Final Energy:  -230.98492675911382

   => Energetics <=

    Nuclear Repulsion Energy =            170.4504623131632570
    One-Electron Energy =                -650.4333423823675275
    Two-Electron Energy =                 248.9979533100903950
    DFT Exchange-Correlation Energy =       0.0000000000000000
    Empirical Dispersion Energy =           0.0000000000000000
    PCM Polarization Energy =               0.0000000000000000
    EFP Energy =                            0.0000000000000000
    Total Energy =                       -230.9849267591138755
    Molecular point group: c1
  Basis Set: 6-31G*
  Basis Set:

  -Total Gradient:
     Atom            X                  Y                   Z
    ------   -----------------  -----------------  -----------------
       1       -0.000000577109     0.000005224737    -0.000004700981
       2       -0.000022838858    -0.000000337420    -0.000009598745
       3       -0.000103527860    -0.001116739488    -0.000845977332
       4        0.000008239950    -0.000010805561     0.000003506678
       5       -0.000245391954    -0.000811768174    -0.001019312961
       6        0.000138989353     0.001049790167     0.000871652867
       7       -0.000001909431     0.000004988229     0.000002249947
       8        0.000004672593    -0.000001545441    -0.000003355566
       9        0.000222630854     0.000877591995     0.001005358747
      10       -0.000000737759    -0.000002782163    -0.000001665238
      11        0.000000729518     0.000002506014     0.000000941172
      12       -0.000000649919     0.000000377307     0.000000585163
      13        0.000000370613     0.000003499798     0.000000316250

  **** Optimization is complete! (in 8 steps) ****
    Final optimized geometry and variables:
    Molecular point group: c1

    Geometry (in Angstrom), charge = 0, multiplicity = 1:

    H           -0.014381409768     1.864425944473    -0.772849409512
    C            0.676191805261     1.192452469055    -0.249169705875
    C            0.323427654169    -0.271499603911    -0.318975154131
    O            1.620244250110     1.633579215273     0.321873124659
    C           -1.081985135336    -0.546131088523     0.233927192439
    H            1.077071464987    -0.822365325861     0.231374735891
    H            0.369817463562    -0.575149166182    -1.363972829235
    C           -1.538612235594    -1.983154003979    -0.008441671335
    H           -1.792493145077     0.145754611636    -0.213160746949
    H           -1.087939463408    -0.337285368904     1.300364404614
    H           -1.584546014260    -2.205690032621    -1.070411645761
    H           -2.525005439464    -2.153360189629     0.410151146698
    H           -0.856269195803    -2.692281780914     0.450130323516

  Mulliken Charges: (a.u.)
   Center  Symbol    Alpha    Beta     Spin     Total
       1     H     0.43208  0.43208  0.00000  0.13584
       2     C     2.83088  2.83088  0.00000  0.33824
       3     C     3.20636  3.20636  0.00000 -0.41272
       4     O     4.23655  4.23655  0.00000 -0.47310
       5     C     3.16515  3.16515  0.00000 -0.33031
       6     H     0.39916  0.39916  0.00000  0.20167
       7     H     0.41021  0.41021  0.00000  0.17958
       8     C     3.23931  3.23931  0.00000 -0.47863
       9     H     0.41823  0.41823  0.00000  0.16353
      10     H     0.41123  0.41123  0.00000  0.17754
      11     H     0.41933  0.41933  0.00000  0.16134
      12     H     0.41465  0.41465  0.00000  0.17069
      13     H     0.41684  0.41684  0.00000  0.16631

   Total alpha = 20.00000, Total beta = 20.00000, Total charge =  0.00000
