                              Psi4 1.0.54 Driver

  ==> Input File <==

--------------------------------------------------------------------------
set {
	reference rhf
	basis cc-pvtz
}

set_num_threads( 4 )
memory 2 gb

molecule MOL {
0 1

H	 -2.149496	 -2.244167	 0.000000
O	 -2.454378	 -1.354528	 0.000000
C	 -1.430628	 -0.482077	 0.000000
C	 -0.145388	 -1.004407	 -0.000000
C	 -1.618925	 0.883853	 0.000000
H	 -0.020093	 -2.068987	 -0.000000
C	 0.940080	 -0.158493	 -0.000000
H	 -2.607654	 1.301420	 0.000000
C	 -0.513176	 1.723466	 0.000000
H	 1.930356	 -0.570426	 -0.000000
C	 0.770197	 1.215140	 -0.000000
C	 -0.719407	 3.151324	 0.000000
H	 1.613123	 1.875784	 -0.000000
N	 -0.884285	 4.267343	 0.000000

	symmetry c1
}
set optking {
	frozen_dihedral = ("
		5 3 2 1
	")
}

ee,wfn = optimize('scf', return_wfn=True)
oeprop( wfn, 'DIPOLE', 'QUADRUPOLE', 'MULLIKEN_CHARGES')
f=open( 'psi4out.xyz', 'w' )
f.write( "14  " )
f.write( str(ee) + "\n" )
f.write( MOL.save_string_xyz() )
f.close()
--------------------------------------------------------------------------

    Molecular point group: c1
  Charge       = 0
  Multiplicity = 1
  Basis Set: CC-PVTZ
  Basis Set:
  @DF-RHF Final Energy:  -397.43033688226194
    Total Energy =                       -397.4303368822618268
    Molecular point group: c1
  Basis Set: CC-PVTZ
  Basis Set:
  Basis Set: CC-PVTZ
  Basis Set:
  @DF-RHF Final Energy:  -397.43245098823957
    Total Energy =                       -397.4324509882400207
  Basis Set: CC-PVTZ
  Basis Set:
  Basis Set: CC-PVTZ
  Basis Set:
  @DF-RHF Final Energy:  -397.43263363806233
    Total Energy =                       -397.4326336380620432
  Basis Set: CC-PVTZ
  Basis Set:
  Basis Set: CC-PVTZ
  Basis Set:
  @DF-RHF Final Energy:  -397.43266484225740
    Total Energy =                       -397.4326648422573953
  Basis Set: CC-PVTZ
  Basis Set:
  Charge       = 0
  Multiplicity = 1
  Basis Set: CC-PVTZ
  Basis Set:

    Orbital Energies (a.u.)
    -----------------------

    Doubly Occupied:

       1A    -20.607190     2A    -15.563545     3A    -11.325167
       4A    -11.291625     5A    -11.266801     6A    -11.262083
       7A    -11.256799     8A    -11.256472     9A    -11.254862
      10A     -1.439724    11A     -1.236486    12A     -1.186654
      13A     -1.066329    14A     -1.043510    15A     -0.903065
      16A     -0.861655    17A     -0.799480    18A     -0.718282
      19A     -0.695905    20A     -0.675197    21A     -0.631146
      22A     -0.621028    23A     -0.600418    24A     -0.567610
      25A     -0.551089    26A     -0.543736    27A     -0.529226
      28A     -0.479675    29A     -0.477573    30A     -0.367482
      31A     -0.341704

  @DF-RHF Final Energy:  -397.43267040943414

   => Energetics <=

    Nuclear Repulsion Energy =            380.5228037914287711
    One-Electron Energy =               -1293.0679164707175914
    Two-Electron Energy =                 515.1124422698549097
    DFT Exchange-Correlation Energy =       0.0000000000000000
    Empirical Dispersion Energy =           0.0000000000000000
    PCM Polarization Energy =               0.0000000000000000
    EFP Energy =                            0.0000000000000000
    Total Energy =                       -397.4326704094339675
    Molecular point group: c1
  Basis Set: CC-PVTZ
  Basis Set:

  -Total Gradient:
     Atom            X                  Y                   Z
    ------   -----------------  -----------------  -----------------
       1       -0.000037377182    -0.000017006739     0.000000009569
       2        0.000014161666    -0.000033264317     0.000000155171
       3       -0.000029292977     0.000056254901     0.000000028580
       4        0.000019654661    -0.000040413731     0.000000030602
       5       -0.000023166130     0.000087177728    -0.000000380718
       6        0.000015359344     0.000030944850     0.000000080197
       7       -0.000032614583    -0.000071667134    -0.000000485795
       8       -0.000013368325    -0.000067918565     0.000000159817
       9        0.000131587067    -0.000025126685    -0.000000400162
      10        0.000034840085     0.000033096770     0.000000150008
      11       -0.000126807208     0.000104426090     0.000000342630
      12        0.000062152549     0.000015999550     0.000000272007
      13        0.000038782882    -0.000056835925     0.000000074570
      14       -0.000053911852    -0.000015666797    -0.000000036477

  **** Optimization is complete! (in 5 steps) ****
    Final optimized geometry and variables:
    Molecular point group: c1

    Geometry (in Angstrom), charge = 0, multiplicity = 1:

    H           -1.544735015536    -3.044264502461     0.000006064933
    O           -1.778146654268    -2.133380845971     0.000003843900
    C           -0.687230567806    -1.346949657403    -0.000001779548
    C            0.599798850490    -1.853262515599    -0.000001415543
    C           -0.891389925709     0.021069964330    -0.000005523943
    H            0.758121327587    -2.916044102638     0.000002254794
    C            1.681748226278    -0.993022271824    -0.000002308664
    H           -1.890593150271     0.406627925836    -0.000003087844
    C            0.201095536200     0.866963843131    -0.000003933992
    H            2.675738606719    -1.395961382559     0.000001540076
    C            1.496535948428     0.372023287529    -0.000000714480
    C           -0.014871033721     2.293958672027     0.000002054946
    H            2.331320072751     1.042878190263     0.000003278532
    N           -0.181033357362     3.409740824621     0.000006558754

  Mulliken Charges: (a.u.)
   Center  Symbol    Alpha    Beta     Spin     Total
       1     H     0.38572  0.38572  0.00000  0.22856
       2     O     4.16829  4.16829  0.00000 -0.33658
       3     C     2.83975  2.83975  0.00000  0.32049
       4     C     3.13151  3.13151  0.00000 -0.26302
       5     C     3.12254  3.12254  0.00000 -0.24509
       6     H     0.42959  0.42959  0.00000  0.14082
       7     C     3.05638  3.05638  0.00000 -0.11276
       8     H     0.40976  0.40976  0.00000  0.18047
       9     C     2.92031  2.92031  0.00000  0.15938
      10     H     0.41670  0.41670  0.00000  0.16661
      11     C     3.10652  3.10652  0.00000 -0.21303
      12     C     3.02413  3.02413  0.00000 -0.04826
      13     H     0.41457  0.41457  0.00000  0.17086
      14     N     3.57423  3.57423  0.00000 -0.14846

   Total alpha = 31.00000, Total beta = 31.00000, Total charge =  0.00000

*** Psi4 exiting successfully. Buy a developer a beer!
