  ==> Input File <==

--------------------------------------------------------------------------
set {
	reference rhf
	basis 6-31G*
}

set_num_threads( 1 )
memory 2 gb

molecule MOL {
0 1

H	 2.176868	 -0.646004	 -0.217325
O	 1.337496	 -0.537251	 0.205931
C	 0.702312	 0.627605	 -0.264544
C	 -0.714990	 0.596302	 0.266387
H	 0.682322	 0.642550	 -1.350929
H	 1.215941	 1.520383	 0.085680
O	 -1.405996	 -0.526611	 -0.195820
H	 -1.257453	 1.468809	 -0.075599
H	 -0.688972	 0.618407	 1.353696
H	 -0.939345	 -1.296348	 0.103774

	symmetry c1
}
set optking {
	frozen_dihedral = ("
		5 3 4 7
	")
}

ee = energy('scf')
oeprop('DIPOLE', 'QUADRUPOLE', 'MULLIKEN_CHARGES')
f=open( 'psi4out.xyz', 'w' )
f.write( "10  " )
f.write( str(ee) + "\n" )
f.write( MOL.save_string_xyz() )
f.close()
--------------------------------------------------------------------------

    Molecular point group: c1

    Geometry (in Angstrom), charge = 0, multiplicity = 1:

       Center              X                  Y                   Z               Mass
    ------------   -----------------  -----------------  -----------------  -----------------
           H          2.177659786162    -0.645945288515    -0.218652431538     1.007825032070
           O          1.338287786162    -0.537192288515     0.204603568462    15.994914619560
           C          0.703103786162     0.627663711485    -0.265871431538    12.000000000000
           C         -0.714198213838     0.596360711485     0.265059568462    12.000000000000
           H          0.683113786162     0.642608711485    -1.352256431538     1.007825032070
           H          1.216732786162     1.520441711485     0.084352568462     1.007825032070
           O         -1.405204213838    -0.526552288515    -0.197147431538    15.994914619560
           H         -1.256661213838     1.468867711485    -0.076926431538     1.007825032070
           H         -0.688180213838     0.618465711485     1.352368568462     1.007825032070
           H         -0.938553213838    -1.296289288515     0.102446568462     1.007825032070

  Charge       = 0
  Multiplicity = 1
  Basis Set: 6-31G*
  Basis Set:

    Orbital Energies (a.u.)
    -----------------------

    Doubly Occupied:

       1A    -20.568078     2A    -20.548584     3A    -11.275085
       4A    -11.268164     5A     -1.381146     6A     -1.350430
       7A     -1.001593     8A     -0.842090     9A     -0.727986
      10A     -0.680637    11A     -0.645490    12A     -0.602935
      13A     -0.575054    14A     -0.528574    15A     -0.491043
      16A     -0.452810    17A     -0.432148

  @DF-RHF Final Energy:  -228.92545359860156

   => Energetics <=

    Nuclear Repulsion Energy =            134.5701693650741504
    One-Electron Energy =                -580.2476257977285741
    Two-Electron Energy =                 216.7520028340527176
    DFT Exchange-Correlation Energy =       0.0000000000000000
    Empirical Dispersion Energy =           0.0000000000000000
    PCM Polarization Energy =               0.0000000000000000
    EFP Energy =                            0.0000000000000000
    Total Energy =                       -228.9254535986017061

  Mulliken Charges: (a.u.)
   Center  Symbol    Alpha    Beta     Spin     Total
       1     H     0.27658  0.27658  0.00000  0.44684
       2     O     4.37780  4.37780  0.00000 -0.75559
       3     C     3.00943  3.00943  0.00000 -0.01886
       4     C     2.99934  2.99934  0.00000  0.00131
       5     H     0.42287  0.42287  0.00000  0.15426
       6     H     0.42910  0.42910  0.00000  0.14181
       7     O     4.37151  4.37151  0.00000 -0.74301
       8     H     0.41662  0.41662  0.00000  0.16676
       9     H     0.42369  0.42369  0.00000  0.15262
      10     H     0.27307  0.27307  0.00000  0.45386

   Total alpha = 17.00000, Total beta = 17.00000, Total charge = -0.00000
