                              Psi4 1.0.54 Driver

  ==> Input File <==

--------------------------------------------------------------------------
set {
	reference rhf
	basis cc-pvtz
}

set_num_threads( 4 )
memory 2 gb

molecule MOL {
0 1

H	 -0.337318	 -1.237776	 0.751943
N	 -0.625934	 -0.663929	 -0.000707
C	 -1.978635	 -0.158664	 0.001017
C	 0.271616	 -0.394720	 -0.974624
H	 -2.519057	 -0.493535	 -0.876362
H	 -1.938890	 0.917202	 -0.004137
H	 -2.514266	 -0.485137	 0.884506
C	 1.631478	 -1.025388	 -0.770042
O	 0.024962	 0.290147	 -1.922883
H	 1.545335	 -2.104968	 -0.728992
H	 2.272850	 -0.747399	 -1.590061
H	 2.069681	 -0.687522	 0.161861

	symmetry c1
}
set optking {
	frozen_dihedral = ("
		4 2 3 5
	")
}

ee,wfn = optimize('scf', return_wfn=True)
oeprop( wfn, 'DIPOLE', 'QUADRUPOLE', 'MULLIKEN_CHARGES')
f=open( 'psi4out.xyz', 'w' )
f.write( "12  " )
f.write( str(ee) + "\n" )
f.write( MOL.save_string_xyz() )
f.close()
--------------------------------------------------------------------------

    Molecular point group: c1
  Charge       = 0
  Multiplicity = 1
  Basis Set: CC-PVTZ
  Basis Set:
  @DF-RHF Final Energy:  -247.10056206433973
    Total Energy =                       -247.1005620643397833
    Molecular point group: c1
  Basis Set: CC-PVTZ
  Basis Set:
  Basis Set: CC-PVTZ
  Basis Set:
  @DF-RHF Final Energy:  -247.10118248583365
    Total Energy =                       -247.1011824858335899
  Basis Set: CC-PVTZ
  Basis Set:
  Basis Set: CC-PVTZ
  Basis Set:
  @DF-RHF Final Energy:  -247.10110455960015
    Total Energy =                       -247.1011045596002305
  Basis Set: CC-PVTZ
  Basis Set:
  Basis Set: CC-PVTZ
  Basis Set:
  @DF-RHF Final Energy:  -247.10128166587887
    Total Energy =                       -247.1012816658787870
  Basis Set: CC-PVTZ
  Basis Set:
  Charge       = 0
  Multiplicity = 1
  Basis Set: CC-PVTZ
  Basis Set:

    Orbital Energies (a.u.)
    -----------------------

    Doubly Occupied:

       1A    -20.507033     2A    -15.574247     3A    -11.334865
       4A    -11.254097     5A    -11.228089     6A     -1.388763
       7A     -1.230331     8A     -1.016428     9A     -0.933048
      10A     -0.789513    11A     -0.690479    12A     -0.650813
      13A     -0.636446    14A     -0.584351    15A     -0.582603
      16A     -0.558588    17A     -0.546974    18A     -0.507101
      19A     -0.417271    20A     -0.390412

  @DF-RHF Final Energy:  -247.10128208735142

   => Energetics <=

    Nuclear Repulsion Energy =            181.8940299645839218
    One-Electron Energy =                -696.3477197788446347
    Two-Electron Energy =                 267.3524077269094050
    DFT Exchange-Correlation Energy =       0.0000000000000000
    Empirical Dispersion Energy =           0.0000000000000000
    PCM Polarization Energy =               0.0000000000000000
    EFP Energy =                            0.0000000000000000
    Total Energy =                       -247.1012820873513647
    Molecular point group: c1
  Basis Set: CC-PVTZ
  Basis Set:

  -Total Gradient:
     Atom            X                  Y                   Z
    ------   -----------------  -----------------  -----------------
       1        0.000006845707    -0.000012250356    -0.000014059698
       2        0.000055912139     0.000096244195    -0.000060271755
       3        0.000022682107    -0.000065574951     0.000016824584
       4       -0.000001007737    -0.000046723285     0.000011549991
       5       -0.000006999444     0.000022028270    -0.000012420862
       6       -0.000005322075    -0.000002467330     0.000003533723
       7       -0.000027672853     0.000015204965     0.000004000082
       8        0.000008197568    -0.000027524443     0.000024046768
       9       -0.000024158606    -0.000000542148     0.000025704067
      10       -0.000001495004     0.000005441508     0.000000189604
      11       -0.000023945320     0.000007270985     0.000002381618
      12       -0.000003036482     0.000008892590    -0.000001478129

  **** Optimization is complete! (in 5 steps) ****
    Final optimized geometry and variables:
    Molecular point group: c1

    Geometry (in Angstrom), charge = 0, multiplicity = 1:

    H           -0.197970549440    -0.853445136246     1.493500950764
    N           -0.471601024855    -0.276798156457     0.738807030887
    C           -1.818674208375     0.244427642226     0.705477582292
    C            0.419640762340    -0.009471022696    -0.238273651378
    H           -2.346050145167    -0.094417531918    -0.175952169161
    H           -1.817310433208     1.325943631433     0.701375595493
    H           -2.345423367348    -0.101516462554     1.583541579197
    C            1.783920099127    -0.636146914047    -0.056605338200
    O            0.146653952255     0.675202134774    -1.179721716459
    H            1.701975905072    -1.716201704011    -0.018445553358
    H            2.412237329408    -0.353055718441    -0.885129026054
    H            2.234846999491    -0.300420293429     0.869977597200

  Mulliken Charges: (a.u.)
   Center  Symbol    Alpha    Beta     Spin     Total
       1     H     0.41156  0.41156  0.00000  0.17688
       2     N     3.61766  3.61766  0.00000 -0.23533
       3     C     3.07596  3.07596  0.00000 -0.15191
       4     C     2.83770  2.83770  0.00000  0.32460
       5     H     0.44961  0.44961  0.00000  0.10077
       6     H     0.44938  0.44938  0.00000  0.10124
       7     H     0.45616  0.45616  0.00000  0.08767
       8     C     3.15355  3.15355  0.00000 -0.30709
       9     O     4.21509  4.21509  0.00000 -0.43018
      10     H     0.44980  0.44980  0.00000  0.10040
      11     H     0.43367  0.43367  0.00000  0.13266
      12     H     0.44986  0.44986  0.00000  0.10027

   Total alpha = 20.00000, Total beta = 20.00000, Total charge = -0.00000

*** Psi4 exiting successfully. Buy a developer a beer!
