  ==> Input File <==

--------------------------------------------------------------------------
set {
	reference rhf
	basis 6-31G*
}

set_num_threads( 4 )
memory 2 gb

molecule MOL {
0 1

O	 1.214711	 1.306902	 -0.000018
C	 1.122059	 0.121804	 -0.000188
C	 -0.170150	 -0.657997	 -0.000612
O	 2.172624	 -0.688929	 0.000216
C	 -1.412532	 0.227344	 -0.000452
H	 -0.153702	 -1.313099	 -0.867402
H	 -0.153924	 -1.313811	 0.865644
C	 -1.087042	 1.685966	 -0.325792
H	 -1.896414	 0.165687	 0.969373
H	 -2.128139	 -0.159238	 -0.719454
C	 -2.326384	 2.579847	 -0.329020
H	 -0.369087	 2.068111	 0.397106
H	 -0.600071	 1.741724	 -1.297297
H	 -2.816865	 2.572500	 0.640015
H	 -2.068113	 3.608097	 -0.561990
H	 -3.049210	 2.244157	 -1.066905
C	 3.452279	 -0.082609	 0.000533
H	 3.583069	 0.529321	 -0.880332
H	 4.163299	 -0.894027	 0.001117
H	 3.582335	 0.529955	 0.881077

	symmetry c1
}
set optking {
	frozen_dihedral = ("
		9 5 3 6
	")
}

ee = optimize('scf')
oeprop('DIPOLE', 'QUADRUPOLE', 'MULLIKEN_CHARGES')
f=open( 'psi4out.xyz', 'w' )
f.write( "20  " )
f.write( str(ee) + "\n" )
f.write( MOL.save_string_xyz() )
f.close()
--------------------------------------------------------------------------

    Molecular point group: c1
  Charge       = 0
  Multiplicity = 1
  Basis Set: 6-31G*
  Basis Set:
  @DF-RHF Final Energy:  -383.90369020934315
    Total Energy =                       -383.9036902093431536
    Molecular point group: c1
  Basis Set: 6-31G*
  Basis Set:
  Basis Set: 6-31G*
  Basis Set:
  @DF-RHF Final Energy:  -383.92395598978925
    Total Energy =                       -383.9239559897893059
  Basis Set: 6-31G*
  Basis Set:
  Basis Set: 6-31G*
  Basis Set:
  @DF-RHF Final Energy:  -383.92829497559370
    Total Energy =                       -383.9282949755937580
  Basis Set: 6-31G*
  Basis Set:
  Basis Set: 6-31G*
  Basis Set:
  @DF-RHF Final Energy:  -383.92736954665793
    Total Energy =                       -383.9273695466580421
  Basis Set: 6-31G*
  Basis Set:
  @DF-RHF Final Energy:  -383.93054934411145
    Total Energy =                       -383.9305493441114550
  @DF-RHF Final Energy:  -383.93096851090411
    Total Energy =                       -383.9309685109041084
  @DF-RHF Final Energy:  -383.93146667492954
    Total Energy =                       -383.9314666749294247
  @DF-RHF Final Energy:  -383.93197775189611
    Total Energy =                       -383.9319777518957153
  @DF-RHF Final Energy:  -383.93230873261024
    Total Energy =                       -383.9323087326099539
  @DF-RHF Final Energy:  -383.93240759284447
    Total Energy =                       -383.9324075928441289
  @DF-RHF Final Energy:  -383.93250769472854
    Total Energy =                       -383.9325076947282014
  @DF-RHF Final Energy:  -383.93257248267764
    Total Energy =                       -383.9325724826778696
  @DF-RHF Final Energy:  -383.93267199215580
    Total Energy =                       -383.9326719921557469
  @DF-RHF Final Energy:  -383.93278027816808
    Total Energy =                       -383.9327802781684795
  @DF-RHF Final Energy:  -383.93281363558560
    Total Energy =                       -383.9328136355853758
  @DF-RHF Final Energy:  -383.93289192243105
    Total Energy =                       -383.9328919224308265
  @DF-RHF Final Energy:  -383.93298721953784
    Total Energy =                       -383.9329872195377220
  @DF-RHF Final Energy:  -383.93293109897218
    Total Energy =                       -383.9329310989719488
  Basis Set: 6-31G*
  Basis Set:
  @DF-RHF Final Energy:  -383.93303238739645
    Total Energy =                       -383.9330323873966790
  Basis Set: 6-31G*
  Basis Set:
  Basis Set: 6-31G*
  Basis Set:
  @DF-RHF Final Energy:  -383.93304164784132
    Total Energy =                       -383.9330416478416055
  Basis Set: 6-31G*
  Basis Set:
  Basis Set: 6-31G*
  Basis Set:
  @DF-RHF Final Energy:  -383.93304280061739
    Total Energy =                       -383.9330428006172724
  Basis Set: 6-31G*
  Basis Set:
  Charge       = 0
  Multiplicity = 1
  Basis Set: 6-31G*
  Basis Set:

    Orbital Energies (a.u.)
    -----------------------

    Doubly Occupied:

       1A    -20.605332     2A    -20.542419     3A    -11.371437
       4A    -11.280678     5A    -11.233734     6A    -11.230388
       7A    -11.220394     8A    -11.212728     9A     -1.469179
      10A     -1.361110    11A     -1.087791    12A     -1.022033
      13A     -0.968415    14A     -0.890118    15A     -0.813923
      16A     -0.767873    17A     -0.689527    18A     -0.677457
      19A     -0.673811    20A     -0.642726    21A     -0.595184
      22A     -0.591920    23A     -0.583178    24A     -0.552948
      25A     -0.530397    26A     -0.519952    27A     -0.512223
      28A     -0.483837    29A     -0.472552    30A     -0.466764
      31A     -0.452558    32A     -0.431976

  @DF-RHF Final Energy:  -383.93304338487854

   => Energetics <=

    Nuclear Repulsion Energy =            394.4570250358434009
    One-Electron Energy =               -1304.8710103360795074
    Two-Electron Energy =                 526.4809419153576755
    DFT Exchange-Correlation Energy =       0.0000000000000000
    Empirical Dispersion Energy =           0.0000000000000000
    PCM Polarization Energy =               0.0000000000000000
    EFP Energy =                            0.0000000000000000
    Total Energy =                       -383.9330433848784878
    Molecular point group: c1
  Basis Set: 6-31G*
  Basis Set:

  -Total Gradient:
     Atom            X                  Y                   Z
    ------   -----------------  -----------------  -----------------
       1       -0.000014250446    -0.000041102187    -0.000058395587
       2        0.000015112394     0.000044256225     0.000008396939
       3        0.002696626325     0.001945124090    -0.002822159152
       4        0.000010127324     0.000001094490     0.000015011752
       5        0.002279445184     0.003043564905     0.001884255835
       6       -0.002596957961    -0.002127166745     0.002081468531
       7       -0.000013669493     0.000003513324     0.000001710514
       8        0.000034070046     0.000004216856     0.000027540202
       9       -0.002370004938    -0.002873234437    -0.001118086192
      10        0.000000000999     0.000001432580    -0.000004612034
      11        0.000038683407    -0.000030655866    -0.000001529840
      12       -0.000034915796     0.000013316840    -0.000009618768
      13       -0.000013112264    -0.000008778952    -0.000009508316
      14       -0.000015268804     0.000001031004     0.000003464458
      15        0.000000964912     0.000002567807    -0.000001003101
      16       -0.000023206212     0.000012790555    -0.000005941603
      17        0.000013020868     0.000014294010     0.000004401398
      18       -0.000002644804     0.000000441657     0.000000599228
      19       -0.000001219055    -0.000001174931     0.000002191836
      20       -0.000002801686    -0.000005531224     0.000001813895

  **** Optimization is complete! (in 22 steps) ****
    Final optimized geometry and variables:
    Molecular point group: c1

    Geometry (in Angstrom), charge = 0, multiplicity = 1:

    O            1.121529968000    -0.171942538247     1.534497503520
    C            0.710956816848    -0.667610534537     0.533860893977
    C           -0.666856776164    -1.262655975293     0.378028386990
    O            1.424786429736    -0.745026307552    -0.581109569631
    C           -1.778727124689    -0.223904811124     0.054943086680
    H           -0.645285950117    -2.038025757115    -0.376153959153
    H           -0.895163118421    -1.742412954399     1.321507138440
    C           -1.313383721511     1.126006485139    -0.497030613913
    H           -2.383992542444    -0.070036372914     0.942161251154
    H           -2.447034060043    -0.678905570510    -0.670476418407
    C           -2.488674081426     2.044866489767    -0.828102656345
    H           -0.669730826144     1.615496816088     0.227891643965
    H           -0.715731519947     0.967014244168    -1.390641667960
    H           -3.091334989317     2.243488326211     0.053474378884
    H           -2.141442130313     2.998564657835    -1.212592107729
    H           -3.136401402878     1.601280949527    -1.578973690424
    C            2.727828517458    -0.191189223084    -0.547779330993
    H            2.685477089118     0.865817715950    -0.327676386061
    H            3.142325374338    -0.352738674484    -1.530631693190
    H            3.330996616383    -0.685817460241     0.199695258275

  Mulliken Charges: (a.u.)
   Center  Symbol    Alpha    Beta     Spin     Total
       1     O     4.28549  4.28549  0.00000 -0.57098
       2     C     2.61763  2.61763  0.00000  0.76474
       3     C     3.19932  3.19932  0.00000 -0.39863
       4     O     4.30204  4.30204  0.00000 -0.60408
       5     C     3.15376  3.15376  0.00000 -0.30752
       6     H     0.40186  0.40186  0.00000  0.19629
       7     H     0.39859  0.39859  0.00000  0.20283
       8     C     3.16925  3.16925  0.00000 -0.33850
       9     H     0.41261  0.41261  0.00000  0.17479
      10     H     0.41637  0.41637  0.00000  0.16726
      11     C     3.23989  3.23989  0.00000 -0.47978
      12     H     0.41069  0.41069  0.00000  0.17861
      13     H     0.41503  0.41503  0.00000  0.16993
      14     H     0.41975  0.41975  0.00000  0.16050
      15     H     0.41717  0.41717  0.00000  0.16566
      16     H     0.42137  0.42137  0.00000  0.15727
      17     C     3.09309  3.09309  0.00000 -0.18618
      18     H     0.40915  0.40915  0.00000  0.18170
      19     H     0.40872  0.40872  0.00000  0.18256
      20     H     0.40823  0.40823  0.00000  0.18354

   Total alpha = 32.00000, Total beta = 32.00000, Total charge = -0.00000
