  ==> Input File <==

--------------------------------------------------------------------------
set {
	reference rhf
	basis cc-pvtz
}

set_num_threads( 4 )
memory 2 gb

molecule MOL {
0 1

H	 -3.268214	 -0.875720	 0.463107
C	 -2.806015	 0.000007	 0.024886
N	 -1.391133	 0.000016	 0.301321
H	 -3.029448	 0.000055	 -1.045738
H	 -3.268126	 0.875758	 0.463150
C	 -1.107518	 -0.000048	 1.720172
C	 -0.700887	 1.085220	 -0.361570
H	 -1.499314	 0.898879	 2.205226
H	 -1.593507	 -0.855131	 2.174850
C	 0.386917	 -0.083671	 1.968532
H	 -0.890010	 1.022427	 -1.426643
H	 -1.064959	 2.058128	 -0.018425
C	 0.793549	 1.001596	 -0.113211
H	 0.576041	 -0.020879	 3.033604
H	 0.750990	 -1.056579	 1.625386
N	 1.077164	 1.001532	 1.305641
H	 1.279537	 1.856680	 -0.567888
H	 1.185344	 0.102669	 -0.598264
C	 2.492046	 1.001541	 1.582076
H	 2.659990	 1.064424	 2.649973
H	 2.958862	 1.862255	 1.119673
H	 2.996797	 0.104289	 1.212855

	symmetry c1
}
set optking {
	frozen_dihedral = ("
		6 3 2 4
	")
}

ee = optimize('scf')
oeprop('DIPOLE', 'QUADRUPOLE', 'MULLIKEN_CHARGES')
f=open( 'psi4out.xyz', 'w' )
f.write( "22  " )
f.write( str(ee) + "\n" )
f.write( MOL.save_string_xyz() )
f.close()
--------------------------------------------------------------------------

    Molecular point group: c1
  Charge       = 0
  Multiplicity = 1
  Basis Set: CC-PVTZ
  Basis Set:
  @DF-RHF Final Energy:  -344.34995483350917
    Total Energy =                       -344.3499548335089457
    Molecular point group: c1
  Basis Set: CC-PVTZ
  Basis Set:
  Basis Set: CC-PVTZ
  Basis Set:
  @DF-RHF Final Energy:  -344.35058599628962
    Total Energy =                       -344.3505859962893965
  Basis Set: CC-PVTZ
  Basis Set:
  Basis Set: CC-PVTZ
  Basis Set:
  @DF-RHF Final Energy:  -344.35067176622891
    Total Energy =                       -344.3506717662291976
  Basis Set: CC-PVTZ
  Basis Set:
  Charge       = 0
  Multiplicity = 1
  Basis Set: CC-PVTZ
  Basis Set:

    Orbital Energies (a.u.)
    -----------------------

    Doubly Occupied:

       1A    -15.537850     2A    -15.537671     3A    -11.237637
       4A    -11.237593     5A    -11.236987     6A    -11.236945
       7A    -11.234334     8A    -11.234328     9A     -1.257699
      10A     -1.206763    11A     -1.025952    12A     -0.993117
      13A     -0.912203    14A     -0.868185    15A     -0.836368
      16A     -0.755707    17A     -0.667092    18A     -0.638350
      19A     -0.632471    20A     -0.627465    21A     -0.623460
      22A     -0.582660    23A     -0.550196    24A     -0.546439
      25A     -0.542530    26A     -0.517621    27A     -0.496939
      28A     -0.491212    29A     -0.466377    30A     -0.457390
      31A     -0.353057    32A     -0.348095

  @DF-RHF Final Energy:  -344.35067266765020

   => Energetics <=

    Nuclear Repulsion Energy =            422.0626736832707593
    One-Electron Energy =               -1303.0453074431502500
    Two-Electron Energy =                 536.6319610922289485
    DFT Exchange-Correlation Energy =       0.0000000000000000
    Empirical Dispersion Energy =           0.0000000000000000
    PCM Polarization Energy =               0.0000000000000000
    EFP Energy =                            0.0000000000000000
    Total Energy =                       -344.3506726676505423
    Molecular point group: c1
  Basis Set: CC-PVTZ
  Basis Set:

  -Total Gradient:
     Atom            X                  Y                   Z
    ------   -----------------  -----------------  -----------------
       1        0.000032311714    -0.000006224173     0.000004825430
       2       -0.000004796853    -0.000757452755     0.000051948965
       3        0.000046955411    -0.000674419227     0.000028157754
       4        0.000038145209     0.000793783518     0.000000124305
       5        0.000023957897     0.000006388605     0.000009286839
       6       -0.000091628076     0.000657542909     0.000036499880
       7       -0.000029624802    -0.000025434089     0.000002326903
       8       -0.000009821482     0.000007579232    -0.000002731579
       9       -0.000014094916    -0.000008859213    -0.000007488391
      10       -0.000011244339    -0.000027962288    -0.000119019679
      11        0.000003379379     0.000006082244    -0.000005752371
      12        0.000019951540     0.000000364260    -0.000001563881
      13       -0.000012746795     0.000020962305    -0.000000702364
      14       -0.000046557763     0.000003561816    -0.000024885141
      15        0.000026610591    -0.000023352635     0.000005908026
      16        0.000011127360     0.000017299845     0.000010427078
      17        0.000007918287     0.000000943336     0.000005470987
      18       -0.000008496927     0.000001220261     0.000007025902
      19        0.000013591811     0.000010066937    -0.000005842721
      20        0.000001637973     0.000000193701     0.000001617496
      21        0.000004390495    -0.000001629322     0.000003492642
      22       -0.000000965715    -0.000000655267     0.000000873923

  **** Optimization is complete! (in 4 steps) ****
    Final optimized geometry and variables:
    Molecular point group: c1

    Geometry (in Angstrom), charge = 0, multiplicity = 1:

    H           -3.111211959169    -1.384771432390    -0.353474535167
    C           -2.651080448822    -0.498169179983    -0.771713394263
    N           -1.234899400872    -0.501905522187    -0.501681385418
    H           -2.823055314957    -0.500465458948    -1.840696095072
    H           -3.159054704788     0.375910479719    -0.354007302951
    C           -0.949443699774    -0.499025596773     0.916801539582
    C           -0.545605629975     0.584769354105    -1.163884287072
    H           -1.339229681112     0.402170467422     1.399205782638
    H           -1.437090960061    -1.351761544792     1.374616278408
    C            0.545055740398    -0.584745867453     1.163873044254
    H           -0.735831914616     0.523880596309    -2.228870105819
    H           -0.908661418817     1.557365309468    -0.818590060047
    C            0.949323632363     0.500560833815    -0.917960949446
    H            0.734909655550    -0.521851494805     2.228873468165
    H            0.907610654484    -1.558405270116     0.820972963656
    N            1.235815872896     0.499460762688     0.500158668067
    H            1.434979740015     1.355600409939    -1.373303514381
    H            1.339544564619    -0.398372687857    -1.404430209102
    C            2.650996533121     0.497939248499     0.774074505683
    H            2.820884938705     0.560186520223     1.841766872619
    H            3.118039138897     1.358359905770     0.311210213258
    H            3.154409710897    -0.399699156359     0.403708823790

  Mulliken Charges: (a.u.)
   Center  Symbol    Alpha    Beta     Spin     Total
       1     H     0.45147  0.45147  0.00000  0.09707
       2     C     3.09839  3.09839  0.00000 -0.19677
       3     N     3.61310  3.61310  0.00000 -0.22621
       4     H     0.45223  0.45223  0.00000  0.09554
       5     H     0.47019  0.47019  0.00000  0.05963
       6     C     3.03585  3.03585  0.00000 -0.07171
       7     C     3.03536  3.03536  0.00000 -0.07072
       8     H     0.46767  0.46767  0.00000  0.06466
       9     H     0.45383  0.45383  0.00000  0.09233
      10     C     3.03540  3.03540  0.00000 -0.07080
      11     H     0.45372  0.45372  0.00000  0.09255
      12     H     0.46821  0.46821  0.00000  0.06357
      13     C     3.03557  3.03557  0.00000 -0.07114
      14     H     0.45379  0.45379  0.00000  0.09242
      15     H     0.46799  0.46799  0.00000  0.06402
      16     N     3.61306  3.61306  0.00000 -0.22611
      17     H     0.45380  0.45380  0.00000  0.09241
      18     H     0.46803  0.46803  0.00000  0.06393
      19     C     3.09843  3.09843  0.00000 -0.19685
      20     H     0.45194  0.45194  0.00000  0.09612
      21     H     0.45194  0.45194  0.00000  0.09612
      22     H     0.47003  0.47003  0.00000  0.05994

   Total alpha = 32.00000, Total beta = 32.00000, Total charge =  0.00000
