  ==> Input File <==

--------------------------------------------------------------------------
set {
	reference rhf
	basis 6-31G*
}

set_num_threads( 1 )
memory 2 gb

molecule MOL {
0 1

H	 2.465338	 -2.224223	 0.000000
O	 2.784187	 -1.332015	 0.000000
C	 1.765313	 -0.449364	 0.000000
C	 0.485506	 -0.951319	 -0.214656
C	 1.953554	 0.904095	 0.202112
H	 0.365302	 -2.007026	 -0.369230
C	 -0.598506	 -0.098177	 -0.226109
H	 2.928281	 1.317991	 0.369809
C	 0.842925	 1.732348	 0.184269
H	 -1.583040	 -0.494213	 -0.392558
C	 -0.435386	 1.266001	 -0.025469
N	 1.047622	 3.163307	 0.398609
H	 -1.266465	 1.940297	 -0.031555
O	 2.165699	 3.542357	 0.578213
O	 0.086549	 3.869223	 0.381729

	symmetry c1
}
set optking {
	frozen_dihedral = ("
		11 9 12 14
	")
}

ee = energy('scf')
oeprop('DIPOLE', 'QUADRUPOLE', 'MULLIKEN_CHARGES')
f=open( 'psi4out.xyz', 'w' )
f.write( "15  " )
f.write( str(ee) + "\n" )
f.write( MOL.save_string_xyz() )
f.close()
--------------------------------------------------------------------------

    Molecular point group: c1

    Geometry (in Angstrom), charge = 0, multiplicity = 1:

       Center              X                  Y                   Z               Mass
    ------------   -----------------  -----------------  -----------------  -----------------
           H          1.412877755258    -3.439113400110    -0.140626392722     1.007825032070
           O          1.731726755258    -2.546905400110    -0.140626392722    15.994914619560
           C          0.712852755258    -1.664254400110    -0.140626392722    12.000000000000
           C         -0.566954244742    -2.166209400110    -0.355282392722    12.000000000000
           C          0.901093755258    -0.310795400110     0.061485607278    12.000000000000
           H         -0.687158244742    -3.221916400110    -0.509856392722     1.007825032070
           C         -1.650966244742    -1.313067400110    -0.366735392722    12.000000000000
           H          1.875820755258     0.103100599890     0.229182607278     1.007825032070
           C         -0.209535244742     0.517457599890     0.043642607278    12.000000000000
           H         -2.635500244742    -1.709103400110    -0.533184392722     1.007825032070
           C         -1.487846244742     0.051110599890    -0.166095392722    12.000000000000
           N         -0.004838244742     1.948416599890     0.257982607278    14.003074004780
           H         -2.318925244742     0.725406599890    -0.172181392722     1.007825032070
           O          1.113238755258     2.327466599890     0.437586607278    15.994914619560
           O         -0.965911244742     2.654332599890     0.241102607278    15.994914619560

  Charge       = 0
  Multiplicity = 1
  Basis Set: 6-31G*
  Basis Set:

    Orbital Energies (a.u.)
    -----------------------

    Doubly Occupied:

       1A    -20.613721     2A    -20.603447     3A    -20.602830
       4A    -15.857934     5A    -11.331295     6A    -11.310990
       7A    -11.269188     8A    -11.265309     9A    -11.264905
      10A    -11.263840    11A     -1.636581    12A     -1.436060
      13A     -1.419756    14A     -1.200624    15A     -1.095024
      16A     -1.047754    17A     -0.965548    18A     -0.865553
      19A     -0.847183    20A     -0.795827    21A     -0.735470
      22A     -0.733441    23A     -0.721961    24A     -0.711768
      25A     -0.680657    26A     -0.636172    27A     -0.617128
      28A     -0.593951    29A     -0.570000    30A     -0.532128
      31A     -0.515219    32A     -0.491643    33A     -0.488213
      34A     -0.452748    35A     -0.379268    36A     -0.342881

  @DF-RHF Final Energy:  -509.02421235698284

   => Energetics <=

    Nuclear Repulsion Energy =            503.2398881834483291
    One-Electron Energy =               -1692.7359519311771692
    Two-Electron Energy =                 680.4718513907456554
    DFT Exchange-Correlation Energy =       0.0000000000000000
    Empirical Dispersion Energy =           0.0000000000000000
    PCM Polarization Energy =               0.0000000000000000
    EFP Energy =                            0.0000000000000000
    Total Energy =                       -509.0242123569831847

  Mulliken Charges: (a.u.)
   Center  Symbol    Alpha    Beta     Spin     Total
       1     H     0.26668  0.26668  0.00000  0.46663
       2     O     4.37799  4.37799  0.00000 -0.75598
       3     C     2.78486  2.78486  0.00000  0.43028
       4     C     3.13312  3.13312  0.00000 -0.26625
       5     C     3.11732  3.11732  0.00000 -0.23465
       6     H     0.39462  0.39462  0.00000  0.21076
       7     C     3.09944  3.09944  0.00000 -0.19888
       8     H     0.35738  0.35738  0.00000  0.28524
       9     C     2.91191  2.91191  0.00000  0.17618
      10     H     0.38736  0.38736  0.00000  0.22528
      11     C     3.09859  3.09859  0.00000 -0.19719
      12     N     3.24111  3.24111  0.00000  0.51777
      13     H     0.36516  0.36516  0.00000  0.26969
      14     O     4.23194  4.23194  0.00000 -0.46387
      15     O     4.23251  4.23251  0.00000 -0.46502

   Total alpha = 36.00000, Total beta = 36.00000, Total charge = -0.00000
