                              Psi4 1.0.54 Driver

  ==> Input File <==

--------------------------------------------------------------------------
set {
	reference rhf
	basis cc-pvtz
}

set_num_threads( 4 )
memory 2 gb

molecule MOL {
0 1

O	 -0.988175	 -1.402891	 0.050086
C	 -0.675048	 -0.248293	 -0.009686
C	 -1.742492	 0.826599	 -0.011538
N	 0.622280	 0.144970	 -0.099307
H	 -1.692153	 1.431066	 -0.908439
H	 -2.698310	 0.331559	 0.031353
H	 -1.642148	 1.483784	 0.843455
C	 1.615152	 -0.814548	 -0.534599
C	 1.147503	 1.339335	 0.518259
H	 2.340434	 -0.320862	 -1.169787
H	 1.137427	 -1.604108	 -1.085556
H	 2.142073	 -1.248911	 0.311163
H	 1.948620	 1.733459	 -0.093716
H	 0.396958	 2.106193	 0.604901
H	 1.551911	 1.140350	 1.508159

	symmetry c1
}
set optking {
	frozen_dihedral = ("
		8 4 2 3
	")
}

ee,wfn = optimize('scf', return_wfn=True)
oeprop( wfn, 'DIPOLE', 'QUADRUPOLE', 'MULLIKEN_CHARGES')
f=open( 'psi4out.xyz', 'w' )
f.write( "15  " )
f.write( str(ee) + "\n" )
f.write( MOL.save_string_xyz() )
f.close()
--------------------------------------------------------------------------

    Molecular point group: c1
  Charge       = 0
  Multiplicity = 1
  Basis Set: CC-PVTZ
  Basis Set:
  @DF-RHF Final Energy:  -286.12966038860390
    Total Energy =                       -286.1296603886039520
    Molecular point group: c1
  Basis Set: CC-PVTZ
  Basis Set:
  Basis Set: CC-PVTZ
  Basis Set:
  @DF-RHF Final Energy:  -286.12924212088075
    Total Energy =                       -286.1292421208806900
  Basis Set: CC-PVTZ
  Basis Set:
  Basis Set: CC-PVTZ
  Basis Set:
  @DF-RHF Final Energy:  -286.13173278064619
    Total Energy =                       -286.1317327806459616
  Basis Set: CC-PVTZ
  Basis Set:
  Basis Set: CC-PVTZ
  Basis Set:
  @DF-RHF Final Energy:  -286.13216033655067
    Total Energy =                       -286.1321603365508395
  Basis Set: CC-PVTZ
  Basis Set:
  @DF-RHF Final Energy:  -286.13248415160990
    Total Energy =                       -286.1324841516096740
  @DF-RHF Final Energy:  -286.13285542774577
    Total Energy =                       -286.1328554277459375
  @DF-RHF Final Energy:  -286.13257275827129
    Total Energy =                       -286.1325727582712943
  @DF-RHF Final Energy:  -286.13354958591503
    Total Energy =                       -286.1335495859150910
  @DF-RHF Final Energy:  -286.13300759583382
    Total Energy =                       -286.1330075958337602
  @DF-RHF Final Energy:  -286.13405102720395
    Total Energy =                       -286.1340510272040660
  @DF-RHF Final Energy:  -286.13421372645098
    Total Energy =                       -286.1342137264507528
  @DF-RHF Final Energy:  -286.13421846769097
    Total Energy =                       -286.1342184676910847
  @DF-RHF Final Energy:  -286.13429158138877
    Total Energy =                       -286.1342915813889363
  Basis Set: CC-PVTZ
  Basis Set:
  @DF-RHF Final Energy:  -286.13433212481607
    Total Energy =                       -286.1343321248159555
  Basis Set: CC-PVTZ
  Basis Set:
  Basis Set: CC-PVTZ
  Basis Set:
  @DF-RHF Final Energy:  -286.13434990692986
    Total Energy =                       -286.1343499069297422
  Basis Set: CC-PVTZ
  Basis Set:
  Basis Set: CC-PVTZ
  Basis Set:
  @DF-RHF Final Energy:  -286.13435362143633
    Total Energy =                       -286.1343536214359915
  Basis Set: CC-PVTZ
  Basis Set:
  Charge       = 0
  Multiplicity = 1
  Basis Set: CC-PVTZ
  Basis Set:

    Orbital Energies (a.u.)
    -----------------------

    Doubly Occupied:

       1A    -20.506310     2A    -15.577528     3A    -11.335947
       4A    -11.263037     5A    -11.247027     6A    -11.227261
       7A     -1.389343     8A     -1.246065     9A     -1.015264
      10A     -0.971681    11A     -0.920066    12A     -0.738491
      13A     -0.683809    14A     -0.662185    15A     -0.653396
      16A     -0.589517    17A     -0.577670    18A     -0.569394
      19A     -0.562267    20A     -0.548937    21A     -0.529655
      22A     -0.507856    23A     -0.415454    24A     -0.371815

  @DF-RHF Final Energy:  -286.13435406791120

   => Energetics <=

    Nuclear Repulsion Energy =            253.0952170318217611
    One-Electron Energy =                -890.2391918058170859
    Two-Electron Energy =                 351.0096207060838651
    DFT Exchange-Correlation Energy =       0.0000000000000000
    Empirical Dispersion Energy =           0.0000000000000000
    PCM Polarization Energy =               0.0000000000000000
    EFP Energy =                            0.0000000000000000
    Total Energy =                       -286.1343540679114312
    Molecular point group: c1
  Basis Set: CC-PVTZ
  Basis Set:

  -Total Gradient:
     Atom            X                  Y                   Z
    ------   -----------------  -----------------  -----------------
       1       -0.000035517243     0.000025640456     0.000008371982
       2       -0.001076037434    -0.000285610699     0.003705215593
       3        0.000829740532     0.000847287702    -0.003559754572
       4       -0.000169312274    -0.002718415682     0.003080606112
       5        0.000001303349     0.000002146691     0.000002634898
       6       -0.000007859570    -0.000003519760    -0.000001368297
       7        0.000003960983    -0.000004816810     0.000016466099
       8        0.000450140525     0.002085077526    -0.003248405253
       9       -0.000004348609    -0.000007901340    -0.000011845719
      10       -0.000003578851    -0.000008933762     0.000023736381
      11        0.000025848420     0.000043653520     0.000004402267
      12       -0.000020464310     0.000003926857    -0.000029531822
      13        0.000003490227     0.000007240215    -0.000003738352
      14       -0.000005093066     0.000006178463     0.000008407110
      15        0.000007727322     0.000008046623     0.000004803571

  **** Optimization is complete! (in 17 steps) ****
    Final optimized geometry and variables:
    Molecular point group: c1

    Geometry (in Angstrom), charge = 0, multiplicity = 1:

    O           -1.000138840429    -1.322954417744    -0.464622544329
    C           -0.676400595104    -0.231161998058    -0.097749213991
    C           -1.694457373040     0.889433521763    -0.059804810856
    N            0.605725482329     0.059569859984     0.264497206412
    H           -1.387133628064     1.711808922866    -0.693799793039
    H           -2.629681717530     0.489987343226    -0.415276510619
    H           -1.831329475383     1.273427413395     0.943398616212
    C            1.659596061902    -0.835107539636    -0.171281970287
    C            1.045326468906     1.403980364724     0.560171060083
    H            2.101621391755    -0.491393049910    -1.103492926782
    H            1.259328888808    -1.821672194396    -0.318147820712
    H            2.437965637823    -0.875456674385     0.580189659719
    H            1.307365665342     1.962042697175    -0.336724119738
    H            0.295308115666     1.956053340859     1.101697873640
    H            1.925672767179     1.352366823840     1.186568150322

  Mulliken Charges: (a.u.)
   Center  Symbol    Alpha    Beta     Spin     Total
       1     O     4.21706  4.21706  0.00000 -0.43412
       2     C     2.84255  2.84255  0.00000  0.31491
       3     C     3.16075  3.16075  0.00000 -0.32151
       4     N     3.56698  3.56698  0.00000 -0.13397
       5     H     0.44956  0.44956  0.00000  0.10088
       6     H     0.42875  0.42875  0.00000  0.14250
       7     H     0.44751  0.44751  0.00000  0.10499
       8     C     3.09889  3.09889  0.00000 -0.19777
       9     C     3.09990  3.09990  0.00000 -0.19980
      10     H     0.45949  0.45949  0.00000  0.08103
      11     H     0.42622  0.42622  0.00000  0.14756
      12     H     0.45555  0.45555  0.00000  0.08889
      13     H     0.45613  0.45613  0.00000  0.08775
      14     H     0.44474  0.44474  0.00000  0.11051
      15     H     0.44592  0.44592  0.00000  0.10816

   Total alpha = 24.00000, Total beta = 24.00000, Total charge =  0.00000

*** Psi4 exiting successfully. Buy a developer a beer!
