  ==> Input File <==

--------------------------------------------------------------------------
set {
	reference rhf
	basis 6-31G*
}

set_num_threads( 1 )
memory 2 gb

molecule MOL {
0 1

H	 -3.093235	 0.218134	 -0.205288
O	 -2.347518	 -0.290803	 0.079804
C	 -1.184022	 0.487508	 -0.006784
C	 0.062599	 -0.378592	 0.031606
H	 -1.176523	 1.099369	 -0.904519
H	 -1.187323	 1.153111	 0.844927
O	 1.171513	 0.459272	 -0.058250
H	 0.050699	 -1.089204	 -0.797170
H	 0.078739	 -0.954914	 0.954740
C	 2.397842	 -0.198080	 -0.002151
H	 2.508049	 -0.905315	 -0.822092
H	 3.173794	 0.550865	 -0.078850
H	 2.517602	 -0.735921	 0.936026

	symmetry c1
}
set optking {
	frozen_dihedral = ("
		8 4 3 5,
		10 7 4 8,
		4 7 10 13
	")
}

ee = energy('scf')
oeprop('DIPOLE', 'QUADRUPOLE', 'MULLIKEN_CHARGES')
f=open( 'psi4out.xyz', 'w' )
f.write( "13  " )
f.write( str(ee) + "\n" )
f.write( MOL.save_string_xyz() )
f.close()
--------------------------------------------------------------------------

    Molecular point group: c1

    Geometry (in Angstrom), charge = 0, multiplicity = 1:

       Center              X                  Y                   Z               Mass
    ------------   -----------------  -----------------  -----------------  -----------------
           H         -3.085361515505     0.205568859948    -0.212441160294     1.007825032070
           O         -2.339644515505    -0.303368140052     0.072650839706    15.994914619560
           C         -1.176148515505     0.474942859948    -0.013937160294    12.000000000000
           C          0.070472484495    -0.391157140052     0.024452839706    12.000000000000
           H         -1.168649515505     1.086803859948    -0.911672160294     1.007825032070
           H         -1.179449515505     1.140545859948     0.837773839706     1.007825032070
           O          1.179386484495     0.446706859948    -0.065403160294    15.994914619560
           H          0.058572484495    -1.101769140052    -0.804323160294     1.007825032070
           H          0.086612484495    -0.967479140052     0.947586839706     1.007825032070
           C          2.405715484495    -0.210645140052    -0.009304160294    12.000000000000
           H          2.515922484495    -0.917880140052    -0.829245160294     1.007825032070
           H          3.181667484495     0.538299859948    -0.086003160294     1.007825032070
           H          2.525475484495    -0.748486140052     0.928872839706     1.007825032070

  Charge       = 0
  Multiplicity = 1
  Basis Set: 6-31G*
  Basis Set:

    Orbital Energies (a.u.)
    -----------------------

    Doubly Occupied:

       1A    -20.560570     2A    -20.556595     3A    -11.269699
       4A    -11.268535     5A    -11.268239     6A     -1.386666
       7A     -1.362778     8A     -1.017910     9A     -0.911798
      10A     -0.832354    11A     -0.706998    12A     -0.682847
      13A     -0.643511    14A     -0.637364    15A     -0.618709
      16A     -0.551702    17A     -0.540436    18A     -0.496349
      19A     -0.470271    20A     -0.437559    21A     -0.418836

  @DF-RHF Final Energy:  -267.94923672110679

   => Energetics <=

    Nuclear Repulsion Energy =            189.8393825358474771
    One-Electron Energy =                -742.2977247926600057
    Two-Electron Energy =                 284.5091055357062260
    DFT Exchange-Correlation Energy =       0.0000000000000000
    Empirical Dispersion Energy =           0.0000000000000000
    PCM Polarization Energy =               0.0000000000000000
    EFP Energy =                            0.0000000000000000
    Total Energy =                       -267.9492367211063311

  Mulliken Charges: (a.u.)
   Center  Symbol    Alpha    Beta     Spin     Total
       1     H     0.27770  0.27770  0.00000  0.44461
       2     O     4.37571  4.37571  0.00000 -0.75141
       3     C     3.00049  3.00049  0.00000 -0.00097
       4     C     2.99403  2.99403  0.00000  0.01194
       5     H     0.42443  0.42443  0.00000  0.15113
       6     H     0.42291  0.42291  0.00000  0.15418
       7     O     4.30824  4.30824  0.00000 -0.61649
       8     H     0.42565  0.42565  0.00000  0.14870
       9     H     0.42388  0.42388  0.00000  0.15225
      10     C     3.07967  3.07967  0.00000 -0.15934
      11     H     0.42829  0.42829  0.00000  0.14343
      12     H     0.41115  0.41115  0.00000  0.17770
      13     H     0.42786  0.42786  0.00000  0.14428

   Total alpha = 21.00000, Total beta = 21.00000, Total charge =  0.00000
