  ==> Input File <==

--------------------------------------------------------------------------
set {
	reference rhf
	basis 6-31G*
}

set_num_threads( 4 )
memory 2 gb

molecule MOL {
0 1

H	 -3.892951	 0.981613	 -0.358725
C	 -3.196921	 0.361773	 0.172313
C	 -2.076860	 -0.007332	 -0.404944
H	 -3.439953	 0.057760	 1.173024
O	 -1.180634	 -0.819263	 0.215062
H	 -1.811520	 0.292194	 -1.403480
C	 0.051604	 -1.018856	 -0.387932
C	 1.043764	 0.054862	 -0.001873
H	 -0.017620	 -1.041351	 -1.469781
H	 0.437898	 -1.966374	 -0.042284
F	 2.068887	 0.030113	 -0.841109
F	 0.507026	 1.262530	 -0.059158
F	 1.512306	 -0.119164	 1.216557

	symmetry c1
}
set optking {
	frozen_dihedral = ("
		11 8 7 9
	")
}

ee = optimize('scf')
oeprop('DIPOLE', 'QUADRUPOLE', 'MULLIKEN_CHARGES')
f=open( 'psi4out.xyz', 'w' )
f.write( "13  " )
f.write( str(ee) + "\n" )
f.write( MOL.save_string_xyz() )
f.close()
--------------------------------------------------------------------------

    Molecular point group: c1
  Charge       = 0
  Multiplicity = 1
  Basis Set: 6-31G*
  Basis Set:
  @DF-RHF Final Energy:  -527.53445768647748
    Total Energy =                       -527.5344576864779356
    Molecular point group: c1
  Basis Set: 6-31G*
  Basis Set:
  Basis Set: 6-31G*
  Basis Set:
  @DF-RHF Final Energy:  -527.53457798566126
    Total Energy =                       -527.5345779856613717
  Basis Set: 6-31G*
  Basis Set:
  Basis Set: 6-31G*
  Basis Set:
  @DF-RHF Final Energy:  -527.53460896730644
    Total Energy =                       -527.5346089673064398
  Basis Set: 6-31G*
  Basis Set:
  Basis Set: 6-31G*
  Basis Set:
  @DF-RHF Final Energy:  -527.53461530973550
    Total Energy =                       -527.5346153097351589
  Basis Set: 6-31G*
  Basis Set:
  Basis Set: 6-31G*
  Basis Set:
  @DF-RHF Final Energy:  -527.53461952716589
    Total Energy =                       -527.5346195271656597
  Basis Set: 6-31G*
  Basis Set:
  Basis Set: 6-31G*
  Basis Set:
  @DF-RHF Final Energy:  -527.53462177003973
    Total Energy =                       -527.5346217700393936
  Basis Set: 6-31G*
  Basis Set:
  Charge       = 0
  Multiplicity = 1
  Basis Set: 6-31G*
  Basis Set:

    Orbital Energies (a.u.)
    -----------------------

    Doubly Occupied:

       1A    -26.344459     2A    -26.342817     3A    -26.341951
       4A    -20.608842     5A    -11.503697     6A    -11.318867
       7A    -11.299579     8A    -11.215500     9A     -1.741999
      10A     -1.639702    11A     -1.638593    12A     -1.438738
      13A     -1.083936    14A     -1.016161    15A     -0.925618
      16A     -0.837525    17A     -0.830364    18A     -0.821738
      19A     -0.790471    20A     -0.724465    21A     -0.712799
      22A     -0.696266    23A     -0.675394    24A     -0.660131
      25A     -0.654944    26A     -0.643346    27A     -0.631707
      28A     -0.584628    29A     -0.562470    30A     -0.525302
      31A     -0.513493    32A     -0.351199

  @DF-RHF Final Energy:  -527.53462268926830

   => Energetics <=

    Nuclear Repulsion Energy =            412.8723563827176122
    One-Electron Energy =               -1549.4605546327793490
    Two-Electron Energy =                 609.0535755607938881
    DFT Exchange-Correlation Energy =       0.0000000000000000
    Empirical Dispersion Energy =           0.0000000000000000
    PCM Polarization Energy =               0.0000000000000000
    EFP Energy =                            0.0000000000000000
    Total Energy =                       -527.5346226892679624
    Molecular point group: c1
  Basis Set: 6-31G*
  Basis Set:

  -Total Gradient:
     Atom            X                  Y                   Z
    ------   -----------------  -----------------  -----------------
       1       -0.000005154333    -0.000005838691    -0.000003324634
       2        0.000012928144     0.000008831870     0.000001743800
       3       -0.000100304022     0.000006180141     0.000034380151
       4        0.000007263165     0.000000495818    -0.000002461208
       5       -0.000021929639    -0.000004683804    -0.000035354319
       6        0.000013416763    -0.000012709195    -0.000014051306
       7       -0.003984737166     0.004011722758    -0.000526606428
       8        0.002575973034    -0.003399670520     0.002636051049
       9        0.002932219145    -0.002818544987    -0.000028731057
      10       -0.000013372074    -0.000007783007    -0.000012004879
      11       -0.001486457195     0.002174871597    -0.002063000126
      12        0.000046543654     0.000067707419    -0.000004032114
      13        0.000023610515    -0.000020579401     0.000017391068

  **** Optimization is complete! (in 7 steps) ****
    Final optimized geometry and variables:
    Molecular point group: c1

    Geometry (in Angstrom), charge = 0, multiplicity = 1:

    H           -3.935682544697     0.955823469656    -0.353851663397
    C           -3.242336234395     0.330418137693     0.174137794410
    C           -2.090558261170     0.021452759992    -0.375187766315
    H           -3.512775810527    -0.025909488058     1.150351661053
    O           -1.190252809287    -0.784616577212     0.246662961772
    H           -1.797730161542     0.373493198793    -1.348324087080
    C            0.028244427867    -1.006961913886    -0.371508272284
    C            1.055796698841     0.047011656571    -0.009000805275
    H           -0.040597989403    -1.057557044228    -1.452094656876
    H            0.403230509235    -1.957966087133    -0.020728014456
    F            2.083097036414    -0.030862830518    -0.842835125928
    F            0.560217639211     1.268429248789    -0.107900740683
    F            1.513734822843    -0.102084634039     1.217802798867

  Mulliken Charges: (a.u.)
   Center  Symbol    Alpha    Beta     Spin     Total
       1     H     0.40711  0.40711  0.00000  0.18577
       2     C     3.23687  3.23687  0.00000 -0.47375
       3     C     2.89295  2.89295  0.00000  0.21410
       4     H     0.40207  0.40207  0.00000  0.19586
       5     O     4.30103  4.30103  0.00000 -0.60206
       6     H     0.40682  0.40682  0.00000  0.18636
       7     C     3.06938  3.06938  0.00000 -0.13877
       8     C     2.45267  2.45267  0.00000  1.09466
       9     H     0.40423  0.40423  0.00000  0.19153
      10     H     0.38933  0.38933  0.00000  0.22133
      11     F     4.68345  4.68345  0.00000 -0.36689
      12     F     4.67864  4.67864  0.00000 -0.35729
      13     F     4.67543  4.67543  0.00000 -0.35086

   Total alpha = 32.00000, Total beta = 32.00000, Total charge =  0.00000
