  ==> Input File <==

--------------------------------------------------------------------------
set {
	reference rhf
	basis 6-31G*
}

set_num_threads( 1 )
memory 2 gb

molecule MOL {
0 1

O	 3.217782	 1.341664	 0.583739
C	 2.698702	 0.273511	 0.635350
C	 1.245376	 -0.013843	 0.345420
O	 3.350386	 -0.834935	 0.964417
C	 0.455112	 1.231400	 -0.050772
H	 1.219457	 -0.775043	 -0.427299
H	 0.824435	 -0.478102	 1.233660
C	 -0.998893	 1.219485	 0.433193
H	 0.482531	 1.345121	 -1.130325
H	 0.957290	 2.103070	 0.354729
C	 -1.883438	 0.145884	 -0.207175
H	 -1.431207	 2.195402	 0.224832
H	 -1.019646	 1.105716	 1.516076
C	 -3.347647	 0.245583	 0.225435
H	 -1.822183	 0.231698	 -1.291012
H	 -1.510341	 -0.844814	 0.042401
C	 -4.239992	 -0.825570	 -0.404234
H	 -3.732888	 1.230466	 -0.033079
H	 -3.408585	 0.170602	 1.310038
C	 -5.701275	 -0.716658	 0.029921
H	 -4.179496	 -0.752714	 -1.488058
H	 -3.859041	 -1.810759	 -0.143352
H	 -6.308102	 -1.488908	 -0.432678
H	 -6.122175	 0.245478	 -0.248167
H	 -5.799072	 -0.820114	 1.106957
C	 4.728165	 -0.705301	 1.264089
H	 5.267566	 -0.317149	 0.412097
H	 5.072883	 -1.699155	 1.503737
H	 4.873376	 -0.045178	 2.107112

	symmetry c1
}
set optking {
	frozen_dihedral = ("
		21 17 14 11,
		17 14 11 15,
		15 11 8 5,
		11 8 5 9,
		2 4 26 27,
		1 2 4 26,
		6 3 2 1
	")
}

ee = energy('scf')
oeprop('DIPOLE', 'QUADRUPOLE', 'MULLIKEN_CHARGES')
f=open( 'psi4out.xyz', 'w' )
f.write( "29  " )
f.write( str(ee) + "\n" )
f.write( MOL.save_string_xyz() )
f.close()
--------------------------------------------------------------------------

    Molecular point group: c1

    Geometry (in Angstrom), charge = 0, multiplicity = 1:

       Center              X                  Y                   Z               Mass
    ------------   -----------------  -----------------  -----------------  -----------------
           O          3.218572278110     1.228141236415     0.225357251995    15.994914619560
           C          2.699492278110     0.159988236415     0.276968251995    12.000000000000
           C          1.246166278110    -0.127365763585    -0.012961748005    12.000000000000
           O          3.351176278110    -0.948457763585     0.606035251995    15.994914619560
           C          0.455902278110     1.117877236415    -0.409153748005    12.000000000000
           H          1.220247278110    -0.888565763585    -0.785680748005     1.007825032070
           H          0.825225278110    -0.591624763585     0.875278251995     1.007825032070
           C         -0.998102721890     1.105962236415     0.074811251995    12.000000000000
           H          0.483321278110     1.231598236415    -1.488706748005     1.007825032070
           H          0.958080278110     1.989547236415    -0.003652748005     1.007825032070
           C         -1.882647721890     0.032361236415    -0.565556748005    12.000000000000
           H         -1.430416721890     2.081879236415    -0.133549748005     1.007825032070
           H         -1.018855721890     0.992193236415     1.157694251995     1.007825032070
           C         -3.346856721890     0.132060236415    -0.132946748005    12.000000000000
           H         -1.821392721890     0.118175236415    -1.649393748005     1.007825032070
           H         -1.509550721890    -0.958336763585    -0.315980748005     1.007825032070
           C         -4.239201721890    -0.939092763585    -0.762615748005    12.000000000000
           H         -3.732097721890     1.116943236415    -0.391460748005     1.007825032070
           H         -3.407794721890     0.057079236415     0.951656251995     1.007825032070
           C         -5.700484721890    -0.830180763585    -0.328460748005    12.000000000000
           H         -4.178705721890    -0.866236763585    -1.846439748005     1.007825032070
           H         -3.858250721890    -1.924281763585    -0.501733748005     1.007825032070
           H         -6.307311721890    -1.602430763585    -0.791059748005     1.007825032070
           H         -6.121384721890     0.131955236415    -0.606548748005     1.007825032070
           H         -5.798281721890    -0.933636763585     0.748575251995     1.007825032070
           C          4.728955278110    -0.818823763585     0.905707251995    12.000000000000
           H          5.268356278110    -0.430671763585     0.053715251995     1.007825032070
           H          5.073673278110    -1.812677763585     1.145355251995     1.007825032070
           H          4.874166278110    -0.158700763585     1.748730251995     1.007825032070

  Charge       = 0
  Multiplicity = 1
  Basis Set: 6-31G*
  Basis Set:

    Orbital Energies (a.u.)
    -----------------------

    Doubly Occupied:

       1A    -20.603901     2A    -20.545924     3A    -11.372548
       4A    -11.280960     5A    -11.234189     6A    -11.216940
       7A    -11.216185     8A    -11.215668     9A    -11.215383
      10A    -11.214042    11A    -11.208892    12A     -1.469642
      13A     -1.363332    14A     -1.097455    15A     -1.066506
      16A     -1.019236    17A     -0.977151    18A     -0.928124
      19A     -0.861001    20A     -0.799555    21A     -0.790351
      22A     -0.763449    23A     -0.701846    24A     -0.682388
      25A     -0.672869    26A     -0.652407    27A     -0.626390
      28A     -0.605039    29A     -0.593423    30A     -0.581209
      31A     -0.566547    32A     -0.549991    33A     -0.532985
      34A     -0.527672    35A     -0.514171    36A     -0.511231
      37A     -0.497920    38A     -0.475702    39A     -0.470060
      40A     -0.461878    41A     -0.458688    42A     -0.456034
      43A     -0.439596    44A     -0.436988

  @DF-RHF Final Energy:  -501.04169418401455

   => Energetics <=

    Nuclear Repulsion Energy =            610.0826447763632814
    One-Electron Energy =               -1891.2978282955609757
    Two-Electron Energy =                 780.1734893351833762
    DFT Exchange-Correlation Energy =       0.0000000000000000
    Empirical Dispersion Energy =           0.0000000000000000
    PCM Polarization Energy =               0.0000000000000000
    EFP Energy =                            0.0000000000000000
    Total Energy =                       -501.0416941840142044

  Mulliken Charges: (a.u.)
   Center  Symbol    Alpha    Beta     Spin     Total
       1     O     4.28497  4.28497  0.00000 -0.56994
       2     C     2.60944  2.60944  0.00000  0.78112
       3     C     3.20944  3.20944  0.00000 -0.41889
       4     O     4.30630  4.30630  0.00000 -0.61260
       5     C     3.16028  3.16028  0.00000 -0.32056
       6     H     0.39787  0.39787  0.00000  0.20426
       7     H     0.39980  0.39980  0.00000  0.20039
       8     C     3.15783  3.15783  0.00000 -0.31565
       9     H     0.41771  0.41771  0.00000  0.16458
      10     H     0.39631  0.39631  0.00000  0.20737
      11     C     3.15432  3.15432  0.00000 -0.30864
      12     H     0.41911  0.41911  0.00000  0.16178
      13     H     0.42317  0.42317  0.00000  0.15367
      14     C     3.15048  3.15048  0.00000 -0.30097
      15     H     0.42340  0.42340  0.00000  0.15320
      16     H     0.42347  0.42347  0.00000  0.15306
      17     C     3.15138  3.15138  0.00000 -0.30276
      18     H     0.42330  0.42330  0.00000  0.15340
      19     H     0.42406  0.42406  0.00000  0.15188
      20     C     3.23932  3.23932  0.00000 -0.47865
      21     H     0.42300  0.42300  0.00000  0.15401
      22     H     0.42346  0.42346  0.00000  0.15309
      23     H     0.41932  0.41932  0.00000  0.16136
      24     H     0.42157  0.42157  0.00000  0.15685
      25     H     0.42180  0.42180  0.00000  0.15639
      26     C     3.09232  3.09232  0.00000 -0.18465
      27     H     0.40900  0.40900  0.00000  0.18199
      28     H     0.40846  0.40846  0.00000  0.18309
      29     H     0.40911  0.40911  0.00000  0.18179

   Total alpha = 44.00000, Total beta = 44.00000, Total charge = -0.00000
