  ==> Input File <==

--------------------------------------------------------------------------
set {
	reference rhf
	basis cc-pvtz
}

set_num_threads( 4 )
memory 2 gb

molecule MOL {
0 1

H	 -1.769398	 -0.959542	 0.086777
O	 -2.041679	 -0.058866	 0.103463
C	 -0.959304	 0.780994	 -0.094939
C	 0.354905	 0.037902	 -0.006215
H	 -0.985899	 1.279578	 -1.057596
H	 -0.969809	 1.529522	 0.682889
F	 0.412060	 -0.931028	 -0.902708
F	 1.359641	 0.856111	 -0.239961
F	 0.545380	 -0.506387	 1.171682

	symmetry c1
}
set optking {
	frozen_dihedral = ("
		1 2 3 5
	")
}

ee = optimize('scf')
oeprop('DIPOLE', 'QUADRUPOLE', 'MULLIKEN_CHARGES')
f=open( 'psi4out.xyz', 'w' )
f.write( "9  " )
f.write( str(ee) + "\n" )
f.write( MOL.save_string_xyz() )
f.close()
--------------------------------------------------------------------------

    Molecular point group: c1
  Charge       = 0
  Multiplicity = 1
  Basis Set: CC-PVTZ
  Basis Set:
  @DF-RHF Final Energy:  -450.84314022966839
    Total Energy =                       -450.8431402296684496
    Molecular point group: c1
  Basis Set: CC-PVTZ
  Basis Set:
  Basis Set: CC-PVTZ
  Basis Set:
  @DF-RHF Final Energy:  -450.84351773827149
    Total Energy =                       -450.8435177382713732
  Basis Set: CC-PVTZ
  Basis Set:
  Basis Set: CC-PVTZ
  Basis Set:
  @DF-RHF Final Energy:  -450.84362406998628
    Total Energy =                       -450.8436240699862765
  Basis Set: CC-PVTZ
  Basis Set:
  Basis Set: CC-PVTZ
  Basis Set:
  @DF-RHF Final Energy:  -450.84362865258800
    Total Energy =                       -450.8436286525879950
  Basis Set: CC-PVTZ
  Basis Set:
  Charge       = 0
  Multiplicity = 1
  Basis Set: CC-PVTZ
  Basis Set:

    Orbital Energies (a.u.)
    -----------------------

    Doubly Occupied:

       1A    -26.346275     2A    -26.345665     3A    -26.343762
       4A    -20.580678     5A    -11.502054     6A    -11.309916
       7A     -1.755131     8A     -1.652502     9A     -1.649329
      10A     -1.403452    11A     -1.054237    12A     -0.935170
      13A     -0.844310    14A     -0.843721    15A     -0.822007
      16A     -0.727383    17A     -0.726165    18A     -0.685969
      19A     -0.678807    20A     -0.677341    21A     -0.656410
      22A     -0.646751    23A     -0.625987    24A     -0.528667
      25A     -0.481287

  @DF-RHF Final Energy:  -450.84362953627772

   => Energetics <=

    Nuclear Repulsion Energy =            277.9460579363030774
    One-Electron Energy =               -1177.9334235371798059
    Two-Electron Energy =                 449.1437360645988974
    DFT Exchange-Correlation Energy =       0.0000000000000000
    Empirical Dispersion Energy =           0.0000000000000000
    PCM Polarization Energy =               0.0000000000000000
    EFP Energy =                            0.0000000000000000
    Total Energy =                       -450.8436295362778310
    Molecular point group: c1
  Basis Set: CC-PVTZ
  Basis Set:

  -Total Gradient:
     Atom            X                  Y                   Z
    ------   -----------------  -----------------  -----------------
       1        0.000276770132     0.000020182893     0.001728116818
       2       -0.000581595070     0.000255166613    -0.001968156225
       3        0.001045126627    -0.001427471948    -0.000393153065
       4       -0.000056487818    -0.000028249527     0.000144315830
       5       -0.000723130398     0.001145054621     0.000633213671
       6        0.000009457310    -0.000001333158     0.000009493796
       7        0.000012958464    -0.000049953077    -0.000037142720
       8        0.000036132446     0.000037428100    -0.000007979401
       9       -0.000019231689     0.000049175481    -0.000108708700

  **** Optimization is complete! (in 5 steps) ****
    Final optimized geometry and variables:
    Molecular point group: c1

    Geometry (in Angstrom), charge = 0, multiplicity = 1:

    H           -1.824425981862    -0.966601545563     0.072416647553
    O           -2.060691309685    -0.056646575808     0.091701554124
    C           -0.963222680227     0.773628435244    -0.096414140709
    C            0.355479075438     0.043891036587    -0.017754311191
    H           -1.011270429376     1.263098129736    -1.061344664931
    H           -0.953211710954     1.535528044350     0.671598797811
    F            0.424542563781    -0.927736130156    -0.908839048728
    F            1.351678320461     0.868816621584    -0.242471970853
    F            0.543556243513    -0.506945773455     1.163052807686

  Mulliken Charges: (a.u.)
   Center  Symbol    Alpha    Beta     Spin     Total
       1     H     0.38655  0.38655  0.00000  0.22690
       2     O     4.19559  4.19559  0.00000 -0.39117
       3     C     2.96925  2.96925  0.00000  0.06150
       4     C     2.68983  2.68983  0.00000  0.62035
       5     H     0.46404  0.46404  0.00000  0.07191
       6     H     0.46022  0.46022  0.00000  0.07955
       7     F     4.61539  4.61539  0.00000 -0.23078
       8     F     4.60747  4.60747  0.00000 -0.21494
       9     F     4.61165  4.61165  0.00000 -0.22331

   Total alpha = 25.00000, Total beta = 25.00000, Total charge = -0.00000
