  ==> Input File <==

--------------------------------------------------------------------------
set {
	reference rhf
	basis 6-31G*
}

set_num_threads( 4 )
memory 2 gb

molecule MOL {
0 1

H	 -3.900962	 -1.575087	 0.957949
C	 -2.832516	 -1.455883	 0.989537
C	 -2.158559	 -1.579117	 2.195250
C	 -2.133933	 -1.179586	 -0.175183
H	 -2.701545	 -1.793415	 3.097807
C	 -0.784746	 -1.425710	 2.235070
H	 -2.658072	 -1.084409	 -1.108899
C	 -0.758701	 -1.025619	 -0.137719
H	 -0.246718	 -1.517640	 3.159055
C	 -0.080308	 -1.148524	 1.069112
H	 -0.214087	 -0.811746	 -1.036593
C	 1.398517	 -0.992412	 1.165867
O	 1.970282	 -0.730723	 0.000018
O	 2.013115	 -1.090742	 2.181476
C	 3.377318	 -0.566646	 -0.000065
H	 3.695437	 -0.028981	 -0.881264
H	 3.789299	 -1.563704	 0.000236
H	 3.695516	 -0.028316	 0.880770

	symmetry c1
}
set optking {
	frozen_dihedral = ("
		12 13 15 16
	")
}

ee = optimize('scf')
oeprop('DIPOLE', 'QUADRUPOLE', 'MULLIKEN_CHARGES')
f=open( 'psi4out.xyz', 'w' )
f.write( "18  " )
f.write( str(ee) + "\n" )
f.write( MOL.save_string_xyz() )
f.close()
--------------------------------------------------------------------------

    Molecular point group: c1
  Charge       = 0
  Multiplicity = 1
  Basis Set: 6-31G*
  Basis Set:
  @DF-RHF Final Energy:  -457.34857900810778
    Total Energy =                       -457.3485790081074356
    Molecular point group: c1
  Basis Set: 6-31G*
  Basis Set:
  Basis Set: 6-31G*
  Basis Set:
  @DF-RHF Final Energy:  -457.34968584980714
    Total Energy =                       -457.3496858498075426
  Basis Set: 6-31G*
  Basis Set:
  Basis Set: 6-31G*
  Basis Set:
  @DF-RHF Final Energy:  -457.34898884134248
    Total Energy =                       -457.3489888413425888
  Basis Set: 6-31G*
  Basis Set:
  Basis Set: 6-31G*
  Basis Set:
  @DF-RHF Final Energy:  -457.35002936623567
    Total Energy =                       -457.3500293662357308
  Basis Set: 6-31G*
  Basis Set:
  Basis Set: 6-31G*
  Basis Set:
  @DF-RHF Final Energy:  -457.35004065135035
    Total Energy =                       -457.3500406513503549
  Basis Set: 6-31G*
  Basis Set:
  Charge       = 0
  Multiplicity = 1
  Basis Set: 6-31G*
  Basis Set:

    Orbital Energies (a.u.)
    -----------------------

    Doubly Occupied:

       1A    -20.607401     2A    -20.544206     3A    -11.378294
       4A    -11.282653     5A    -11.245392     6A    -11.245140
       7A    -11.243956     8A    -11.241532     9A    -11.237318
      10A    -11.236557    11A     -1.471981    12A     -1.364073
      13A     -1.165112    14A     -1.047996    15A     -1.024651
      16A     -0.978535    17A     -0.860055    18A     -0.834154
      19A     -0.777591    20A     -0.739839    21A     -0.683442
      22A     -0.676954    23A     -0.671737    24A     -0.631054
      25A     -0.623796    26A     -0.597641    27A     -0.584738
      28A     -0.563292    29A     -0.527468    30A     -0.516460
      31A     -0.503518    32A     -0.498678    33A     -0.458557
      34A     -0.444269    35A     -0.344741    36A     -0.340826

  @DF-RHF Final Energy:  -457.35004148831956

   => Energetics <=

    Nuclear Repulsion Energy =            492.8790024436950716
    One-Electron Energy =               -1600.0708771693377912
    Two-Electron Energy =                 649.8418332373231578
    DFT Exchange-Correlation Energy =       0.0000000000000000
    Empirical Dispersion Energy =           0.0000000000000000
    PCM Polarization Energy =               0.0000000000000000
    EFP Energy =                            0.0000000000000000
    Total Energy =                       -457.3500414883195617
    Molecular point group: c1
  Basis Set: 6-31G*
  Basis Set:

  -Total Gradient:
     Atom            X                  Y                   Z
    ------   -----------------  -----------------  -----------------
       1        0.000001127157    -0.000000249445     0.000000140064
       2       -0.000000958035    -0.000002429425     0.000007961352
       3       -0.000002222611     0.000003534737     0.000001470540
       4        0.000014337551     0.000001831689    -0.000003816463
       5        0.000002414086     0.000001305959     0.000001410073
       6        0.000013983265    -0.000002066967    -0.000004424223
       7        0.000004384118     0.000000710041    -0.000000513295
       8        0.000015739332    -0.000007197485     0.000007943659
       9        0.000001551507    -0.000001242250     0.000006646015
      10        0.000012172643     0.000012972001     0.000009436459
      11        0.000008861933     0.000005896405    -0.000010881946
      12       -0.000191555858     0.001371285623     0.000223590630
      13        0.000178030122    -0.001736444167    -0.000153903943
      14       -0.000064539387    -0.000022585132     0.000060711479
      15        0.000173938554    -0.000985296772    -0.000905735332
      16       -0.000132612132     0.001389992439     0.000747806045
      17       -0.000034117488     0.000007984312     0.000020900612
      18       -0.000000534771    -0.000038001565    -0.000008741725

  **** Optimization is complete! (in 6 steps) ****
    Final optimized geometry and variables:
    Molecular point group: c1

    Geometry (in Angstrom), charge = 0, multiplicity = 1:

    H           -4.032170274305    -0.442870352184     0.004379865538
    C           -2.962934417332    -0.332456823815     0.039726508624
    C           -2.293961397935    -0.463320965446     1.247440699626
    C           -2.258287981464    -0.059958953251    -1.122203105994
    H           -2.841587183263    -0.674821285611     2.147895892398
    C           -0.919119385801    -0.321437158105     1.292016744895
    H           -2.778545529679     0.041027363971    -2.057463035719
    C           -0.881975820424     0.082725669991    -1.079888596260
    H           -0.385048670544    -0.419555298952     2.217615872717
    C           -0.208537270582    -0.047716020727     0.128933856601
    H           -0.332893116920     0.293384637850    -1.976747615835
    C            1.271423691404     0.096572223987     0.231564068931
    O            1.847240658545     0.349134765844    -0.934472831192
    O            1.878899788733    -0.005208992776     1.251090157516
    C            3.251355298661     0.539237971825    -0.945581407828
    H            3.473202211119     1.068237829320    -1.859523224328
    H            3.755490499804    -0.417165694830    -0.930850620492
    H            3.563400175774     1.122482193683    -0.093737906517

  Mulliken Charges: (a.u.)
   Center  Symbol    Alpha    Beta     Spin     Total
       1     H     0.39543  0.39543  0.00000  0.20915
       2     C     3.09000  3.09000  0.00000 -0.18000
       3     C     3.10710  3.10710  0.00000 -0.21420
       4     C     3.10715  3.10715  0.00000 -0.21430
       5     H     0.39541  0.39541  0.00000  0.20919
       6     C     3.08645  3.08645  0.00000 -0.17289
       7     H     0.39631  0.39631  0.00000  0.20738
       8     C     3.08709  3.08709  0.00000 -0.17418
       9     H     0.37596  0.37596  0.00000  0.24809
      10     C     3.07730  3.07730  0.00000 -0.15460
      11     H     0.38049  0.38049  0.00000  0.23902
      12     C     2.57956  2.57956  0.00000  0.84087
      13     O     4.31537  4.31537  0.00000 -0.63073
      14     O     4.29167  4.29167  0.00000 -0.58334
      15     C     3.09378  3.09378  0.00000 -0.18757
      16     H     0.40858  0.40858  0.00000  0.18284
      17     H     0.41068  0.41068  0.00000  0.17864
      18     H     0.40169  0.40169  0.00000  0.19663

   Total alpha = 36.00000, Total beta = 36.00000, Total charge = -0.00000
