  ==> Input File <==

--------------------------------------------------------------------------
set {
	reference rhf
	basis cc-pvtz
}

set_num_threads( 4 )
memory 2 gb

molecule MOL {
0 1

H	 -1.754479	 1.152525	 -0.009653
N	 -1.851927	 0.161443	 -0.071573
C	 -0.561396	 -0.500007	 0.035200
H	 -2.283110	 -0.037970	 -0.950009
C	 0.575129	 0.507849	 -0.048832
H	 -0.478089	 -1.200753	 -0.788956
H	 -0.456191	 -1.081816	 0.952176
C	 1.951750	 -0.141983	 0.035101
H	 0.478254	 1.061643	 -0.975981
H	 0.467676	 1.231891	 0.755499
H	 2.101550	 -0.848142	 -0.774949
H	 2.738260	 0.600794	 -0.026526
H	 2.078939	 -0.679792	 0.968824

	symmetry c1
}
set optking {
	frozen_dihedral = ("
		1 2 3 6
	")
}

ee = optimize('scf')
oeprop('DIPOLE', 'QUADRUPOLE', 'MULLIKEN_CHARGES')
f=open( 'psi4out.xyz', 'w' )
f.write( "13  " )
f.write( str(ee) + "\n" )
f.write( MOL.save_string_xyz() )
f.close()
--------------------------------------------------------------------------

    Molecular point group: c1
  Charge       = 0
  Multiplicity = 1
  Basis Set: CC-PVTZ
  Basis Set:
  @DF-RHF Final Energy:  -173.34795247301659
    Total Energy =                       -173.3479524730164201
    Molecular point group: c1
  Basis Set: CC-PVTZ
  Basis Set:
  Basis Set: CC-PVTZ
  Basis Set:
  @DF-RHF Final Energy:  -173.34886481769840
    Total Energy =                       -173.3488648176984839
  Basis Set: CC-PVTZ
  Basis Set:
  Basis Set: CC-PVTZ
  Basis Set:
  @DF-RHF Final Energy:  -173.34900531108772
    Total Energy =                       -173.3490053110875806
  Basis Set: CC-PVTZ
  Basis Set:
  Basis Set: CC-PVTZ
  Basis Set:
  @DF-RHF Final Energy:  -173.34900667159050
    Total Energy =                       -173.3490066715905868
  Basis Set: CC-PVTZ
  Basis Set:
  Charge       = 0
  Multiplicity = 1
  Basis Set: CC-PVTZ
  Basis Set:

    Orbital Energies (a.u.)
    -----------------------

    Doubly Occupied:

       1A    -15.524179     2A    -11.238386     3A    -11.216230
       4A    -11.210231     5A     -1.176067     6A     -1.038942
       7A     -0.900626     8A     -0.807680     9A     -0.666942
      10A     -0.621946    11A     -0.606477    12A     -0.556252
      13A     -0.543105    14A     -0.501352    15A     -0.484276
      16A     -0.471075    17A     -0.378970

  @DF-RHF Final Energy:  -173.34900682618374

   => Energetics <=

    Nuclear Repulsion Energy =            131.8912579688284552
    One-Electron Energy =                -494.5950592416287463
    Two-Electron Energy =                 189.3547944466164665
    DFT Exchange-Correlation Energy =       0.0000000000000000
    Empirical Dispersion Energy =           0.0000000000000000
    PCM Polarization Energy =               0.0000000000000000
    EFP Energy =                            0.0000000000000000
    Total Energy =                       -173.3490068261838530
    Molecular point group: c1
  Basis Set: CC-PVTZ
  Basis Set:

  -Total Gradient:
     Atom            X                  Y                   Z
    ------   -----------------  -----------------  -----------------
       1        0.000096239342     0.000082316891    -0.001476005171
       2        0.000032851772     0.000147365772     0.001654358095
       3       -0.000628779102    -0.001189168030     0.000590864532
       4        0.000008151268    -0.000007740133     0.000005927813
       5       -0.000032282053    -0.000014695354    -0.000007322281
       6        0.000495643577     0.000980496205    -0.000788830570
       7        0.000012086055    -0.000001982474     0.000007863287
       8        0.000002944990     0.000008399389     0.000016286463
       9       -0.000007839364    -0.000004712769     0.000003031090
      10        0.000003726635     0.000000541944    -0.000007935036
      11       -0.000005271587     0.000007154728     0.000003572983
      12        0.000017122077    -0.000003359473     0.000003081145
      13        0.000005406393    -0.000004616695    -0.000004892350

  **** Optimization is complete! (in 5 steps) ****
    Final optimized geometry and variables:
    Molecular point group: c1

    Geometry (in Angstrom), charge = 0, multiplicity = 1:

    H           -1.821838327230     1.124231330485     0.043991636340
    N           -1.885992828091     0.131126563458    -0.017347867839
    C           -0.567772636880    -0.495231069351     0.031505420910
    H           -2.359495369808    -0.078013843311    -0.868157398667
    C            0.584223924962     0.500592932755    -0.038879623043
    H           -0.470921312678    -1.198380017844    -0.789672955990
    H           -0.478285464254    -1.072011188136     0.947222690003
    C            1.951963625945    -0.162999096195     0.075120575688
    H            0.519902723475     1.052807378449    -0.972635912695
    H            0.468454765592     1.228348955592     0.760685512216
    H            2.110666069444    -0.874255028924    -0.728653008743
    H            2.748140913144     0.570514634573     0.028260653181
    H            2.050441799633    -0.698201098036     1.013351672657

  Mulliken Charges: (a.u.)
   Center  Symbol    Alpha    Beta     Spin     Total
       1     H     0.42879  0.42879  0.00000  0.14242
       2     N     3.69526  3.69526  0.00000 -0.39053
       3     C     3.01475  3.01475  0.00000 -0.02949
       4     H     0.42796  0.42796  0.00000  0.14408
       5     C     3.08576  3.08576  0.00000 -0.17152
       6     H     0.46266  0.46266  0.00000  0.07468
       7     H     0.46229  0.46229  0.00000  0.07543
       8     C     3.15268  3.15268  0.00000 -0.30537
       9     H     0.45704  0.45704  0.00000  0.08591
      10     H     0.45550  0.45550  0.00000  0.08899
      11     H     0.45546  0.45546  0.00000  0.08909
      12     H     0.44793  0.44793  0.00000  0.10413
      13     H     0.45391  0.45391  0.00000  0.09218

   Total alpha = 17.00000, Total beta = 17.00000, Total charge = -0.00000
