                              Psi4 1.0.54 Driver

  ==> Input File <==

--------------------------------------------------------------------------
set {
	reference rhf
	basis cc-pvtz
}

set_num_threads( 4 )
memory 2 gb

molecule MOL {
0 1

O	 -0.694481	 1.313155	 -0.204815
C	 -0.862519	 0.151932	 -0.046791
C	 -2.171428	 -0.477048	 0.339095
O	 0.085519	 -0.757083	 -0.192238
H	 -2.467997	 -1.191667	 -0.417688
H	 -2.923379	 0.287970	 0.444097
H	 -2.053854	 -1.015120	 1.270901
C	 0.724313	 -0.883763	 -1.457296
C	 1.868761	 0.096852	 -1.607407
H	 -0.006699	 -0.750952	 -2.239472
H	 1.084190	 -1.901438	 -1.481358
H	 2.371747	 -0.073948	 -2.552544
H	 1.508511	 1.116369	 -1.593695
H	 2.590230	 -0.032052	 -0.809623

	symmetry c1
}
set optking {
	frozen_dihedral = ("
		8 4 2 1
	")
}

ee,wfn = optimize('scf', return_wfn=True)
oeprop( wfn, 'DIPOLE', 'QUADRUPOLE', 'MULLIKEN_CHARGES')
f=open( 'psi4out.xyz', 'w' )
f.write( "14  " )
f.write( str(ee) + "\n" )
f.write( MOL.save_string_xyz() )
f.close()
--------------------------------------------------------------------------

    Molecular point group: c1
  Charge       = 0
  Multiplicity = 1
  Basis Set: CC-PVTZ
  Basis Set:
  @DF-RHF Final Energy:  -305.97592020203189
    Total Energy =                       -305.9759202020320572
    Molecular point group: c1
  Basis Set: CC-PVTZ
  Basis Set:
  Basis Set: CC-PVTZ
  Basis Set:
  @DF-RHF Final Energy:  -305.95278200134840
    Total Energy =                       -305.9527820013486803
  Basis Set: CC-PVTZ
  Basis Set:
  Basis Set: CC-PVTZ
  Basis Set:
  @DF-RHF Final Energy:  -305.97451279746838
    Total Energy =                       -305.9745127974683214
  Basis Set: CC-PVTZ
  Basis Set:
  Basis Set: CC-PVTZ
  Basis Set:
  @DF-RHF Final Energy:  -305.97584816885262
    Total Energy =                       -305.9758481688527922
  Basis Set: CC-PVTZ
  Basis Set:
  @DF-RHF Final Energy:  -305.97716893207121
    Total Energy =                       -305.9771689320712653
  @DF-RHF Final Energy:  -305.97724909702674
    Total Energy =                       -305.9772490970269700
  @DF-RHF Final Energy:  -305.97728706191776
    Total Energy =                       -305.9772870619177638
  Basis Set: CC-PVTZ
  Basis Set:
  @DF-RHF Final Energy:  -305.97730600795762
    Total Energy =                       -305.9773060079575089
  Basis Set: CC-PVTZ
  Basis Set:
  Basis Set: CC-PVTZ
  Basis Set:
  @DF-RHF Final Energy:  -305.97731493553505
    Total Energy =                       -305.9773149355352189
  Basis Set: CC-PVTZ
  Basis Set:
  Basis Set: CC-PVTZ
  Basis Set:
  @DF-RHF Final Energy:  -305.97731680324432
    Total Energy =                       -305.9773168032443209
  Basis Set: CC-PVTZ
  Basis Set:
  Charge       = 0
  Multiplicity = 1
  Basis Set: CC-PVTZ
  Basis Set:

    Orbital Energies (a.u.)
    -----------------------

    Doubly Occupied:

       1A    -20.579926     2A    -20.541412     3A    -11.369955
       4A    -11.290911     5A    -11.233661     6A    -11.214735
       7A     -1.462912     8A     -1.367242     9A     -1.051412
      10A     -1.002368    11A     -0.878864    12A     -0.773798
      13A     -0.697591    14A     -0.684905    15A     -0.657094
      16A     -0.614487    17A     -0.583689    18A     -0.576466
      19A     -0.564358    20A     -0.535232    21A     -0.507641
      22A     -0.497899    23A     -0.451410    24A     -0.441293

  @DF-RHF Final Energy:  -305.97731733492492

   => Energetics <=

    Nuclear Repulsion Energy =            247.1994025243440944
    One-Electron Energy =                -907.1949144032760159
    Two-Electron Energy =                 354.0181945440073150
    DFT Exchange-Correlation Energy =       0.0000000000000000
    Empirical Dispersion Energy =           0.0000000000000000
    PCM Polarization Energy =               0.0000000000000000
    EFP Energy =                            0.0000000000000000
    Total Energy =                       -305.9773173349245781
    Molecular point group: c1
  Basis Set: CC-PVTZ
  Basis Set:

  -Total Gradient:
     Atom            X                  Y                   Z
    ------   -----------------  -----------------  -----------------
       1        0.002792623212     0.005724224519     0.007155513894
       2       -0.005657805567    -0.012101021184    -0.009814039151
       3        0.000111915946     0.000184975018     0.000183419240
       4        0.005757834533     0.012739238091     0.000904585353
       5       -0.000017207973     0.000027089274    -0.000020523006
       6        0.000019789756    -0.000033028836    -0.000008071054
       7       -0.000034476569    -0.000016699109    -0.000045559128
       8       -0.002923031514    -0.006544795738     0.001620916251
       9       -0.000047326352     0.000006620950     0.000028366033
      10        0.000038150860     0.000004051799     0.000034209289
      11       -0.000025613318     0.000060256269    -0.000034204702
      12       -0.000009562838     0.000011498142     0.000013026163
      13        0.000037112156    -0.000061957799     0.000016089551
      14       -0.000042402332    -0.000000451394    -0.000033728735

  **** Optimization is complete! (in 11 steps) ****
    Final optimized geometry and variables:
    Molecular point group: c1

    Geometry (in Angstrom), charge = 0, multiplicity = 1:

    O           -1.024478937811     1.177924849466    -0.212762412577
    C           -0.749767744505     0.249335066953     0.460309523943
    C           -1.666117051772    -0.362250713028     1.480463115346
    O            0.466198825056    -0.310007140225     0.465780169967
    H           -1.861055806197    -1.394607536118     1.214536607527
    H           -2.591392936037     0.188717915890     1.528409986717
    H           -1.175971383617    -0.363665730746     2.445340031100
    C            0.968543269124    -0.842712403573    -0.756168741471
    C            1.972069981376     0.088311950996    -1.402099342034
    H            0.142691187994    -1.038608750838    -1.428195106403
    H            1.427048719309    -1.785495528903    -0.495360794256
    H            2.376766910468    -0.370573198409    -2.297797672501
    H            1.504340128846     1.025106695470    -1.670684075639
    H            2.790031892648     0.291626456902    -0.722143403025

  Mulliken Charges: (a.u.)
   Center  Symbol    Alpha    Beta     Spin     Total
       1     O     4.18072  4.18072  0.00000 -0.36144
       2     C     2.80823  2.80823  0.00000  0.38354
       3     C     3.13406  3.13406  0.00000 -0.26812
       4     O     4.17009  4.17009  0.00000 -0.34019
       5     H     0.45059  0.45059  0.00000  0.09883
       6     H     0.43853  0.43853  0.00000  0.12295
       7     H     0.44311  0.44311  0.00000  0.11378
       8     C     2.98069  2.98069  0.00000  0.03861
       9     C     3.13627  3.13627  0.00000 -0.27253
      10     H     0.46251  0.46251  0.00000  0.07498
      11     H     0.44559  0.44559  0.00000  0.10881
      12     H     0.45545  0.45545  0.00000  0.08910
      13     H     0.44209  0.44209  0.00000  0.11581
      14     H     0.45207  0.45207  0.00000  0.09586

   Total alpha = 24.00000, Total beta = 24.00000, Total charge =  0.00000

*** Psi4 exiting successfully. Buy a developer a beer!
