  ==> Input File <==

--------------------------------------------------------------------------
set {
	reference rhf
	basis 6-31G*
}

set_num_threads( 1 )
memory 2 gb

molecule MOL {
0 1

H	 -3.135461	 -1.215070	 0.001379
O	 -2.310168	 -0.871793	 -0.309793
C	 -2.026376	 0.340750	 0.341611
C	 -0.673256	 0.843270	 -0.132153
H	 -2.792215	 1.080697	 0.115987
H	 -2.013526	 0.200402	 1.421792
C	 0.486613	 -0.083066	 0.235839
H	 -0.715586	 0.970948	 -1.210718
H	 -0.508072	 1.829858	 0.297090
C	 1.409848	 -0.380756	 -0.946884
H	 0.088301	 -1.012092	 0.630517
H	 1.067112	 0.370858	 1.038220
C	 2.572243	 -1.301762	 -0.577753
H	 0.831482	 -0.834916	 -1.748725
H	 1.802422	 0.552805	 -1.345371
H	 2.211693	 -2.257466	 -0.208261
H	 3.208375	 -1.497130	 -1.435722
H	 3.190802	 -0.860480	 0.198884

	symmetry c1
}
set optking {
	frozen_dihedral = ("
		14 10 7 11,
		2 3 4 8,
		1 2 3 4
	")
}

ee = energy('scf')
oeprop('DIPOLE', 'QUADRUPOLE', 'MULLIKEN_CHARGES')
f=open( 'psi4out.xyz', 'w' )
f.write( "18  " )
f.write( str(ee) + "\n" )
f.write( MOL.save_string_xyz() )
f.close()
--------------------------------------------------------------------------

    Molecular point group: c1

    Geometry (in Angstrom), charge = 0, multiplicity = 1:

       Center              X                  Y                   Z               Mass
    ------------   -----------------  -----------------  -----------------  -----------------
           H         -2.993996588443    -0.946982458513     0.230348900632     1.007825032070
           O         -2.168703588443    -0.603705458513    -0.080823099368    15.994914619560
           C         -1.884911588443     0.608837541487     0.570580900632    12.000000000000
           C         -0.531791588443     1.111357541487     0.096816900632    12.000000000000
           H         -2.650750588443     1.348784541487     0.344956900632     1.007825032070
           H         -1.872061588443     0.468489541487     1.650761900632     1.007825032070
           C          0.628077411557     0.185021541487     0.464808900632    12.000000000000
           H         -0.574121588443     1.239035541487    -0.981748099368     1.007825032070
           H         -0.366607588443     2.097945541487     0.526059900632     1.007825032070
           C          1.551312411557    -0.112668458513    -0.717914099368    12.000000000000
           H          0.229765411557    -0.744004458513     0.859486900632     1.007825032070
           H          1.208576411557     0.638945541487     1.267189900632     1.007825032070
           C          2.713707411557    -1.033674458513    -0.348783099368    12.000000000000
           H          0.972946411557    -0.566828458513    -1.519755099368     1.007825032070
           H          1.943886411557     0.820892541487    -1.116401099368     1.007825032070
           H          2.353157411557    -1.989378458513     0.020708900632     1.007825032070
           H          3.349839411557    -1.229042458513    -1.206752099368     1.007825032070
           H          3.332266411557    -0.592392458513     0.427853900632     1.007825032070

  Charge       = 0
  Multiplicity = 1
  Basis Set: 6-31G*
  Basis Set:

    Orbital Energies (a.u.)
    -----------------------

    Doubly Occupied:

       1A    -20.553772     2A    -11.268187     3A    -11.210600
       4A    -11.208090     5A    -11.205279     6A    -11.202124
       7A     -1.360428     8A     -1.073602     9A     -1.007201
      10A     -0.912099    11A     -0.817643    12A     -0.782808
      13A     -0.705677    14A     -0.639176    15A     -0.623116
      16A     -0.581431    17A     -0.568859    18A     -0.559235
      19A     -0.520601    20A     -0.498485    21A     -0.488451
      22A     -0.467005    23A     -0.452758    24A     -0.445700
      25A     -0.429493

  @DF-RHF Final Energy:  -271.17533108585712

   => Energetics <=

    Nuclear Repulsion Energy =            251.2513769423075303
    One-Electron Energy =                -865.6896370462511641
    Two-Electron Energy =                 343.2629290180863109
    DFT Exchange-Correlation Energy =       0.0000000000000000
    Empirical Dispersion Energy =           0.0000000000000000
    PCM Polarization Energy =               0.0000000000000000
    EFP Energy =                            0.0000000000000000
    Total Energy =                       -271.1753310858573514

  Mulliken Charges: (a.u.)
   Center  Symbol    Alpha    Beta     Spin     Total
       1     H     0.28044  0.28044  0.00000  0.43912
       2     O     4.36926  4.36926  0.00000 -0.73851
       3     C     3.00053  3.00053  0.00000 -0.00106
       4     C     3.16171  3.16171  0.00000 -0.32343
       5     H     0.42964  0.42964  0.00000  0.14071
       6     H     0.43252  0.43252  0.00000  0.13496
       7     C     3.15334  3.15334  0.00000 -0.30669
       8     H     0.41275  0.41275  0.00000  0.17451
       9     H     0.42180  0.42180  0.00000  0.15640
      10     C     3.15434  3.15434  0.00000 -0.30869
      11     H     0.41100  0.41100  0.00000  0.17800
      12     H     0.42565  0.42565  0.00000  0.14871
      13     C     3.23991  3.23991  0.00000 -0.47983
      14     H     0.41660  0.41660  0.00000  0.16680
      15     H     0.42524  0.42524  0.00000  0.14952
      16     H     0.42101  0.42101  0.00000  0.15798
      17     H     0.42059  0.42059  0.00000  0.15882
      18     H     0.42366  0.42366  0.00000  0.15268

   Total alpha = 25.00000, Total beta = 25.00000, Total charge =  0.00000
