  ==> Input File <==

--------------------------------------------------------------------------
set {
	reference rhf
	basis cc-pvtz
}

set_num_threads( 4 )
memory 2 gb

molecule MOL {
0 1

H	 -2.113402	 -1.135035	 -1.124254
N	 -1.401579	 -0.436304	 -1.149882
C	 -0.561396	 -0.500007	 0.035200
H	 -1.859604	 0.448745	 -1.214976
C	 0.575129	 0.507849	 -0.048832
H	 -0.146640	 -1.500820	 0.094940
H	 -1.116954	 -0.336059	 0.959803
C	 1.951750	 -0.141983	 0.035101
H	 0.478254	 1.061643	 -0.975981
H	 0.467676	 1.231891	 0.755499
H	 2.101550	 -0.848142	 -0.774949
H	 2.738260	 0.600794	 -0.026526
H	 2.078939	 -0.679792	 0.968824

	symmetry c1
}
set optking {
	frozen_dihedral = ("
		6 3 5 9
	")
}

ee = optimize('scf')
oeprop('DIPOLE', 'QUADRUPOLE', 'MULLIKEN_CHARGES')
f=open( 'psi4out.xyz', 'w' )
f.write( "13  " )
f.write( str(ee) + "\n" )
f.write( MOL.save_string_xyz() )
f.close()
--------------------------------------------------------------------------

    Molecular point group: c1
  Charge       = 0
  Multiplicity = 1
  Basis Set: CC-PVTZ
  Basis Set:
  @DF-RHF Final Energy:  -173.34618230200445
    Total Energy =                       -173.3461823020044221
    Molecular point group: c1
  Basis Set: CC-PVTZ
  Basis Set:
  Basis Set: CC-PVTZ
  Basis Set:
  @DF-RHF Final Energy:  -173.34647619801200
    Total Energy =                       -173.3464761980117146
  Basis Set: CC-PVTZ
  Basis Set:
  Basis Set: CC-PVTZ
  Basis Set:
  @DF-RHF Final Energy:  -173.34656854421456
    Total Energy =                       -173.3465685442146196
  Basis Set: CC-PVTZ
  Basis Set:
  Charge       = 0
  Multiplicity = 1
  Basis Set: CC-PVTZ
  Basis Set:

    Orbital Energies (a.u.)
    -----------------------

    Doubly Occupied:

       1A    -15.527347     2A    -11.238395     3A    -11.210231
       4A    -11.205224     5A     -1.177494     6A     -1.032886
       7A     -0.898418     8A     -0.800736     9A     -0.655079
      10A     -0.640045    11A     -0.595748    12A     -0.567033
      13A     -0.533014    14A     -0.487447    15A     -0.476016
      16A     -0.468883    17A     -0.382654

  @DF-RHF Final Energy:  -173.34656936675998

   => Energetics <=

    Nuclear Repulsion Energy =            132.0373764493280646
    One-Electron Energy =                -494.9745927172727988
    Two-Electron Energy =                 189.5906469011847548
    DFT Exchange-Correlation Energy =       0.0000000000000000
    Empirical Dispersion Energy =           0.0000000000000000
    PCM Polarization Energy =               0.0000000000000000
    EFP Energy =                            0.0000000000000000
    Total Energy =                       -173.3465693667599794
    Molecular point group: c1
  Basis Set: CC-PVTZ
  Basis Set:

  -Total Gradient:
     Atom            X                  Y                   Z
    ------   -----------------  -----------------  -----------------
       1       -0.000010255757    -0.000007375422    -0.000020222275
       2        0.000010867061    -0.000044352498     0.000075586181
       3       -0.000104680751     0.000115234134    -0.000566102246
       4        0.000032648032    -0.000018944637     0.000027210968
       5        0.000339055723    -0.000352365134    -0.000100425024
       6       -0.000014175459     0.000021029569     0.000364091756
       7       -0.000002245981    -0.000012284705     0.000030204039
       8       -0.000023528648     0.000027940088     0.000011417039
       9       -0.000233200520     0.000276413182     0.000166135929
      10        0.000003683517     0.000000682608    -0.000002256187
      11       -0.000010713761    -0.000005446541     0.000011304136
      12        0.000002574564     0.000002141430    -0.000007439223
      13        0.000009971982    -0.000002672072     0.000010494907

  **** Optimization is complete! (in 4 steps) ****
    Final optimized geometry and variables:
    Molecular point group: c1

    Geometry (in Angstrom), charge = 0, multiplicity = 1:

    H           -2.241642214448    -0.983899475204    -0.827697706264
    N           -1.519575571628    -0.295457671523    -0.864887966127
    C           -0.684917633374    -0.352196148327     0.327615029761
    H           -1.967806318755     0.593921048791    -0.941399205303
    C            0.470584154450     0.661689372783     0.252376232440
    H           -0.283401090588    -1.356623267986     0.393107589082
    H           -1.253588498948    -0.190339257737     1.242478449312
    C            1.851239329009     0.017067305141     0.323086096940
    H            0.382684638216     1.212454338792    -0.676997349999
    H            0.376250494347     1.388883745468     1.052220811526
    H            1.991429698041    -0.682922730850    -0.493267036885
    H            2.636347884361     0.762230333052     0.262859479735
    H            1.982883130879    -0.526812637487     1.252963909612

  Mulliken Charges: (a.u.)
   Center  Symbol    Alpha    Beta     Spin     Total
       1     H     0.42992  0.42992  0.00000  0.14016
       2     N     3.68822  3.68822  0.00000 -0.37645
       3     C     3.02803  3.02803  0.00000 -0.05605
       4     H     0.43078  0.43078  0.00000  0.13844
       5     C     3.08178  3.08178  0.00000 -0.16357
       6     H     0.45930  0.45930  0.00000  0.08139
       7     H     0.46529  0.46529  0.00000  0.06942
       8     C     3.14947  3.14947  0.00000 -0.29894
       9     H     0.45369  0.45369  0.00000  0.09262
      10     H     0.45442  0.45442  0.00000  0.09116
      11     H     0.45146  0.45146  0.00000  0.09708
      12     H     0.45104  0.45104  0.00000  0.09792
      13     H     0.45659  0.45659  0.00000  0.08682

   Total alpha = 17.00000, Total beta = 17.00000, Total charge = -0.00000
