  ==> Input File <==

--------------------------------------------------------------------------
set {
	reference rhf
	basis 6-31G*
}

set_num_threads( 4 )
memory 2 gb

molecule MOL {
0 1

H	 3.815643	 0.280271	 -0.520354
N	 3.092854	 -0.246221	 -0.068770
C	 1.865559	 0.531981	 0.018834
H	 3.430138	 -0.474182	 0.847256
C	 0.645745	 -0.382037	 -0.029944
H	 1.841966	 1.207024	 -0.831236
H	 1.815756	 1.155410	 0.915079
C	 -0.679275	 0.379305	 0.025956
H	 0.698998	 -0.976915	 -0.937203
H	 0.693479	 -1.083846	 0.802235
C	 -1.903357	 -0.536963	 -0.023547
H	 -0.726309	 1.082987	 -0.803784
H	 -0.717680	 0.977832	 0.934877
C	 -3.225172	 0.228290	 0.028445
H	 -1.867824	 -1.134999	 -0.931459
H	 -1.860449	 -1.239604	 0.805977
H	 -3.313397	 0.915643	 -0.808262
H	 -4.073500	 -0.448134	 -0.008893
H	 -3.306061	 0.809945	 0.942516

	symmetry c1
}
set optking {
	frozen_dihedral = ("
		1 2 3 6
	")
}

ee = optimize('scf')
oeprop('DIPOLE', 'QUADRUPOLE', 'MULLIKEN_CHARGES')
f=open( 'psi4out.xyz', 'w' )
f.write( "19  " )
f.write( str(ee) + "\n" )
f.write( MOL.save_string_xyz() )
f.close()
--------------------------------------------------------------------------

    Molecular point group: c1
  Charge       = 0
  Multiplicity = 1
  Basis Set: 6-31G*
  Basis Set:
  @DF-RHF Final Energy:  -251.35008902677347
    Total Energy =                       -251.3500890267734462
    Molecular point group: c1
  Basis Set: 6-31G*
  Basis Set:
  Basis Set: 6-31G*
  Basis Set:
  @DF-RHF Final Energy:  -251.35029354368706
    Total Energy =                       -251.3502935436870303
  Basis Set: 6-31G*
  Basis Set:
  Basis Set: 6-31G*
  Basis Set:
  @DF-RHF Final Energy:  -251.35035210264320
    Total Energy =                       -251.3503521026433418
  Basis Set: 6-31G*
  Basis Set:
  Basis Set: 6-31G*
  Basis Set:
  @DF-RHF Final Energy:  -251.35035321425278
    Total Energy =                       -251.3503532142526069
  Basis Set: 6-31G*
  Basis Set:
  Basis Set: 6-31G*
  Basis Set:
  @DF-RHF Final Energy:  -251.35035433729166
    Total Energy =                       -251.3503543372916056
  Basis Set: 6-31G*
  Basis Set:
  Charge       = 0
  Multiplicity = 1
  Basis Set: 6-31G*
  Basis Set:

    Orbital Energies (a.u.)
    -----------------------

    Doubly Occupied:

       1A    -15.530872     2A    -11.240073     3A    -11.212407
       4A    -11.210626     5A    -11.206401     6A    -11.205112
       7A     -1.174030     8A     -1.071128     9A     -0.997029
      10A     -0.899567    11A     -0.811127    12A     -0.786491
      13A     -0.672511    14A     -0.636899    15A     -0.614940
      16A     -0.582476    17A     -0.566335    18A     -0.552329
      19A     -0.522023    20A     -0.502154    21A     -0.475170
      22A     -0.463073    23A     -0.458495    24A     -0.453014
      25A     -0.376233

  @DF-RHF Final Energy:  -251.35035441550704

   => Energetics <=

    Nuclear Repulsion Energy =            245.3585519396782217
    One-Electron Energy =                -824.9767848109013357
    Two-Electron Energy =                 328.2678784557159020
    DFT Exchange-Correlation Energy =       0.0000000000000000
    Empirical Dispersion Energy =           0.0000000000000000
    PCM Polarization Energy =               0.0000000000000000
    EFP Energy =                            0.0000000000000000
    Total Energy =                       -251.3503544155071836
    Molecular point group: c1
  Basis Set: 6-31G*
  Basis Set:

  -Total Gradient:
     Atom            X                  Y                   Z
    ------   -----------------  -----------------  -----------------
       1       -0.000748071281    -0.001020762786    -0.002491840602
       2        0.001180508197     0.001687768980     0.003445979715
       3       -0.001571344885    -0.002447674406    -0.002343483170
       4        0.000004856914     0.000000098678    -0.000001273349
       5        0.000026205296     0.000029040591     0.000002314449
       6        0.001142279566     0.001759757086     0.001374303790
       7       -0.000008790116     0.000007635838     0.000023033331
       8       -0.000014629751    -0.000010605717    -0.000013189742
       9       -0.000005080986     0.000003397168     0.000004177239
      10       -0.000001540089    -0.000008698949     0.000007235404
      11       -0.000007962100     0.000007397893    -0.000004802125
      12        0.000002564250    -0.000004242966    -0.000004688266
      13       -0.000001061154    -0.000001968165    -0.000007866909
      14       -0.000000217408    -0.000002509941     0.000011794532
      15       -0.000001141785     0.000005580695    -0.000003235523
      16        0.000003146312    -0.000004416411    -0.000001692287
      17        0.000002086160    -0.000003140209    -0.000000155016
      18        0.000000313538     0.000000200533     0.000002925793
      19       -0.000002120676     0.000003142088     0.000000462737

  **** Optimization is complete! (in 6 steps) ****
    Final optimized geometry and variables:
    Molecular point group: c1

    Geometry (in Angstrom), charge = 0, multiplicity = 1:

    H            3.837903690344     0.281487048620    -0.477285975595
    N            3.099752392279    -0.238734410248    -0.048575398157
    C            1.862184625085     0.528822883912     0.006600785574
    H            3.404752521977    -0.518106789710     0.862124604407
    C            0.642560328787    -0.385782006129    -0.035597530686
    H            1.846934028496     1.207757020613    -0.840679639421
    H            1.806827412881     1.163494806285     0.893601180970
    C           -0.683027724049     0.374122025701     0.024550573029
    H            0.693614300958    -0.983415416411    -0.941156930932
    H            0.699842063212    -1.085931787434     0.796325112748
    C           -1.906973415678    -0.542652890410    -0.019465429291
    H           -0.734721051311     1.077983746799    -0.805194015300
    H           -0.718917553028     0.973640016955     0.933200956918
    C           -3.229221786328     0.221227948901     0.041028138769
    H           -1.876064339804    -1.139534310021    -0.928290064790
    H           -1.858646822415    -1.246437523281     0.808732918958
    H           -3.323180227516     0.909191240669    -0.794587310732
    H           -4.077298137154    -0.455881402379     0.008329219188
    H           -3.305169979413     0.802194486268     0.955999861572

  Mulliken Charges: (a.u.)
   Center  Symbol    Alpha    Beta     Spin     Total
       1     H     0.33072  0.33072  0.00000  0.33856
       2     N     3.92668  3.92668  0.00000 -0.85335
       3     C     3.06381  3.06381  0.00000 -0.12761
       4     H     0.33268  0.33268  0.00000  0.33464
       5     C     3.14344  3.14344  0.00000 -0.28687
       6     H     0.42272  0.42272  0.00000  0.15455
       7     H     0.43227  0.43227  0.00000  0.13545
       8     C     3.15630  3.15630  0.00000 -0.31259
       9     H     0.41591  0.41591  0.00000  0.16817
      10     H     0.42587  0.42587  0.00000  0.14827
      11     C     3.15042  3.15042  0.00000 -0.30084
      12     H     0.42496  0.42496  0.00000  0.15007
      13     H     0.42553  0.42553  0.00000  0.14894
      14     C     3.23915  3.23915  0.00000 -0.47830
      15     H     0.42217  0.42217  0.00000  0.15566
      16     H     0.42314  0.42314  0.00000  0.15372
      17     H     0.42215  0.42215  0.00000  0.15570
      18     H     0.41962  0.41962  0.00000  0.16076
      19     H     0.42246  0.42246  0.00000  0.15509

   Total alpha = 25.00000, Total beta = 25.00000, Total charge =  0.00000
