                              Psi4 1.0.54 Driver

  ==> Input File <==

--------------------------------------------------------------------------
set {
	reference rhf
	basis cc-pvtz
}

set_num_threads( 4 )
memory 2 gb

molecule MOL {
0 1

O	 1.216069	 1.304886	 0.000821
C	 1.121787	 0.124983	 0.000110
C	 -0.170912	 -0.649867	 -0.000147
O	 2.167739	 -0.685178	 -0.000678
C	 -1.413045	 0.229353	 0.001137
H	 -0.152877	 -1.303435	 -0.866175
H	 -0.152278	 -1.305116	 0.864586
C	 -2.635704	 -0.492763	 0.559674
H	 -1.614984	 0.565414	 -1.009716
H	 -1.217953	 1.124092	 0.581589
C	 -3.886921	 0.378632	 0.563483
H	 -2.824161	 -1.390076	 -0.023897
H	 -2.427309	 -0.827255	 1.572552
H	 -4.141464	 0.700920	 -0.440471
H	 -4.738089	 -0.159231	 0.964598
H	 -3.741808	 1.267742	 1.167640
C	 3.449556	 -0.089977	 -0.000570
H	 3.585694	 0.522473	 -0.879546
H	 4.155805	 -0.904274	 -0.001389
H	 3.586173	 0.521118	 0.879272

	symmetry c1
}
set optking {
	frozen_dihedral = ("
		9 5 3 6
	")
}

ee,wfn = optimize('scf', return_wfn=True)
oeprop( wfn, 'DIPOLE', 'QUADRUPOLE', 'MULLIKEN_CHARGES')
f=open( 'psi4out.xyz', 'w' )
f.write( "20  " )
f.write( str(ee) + "\n" )
f.write( MOL.save_string_xyz() )
f.close()
--------------------------------------------------------------------------

    Molecular point group: c1
  Charge       = 0
  Multiplicity = 1
  Basis Set: CC-PVTZ
  Basis Set:
  @DF-RHF Final Energy:  -384.08163107670947
    Total Energy =                       -384.0816310767094137
    Molecular point group: c1
  Basis Set: CC-PVTZ
  Basis Set:
  Basis Set: CC-PVTZ
  Basis Set:
  @DF-RHF Final Energy:  -384.08180122576891
    Total Energy =                       -384.0818012257691407
  Basis Set: CC-PVTZ
  Basis Set:
  Basis Set: CC-PVTZ
  Basis Set:
  @DF-RHF Final Energy:  -384.08177454435747
    Total Energy =                       -384.0817745443575859
  Basis Set: CC-PVTZ
  Basis Set:
  Basis Set: CC-PVTZ
  Basis Set:
  @DF-RHF Final Energy:  -384.08182390531704
    Total Energy =                       -384.0818239053173784
  Basis Set: CC-PVTZ
  Basis Set:
  Basis Set: CC-PVTZ
  Basis Set:
  @DF-RHF Final Energy:  -384.08184176048479
    Total Energy =                       -384.0818417604842807
  Basis Set: CC-PVTZ
  Basis Set:
  Charge       = 0
  Multiplicity = 1
  Basis Set: CC-PVTZ
  Basis Set:

    Orbital Energies (a.u.)
    -----------------------

    Doubly Occupied:

       1A    -20.596338     2A    -20.534342     3A    -11.364721
       4A    -11.278553     5A    -11.234183     6A    -11.218165
       7A    -11.216954     8A    -11.208535     9A     -1.472333
      10A     -1.365887    11A     -1.089240    12A     -1.025389
      13A     -0.969557    14A     -0.886549    15A     -0.804345
      16A     -0.769255    17A     -0.699339    18A     -0.686327
      19A     -0.675960    20A     -0.645800    21A     -0.599357
      22A     -0.593317    23A     -0.580025    24A     -0.543530
      25A     -0.535028    26A     -0.523727    27A     -0.503262
      28A     -0.478942    29A     -0.472794    30A     -0.470630
      31A     -0.459794    32A     -0.440090

  @DF-RHF Final Energy:  -384.08184218544119

   => Energetics <=

    Nuclear Repulsion Energy =            381.7561569777911359
    One-Electron Energy =               -1279.7914611612245608
    Two-Electron Energy =                 513.9534619979920080
    DFT Exchange-Correlation Energy =       0.0000000000000000
    Empirical Dispersion Energy =           0.0000000000000000
    PCM Polarization Energy =               0.0000000000000000
    EFP Energy =                            0.0000000000000000
    Total Energy =                       -384.0818421854414737
    Molecular point group: c1
  Basis Set: CC-PVTZ
  Basis Set:

  -Total Gradient:
     Atom            X                  Y                   Z
    ------   -----------------  -----------------  -----------------
       1        0.000004561437    -0.000019285300     0.000018781689
       2        0.000001250427    -0.000042714981    -0.000043802157
       3       -0.002467733193    -0.003490283987     0.001982990566
       4        0.000020051600     0.000021049163     0.000011272358
       5        0.002715061877     0.003778904238     0.000282467378
       6        0.001653517195     0.002309258912    -0.001667630308
       7        0.000005023544    -0.000010893076    -0.000002942298
       8       -0.000001421157     0.000018712866    -0.000109783937
       9       -0.001894283623    -0.002628017527    -0.000491282745
      10        0.000001716272     0.000065601638    -0.000006239905
      11       -0.000050532663    -0.000002228120     0.000037956757
      12       -0.000019153999    -0.000047755608    -0.000019540628
      13        0.000033812585     0.000018015912    -0.000002565273
      14       -0.000001630399    -0.000006300963    -0.000019763340
      15       -0.000033395925     0.000008212939     0.000014214483
      16       -0.000000647106     0.000027164775     0.000014936355
      17        0.000020668642    -0.000003357904    -0.000007820016
      18        0.000000471734    -0.000002963187     0.000003069530
      19        0.000009126893     0.000000551882    -0.000001128888
      20        0.000003535861     0.000006328328     0.000006810379

  **** Optimization is complete! (in 6 steps) ****
    Final optimized geometry and variables:
    Molecular point group: c1

    Geometry (in Angstrom), charge = 0, multiplicity = 1:

    O            1.217924151930     1.285732358817    -0.132087809843
    C            1.111872343856     0.106901731425    -0.128507493423
    C           -0.186643255353    -0.661823348308    -0.099532946061
    O            2.150606796966    -0.712533279777    -0.152469949382
    C           -1.428370182809     0.224365828760    -0.091451712771
    H           -0.169674949238    -1.307117161664    -0.971075632899
    H           -0.152198043539    -1.311938460818     0.767708706316
    C           -2.663729520498    -0.516630778590     0.417009092287
    H           -1.626490583444     0.570085177695    -1.100520437589
    H           -1.247752893900     1.102128642261     0.514852575673
    C           -3.924718523964     0.339703867010     0.379720110752
    H           -2.820334640009    -1.414025508655    -0.176303672743
    H           -2.486807213117    -0.852475114501     1.435277621244
    H           -4.151901841049     0.657621243165    -0.632288772641
    H           -4.781909690735    -0.207332126175     0.754887374481
    H           -3.808700173609     1.231415204262     0.986437158983
    C            3.437381025144    -0.129022023384    -0.182614755500
    H            3.558838337619     0.481085575760    -1.065354846915
    H            4.136084669705    -0.949675683542    -0.198472497201
    H            3.599846363143     0.481895561706     0.692973364309

  Mulliken Charges: (a.u.)
   Center  Symbol    Alpha    Beta     Spin     Total
       1     O     4.19622  4.19622  0.00000 -0.39245
       2     C     2.80475  2.80475  0.00000  0.39049
       3     C     3.10228  3.10228  0.00000 -0.20456
       4     O     4.14717  4.14717  0.00000 -0.29434
       5     C     3.08435  3.08435  0.00000 -0.16870
       6     H     0.43848  0.43848  0.00000  0.12304
       7     H     0.44023  0.44023  0.00000  0.11953
       8     C     3.08689  3.08689  0.00000 -0.17377
       9     H     0.45196  0.45196  0.00000  0.09608
      10     H     0.44018  0.44018  0.00000  0.11964
      11     C     3.14931  3.14931  0.00000 -0.29862
      12     H     0.45530  0.45530  0.00000  0.08941
      13     H     0.45504  0.45504  0.00000  0.08992
      14     H     0.45446  0.45446  0.00000  0.09108
      15     H     0.44839  0.44839  0.00000  0.10322
      16     H     0.45339  0.45339  0.00000  0.09321
      17     C     3.03733  3.03733  0.00000 -0.07466
      18     H     0.45442  0.45442  0.00000  0.09115
      19     H     0.44545  0.44545  0.00000  0.10910
      20     H     0.45438  0.45438  0.00000  0.09123

   Total alpha = 32.00000, Total beta = 32.00000, Total charge =  0.00000

*** Psi4 exiting successfully. Buy a developer a beer!
