                              Psi4 1.0.54 Driver

  ==> Input File <==

--------------------------------------------------------------------------
set {
	reference rhf
	basis cc-pvtz
}

set_num_threads( 4 )
memory 2 gb

molecule MOL {
0 1

H	 -3.436473	 1.252944	 -1.023892
O	 -3.458596	 0.315260	 -0.960865
C	 -3.176635	 -0.080824	 0.355601
C	 -1.763371	 0.265266	 0.799691
H	 -3.321825	 -1.153438	 0.379502
H	 -3.895468	 0.357385	 1.043382
C	 -0.673390	 -0.426948	 -0.013392
H	 -1.631049	 1.344913	 0.747560
H	 -1.664587	 -0.001624	 1.849167
C	 0.737842	 -0.043159	 0.423759
H	 -0.806103	 -0.190518	 -1.063345
H	 -0.797221	 -1.503753	 0.074146
C	 0.779277	 0.586133	 1.814918
H	 1.367216	 -0.927530	 0.397931
H	 1.161784	 0.654103	 -0.295932
C	 2.161547	 1.061725	 2.265459
H	 0.391371	 -0.124310	 2.541313
H	 0.101332	 1.435092	 1.831640
C	 3.182033	 -0.053642	 2.479259
H	 2.048794	 1.611679	 3.194767
H	 2.550541	 1.771375	 1.539856
H	 2.817460	 -0.782310	 3.196341
H	 4.114274	 0.346396	 2.861540
H	 3.407433	 -0.579456	 1.559302

	symmetry c1
}
set optking {
	frozen_dihedral = ("
		13 10 7 11
	")
}

ee,wfn = optimize('scf', return_wfn=True)
oeprop( wfn, 'DIPOLE', 'QUADRUPOLE', 'MULLIKEN_CHARGES')
f=open( 'psi4out.xyz', 'w' )
f.write( "24  " )
f.write( str(ee) + "\n" )
f.write( MOL.save_string_xyz() )
f.close()
--------------------------------------------------------------------------

    Molecular point group: c1
  Charge       = 0
  Multiplicity = 1
  Basis Set: CC-PVTZ
  Basis Set:
  @DF-RHF Final Energy:  -349.36743194109351
    Total Energy =                       -349.3674319410937414
    Molecular point group: c1
  Basis Set: CC-PVTZ
  Basis Set:
  Basis Set: CC-PVTZ
  Basis Set:
  @DF-RHF Final Energy:  -349.36568060628576
    Total Energy =                       -349.3656806062858777
  Basis Set: CC-PVTZ
  Basis Set:
  Basis Set: CC-PVTZ
  Basis Set:
  @DF-RHF Final Energy:  -349.37106115045606
    Total Energy =                       -349.3710611504556027
  Basis Set: CC-PVTZ
  Basis Set:
  Basis Set: CC-PVTZ
  Basis Set:
  @DF-RHF Final Energy:  -349.37161354816391
    Total Energy =                       -349.3716135481638503
  Basis Set: CC-PVTZ
  Basis Set:
  Basis Set: CC-PVTZ
  Basis Set:
  @DF-RHF Final Energy:  -349.37165290818302
    Total Energy =                       -349.3716529081832505
  Basis Set: CC-PVTZ
  Basis Set:
  Basis Set: CC-PVTZ
  Basis Set:
  @DF-RHF Final Energy:  -349.37164317854536
    Total Energy =                       -349.3716431785456962
  Basis Set: CC-PVTZ
  Basis Set:
  Basis Set: CC-PVTZ
  Basis Set:
  @DF-RHF Final Energy:  -349.37168543047352
    Total Energy =                       -349.3716854304735193
  Basis Set: CC-PVTZ
  Basis Set:
  Charge       = 0
  Multiplicity = 1
  Basis Set: CC-PVTZ
  Basis Set:

    Orbital Energies (a.u.)
    -----------------------

    Doubly Occupied:

       1A    -20.546225     2A    -11.265136     3A    -11.214230
       4A    -11.212940     5A    -11.210884     6A    -11.210219
       7A    -11.209372     8A    -11.205572     9A     -1.364030
      10A     -1.087920    11A     -1.047311    12A     -0.983738
      13A     -0.917845    14A     -0.855833    15A     -0.810157
      16A     -0.763371    17A     -0.680033    18A     -0.649038
      19A     -0.630501    20A     -0.622072    21A     -0.601147
      22A     -0.582199    23A     -0.555113    24A     -0.548331
      25A     -0.516678    26A     -0.513358    27A     -0.501478
      28A     -0.479152    29A     -0.474456    30A     -0.455330
      31A     -0.445506    32A     -0.438574    33A     -0.426424

  @DF-RHF Final Energy:  -349.37168543153268

   => Energetics <=

    Nuclear Repulsion Energy =            388.8597846589821074
    One-Electron Energy =               -1244.4146109651337611
    Two-Electron Energy =                 506.1831408746191983
    DFT Exchange-Correlation Energy =       0.0000000000000000
    Empirical Dispersion Energy =           0.0000000000000000
    PCM Polarization Energy =               0.0000000000000000
    EFP Energy =                            0.0000000000000000
    Total Energy =                       -349.3716854315324554
    Molecular point group: c1
  Basis Set: CC-PVTZ
  Basis Set:

  -Total Gradient:
     Atom            X                  Y                   Z
    ------   -----------------  -----------------  -----------------
       1        0.000004764483    -0.000007755596     0.000012121280
       2       -0.000018192525    -0.000023262430    -0.000041133311
       3        0.000002395478     0.000051692664     0.000026180596
       4        0.000000145222    -0.000066380553     0.000003131597
       5        0.000010143709     0.000020807687    -0.000016091647
       6       -0.000004276730    -0.000005792279     0.000000109369
       7        0.001936866383    -0.004668655361    -0.002252830031
       8        0.000009061630    -0.000002050274     0.000004264238
       9       -0.000009178934    -0.000004448109    -0.000015262074
      10        0.000311678283    -0.004308414900     0.003042020434
      11       -0.001800314216     0.005230663982     0.001156450516
      12       -0.000011075441     0.000008872133    -0.000002624113
      13       -0.000468077173     0.003767057486    -0.001914821385
      14        0.000003319461     0.000010299447     0.000007676611
      15        0.000012587968    -0.000001528932     0.000015120723
      16        0.000008259386     0.000009764275    -0.000006553432
      17        0.000019688599     0.000005660260    -0.000008684434
      18       -0.000018224058    -0.000005492936    -0.000014004969
      19        0.000006170525    -0.000002026627     0.000001414885
      20       -0.000001444146    -0.000009824407    -0.000010447560
      21       -0.000001596288     0.000000303211     0.000005974032
      22        0.000005220891     0.000000215603    -0.000000739944
      23        0.000001316262    -0.000005246451    -0.000001915022
      24        0.000000761237     0.000005542108     0.000010643639

  **** Optimization is complete! (in 8 steps) ****
    Final optimized geometry and variables:
    Molecular point group: c1

    Geometry (in Angstrom), charge = 0, multiplicity = 1:

    H           -3.113941036130     0.954050263742    -2.070820470787
    O           -3.110329834962     0.020870456449    -1.957803607355
    C           -2.925663149041    -0.293861172460    -0.602515469048
    C           -1.558414219263     0.108538477359    -0.067703424322
    H           -3.054072795073    -1.366325716203    -0.527806826226
    H           -3.704363583466     0.166874367271     0.000082335089
    C           -0.410337994683    -0.628520435156    -0.761278035730
    H           -1.443145918066     1.183908810263    -0.187452751939
    H           -1.551154529362    -0.082423822078     1.000598642536
    C            1.024554059454    -0.232533013352    -0.336859640825
    H           -0.521084955881    -0.433079614762    -1.819895684872
    H           -0.555763473673    -1.693885330183    -0.614416976692
    C            1.184811012650     0.469186859243     1.013317210484
    H            1.643778131807    -1.120648163075    -0.363130257700
    H            1.434547400874     0.432826329127    -1.092281230080
    C            2.629668574436     0.851478166858     1.344492848305
    H            0.797396270291    -0.159424501973     1.812063072362
    H            0.587152356513     1.373194026041     1.021064875122
    C            3.563482691134    -0.328354399851     1.604213479824
    H            2.621162232916     1.485171820553     2.226128495249
    H            3.033009939812     1.460036392818     0.539232559661
    H            3.181746590647    -0.958039040433     2.401604785331
    H            4.546451432722     0.018919097646     1.901564450513
    H            3.691116216968    -0.948635355038     0.725612188987

  Mulliken Charges: (a.u.)
   Center  Symbol    Alpha    Beta     Spin     Total
       1     H     0.39513  0.39513  0.00000  0.20975
       2     O     4.20432  4.20432  0.00000 -0.40864
       3     C     2.97665  2.97665  0.00000  0.04670
       4     C     3.10857  3.10857  0.00000 -0.21713
       5     H     0.45902  0.45902  0.00000  0.08197
       6     H     0.45966  0.45966  0.00000  0.08068
       7     C     3.09211  3.09211  0.00000 -0.18422
       8     H     0.45800  0.45800  0.00000  0.08399
       9     H     0.44987  0.44987  0.00000  0.10027
      10     C     3.09938  3.09938  0.00000 -0.19875
      11     H     0.44268  0.44268  0.00000  0.11463
      12     H     0.45288  0.45288  0.00000  0.09424
      13     C     3.10045  3.10045  0.00000 -0.20090
      14     H     0.44728  0.44728  0.00000  0.10544
      15     H     0.45350  0.45350  0.00000  0.09301
      16     C     3.09023  3.09023  0.00000 -0.18045
      17     H     0.45359  0.45359  0.00000  0.09282
      18     H     0.44539  0.44539  0.00000  0.10921
      19     C     3.15178  3.15178  0.00000 -0.30356
      20     H     0.44886  0.44886  0.00000  0.10229
      21     H     0.45496  0.45496  0.00000  0.09008
      22     H     0.45530  0.45530  0.00000  0.08940
      23     H     0.44682  0.44682  0.00000  0.10636
      24     H     0.45359  0.45359  0.00000  0.09282

   Total alpha = 33.00000, Total beta = 33.00000, Total charge =  0.00000

*** Psi4 exiting successfully. Buy a developer a beer!
