                              Psi4 1.0.54 Driver

  ==> Input File <==

--------------------------------------------------------------------------
set {
	reference rhf
	basis cc-pvtz
}

set_num_threads( 4 )
memory 2 gb

molecule MOL {
0 1

O	 3.179547	 0.835416	 0.920462
C	 2.841259	 0.166180	 -0.000295
C	 1.542794	 -0.614730	 -0.000853
C	 3.692875	 0.048971	 -1.244174
C	 0.288398	 0.247429	 0.000314
H	 1.557171	 -1.273139	 -0.866508
H	 1.557484	 -1.274998	 0.863344
C	 -0.993089	 -0.581367	 -0.000217
H	 0.305153	 0.900562	 -0.864701
H	 0.305567	 0.898805	 0.866656
C	 -2.258482	 0.271340	 0.000669
H	 -1.002280	 -1.233920	 -0.870484
H	 -1.002061	 -1.235367	 0.868958
C	 -3.544441	 -0.550271	 -0.000253
H	 -2.250545	 0.925250	 -0.867923
H	 -2.250598	 0.923423	 0.870642
C	 -4.804551	 0.308747	 0.000556
H	 -3.553737	 -1.201524	 -0.870151
H	 -3.553831	 -1.203282	 0.868313
H	 -4.842050	 0.949078	 -0.874436
H	 -5.698404	 -0.304480	 -0.000254
H	 -4.842277	 0.947103	 0.876982
H	 3.135844	 0.384802	 -2.111919
H	 4.586464	 0.643648	 -1.133497
H	 3.962891	 -0.987170	 -1.416063

	symmetry c1
}
set optking {
	frozen_dihedral = ("
		1 2 3 6
	")
}

ee,wfn = optimize('scf', return_wfn=True)
oeprop( wfn, 'DIPOLE', 'QUADRUPOLE', 'MULLIKEN_CHARGES')
f=open( 'psi4out.xyz', 'w' )
f.write( "25  " )
f.write( str(ee) + "\n" )
f.write( MOL.save_string_xyz() )
f.close()
--------------------------------------------------------------------------

    Molecular point group: c1
  Charge       = 0
  Multiplicity = 1
  Basis Set: CC-PVTZ
  Basis Set:
  @DF-RHF Final Energy:  -387.27196516075361
    Total Energy =                       -387.2719651607530977
    Molecular point group: c1
  Basis Set: CC-PVTZ
  Basis Set:
  Basis Set: CC-PVTZ
  Basis Set:
  @DF-RHF Final Energy:  -387.27277615909122
    Total Energy =                       -387.2727761590909950
  Basis Set: CC-PVTZ
  Basis Set:
  Basis Set: CC-PVTZ
  Basis Set:
  @DF-RHF Final Energy:  -387.27270385595011
    Total Energy =                       -387.2727038559503399
  Basis Set: CC-PVTZ
  Basis Set:
  Basis Set: CC-PVTZ
  Basis Set:
  @DF-RHF Final Energy:  -387.27276088713853
    Total Energy =                       -387.2727608871384746
  Basis Set: CC-PVTZ
  Basis Set:
  Basis Set: CC-PVTZ
  Basis Set:
  @DF-RHF Final Energy:  -387.27285814118153
    Total Energy =                       -387.2728581411818141
  Basis Set: CC-PVTZ
  Basis Set:
  Charge       = 0
  Multiplicity = 1
  Basis Set: CC-PVTZ
  Basis Set:

    Orbital Energies (a.u.)
    -----------------------

    Doubly Occupied:

       1A    -20.536621     2A    -11.319692     3A    -11.227781
       4A    -11.227252     5A    -11.224631     6A    -11.218338
       7A    -11.215713     8A    -11.214636     9A    -11.208248
      10A     -1.397136    11A     -1.098495    12A     -1.059065
      13A     -1.014639    14A     -0.971611    15A     -0.893382
      16A     -0.816800    17A     -0.794561    18A     -0.733256
      19A     -0.667726    20A     -0.650004    21A     -0.638939
      22A     -0.613196    23A     -0.603936    24A     -0.587452
      25A     -0.569713    26A     -0.559379    27A     -0.541908
      28A     -0.538679    29A     -0.510858    30A     -0.497300
      31A     -0.490760    32A     -0.475676    33A     -0.466804
      34A     -0.466143    35A     -0.453710    36A     -0.398178

  @DF-RHF Final Energy:  -387.27285902973387

   => Energetics <=

    Nuclear Repulsion Energy =            439.6480212925714000
    One-Electron Energy =               -1396.0373257071687476
    Two-Electron Energy =                 569.1164453848634821
    DFT Exchange-Correlation Energy =       0.0000000000000000
    Empirical Dispersion Energy =           0.0000000000000000
    PCM Polarization Energy =               0.0000000000000000
    EFP Energy =                            0.0000000000000000
    Total Energy =                       -387.2728590297338087
    Molecular point group: c1
  Basis Set: CC-PVTZ
  Basis Set:

  -Total Gradient:
     Atom            X                  Y                   Z
    ------   -----------------  -----------------  -----------------
       1       -0.000071895984     0.000152159132    -0.000008578191
       2        0.000113748018    -0.000111383774    -0.000045548244
       3       -0.000007054876    -0.000108728550     0.000095064096
       4        0.000064092337    -0.000094306654     0.000100085461
       5        0.000013522394     0.000020114879    -0.000009600143
       6       -0.000066838328     0.000105626909    -0.000081553296
       7        0.000014121099    -0.000003777096    -0.000002279017
       8       -0.000013678871    -0.000009724384     0.000011526235
       9       -0.000000472061    -0.000002561367    -0.000002528871
      10        0.000000075634    -0.000014162085    -0.000008546681
      11        0.000012539282     0.000007258778     0.000002662631
      12        0.000004428242     0.000002517013     0.000001000451
      13        0.000000755824    -0.000004217730     0.000003553556
      14       -0.000004560945    -0.000005350562    -0.000002525652
      15       -0.000000436108     0.000004160941     0.000000002554
      16       -0.000001304001     0.000000151460     0.000001945674
      17        0.000006385814     0.000000456140    -0.000002823300
      18       -0.000000571269    -0.000003506532    -0.000001727947
      19        0.000000338322     0.000001544429     0.000000406479
      20       -0.000001290670     0.000001006844    -0.000000851172
      21        0.000000482906    -0.000001594026    -0.000000339954
      22       -0.000000400880     0.000001336905     0.000001982031
      23       -0.000034117970     0.000032064037    -0.000015604522
      24       -0.000014685818     0.000016923645    -0.000004775778
      25       -0.000013182085     0.000013991646    -0.000030946403

  **** Optimization is complete! (in 6 steps) ****
    Final optimized geometry and variables:
    Molecular point group: c1

    Geometry (in Angstrom), charge = 0, multiplicity = 1:

    O            3.126479278602     0.763770805390     0.985075209756
    C            2.840022995989     0.100916170428     0.041808510617
    C            1.561998414353    -0.718334742248     0.025872779487
    C            3.715694700677     0.048314496492    -1.185839284241
    C            0.322507264176     0.181568030267     0.006725179894
    H            1.550204864811    -1.387976992546    -0.826710754012
    H            1.557063257065    -1.324137116527     0.925038128024
    C           -0.981600448021    -0.609689129346     0.035043654885
    H            0.343936682570     0.808079607615    -0.881721085391
    H            0.368448030037     0.850007754365     0.858056460109
    C           -2.222349471990     0.278381337715     0.018084852905
    H           -1.012828112527    -1.286779371265    -0.815306555500
    H           -0.999435751600    -1.235486871769     0.923778249908
    C           -3.530155468804    -0.507358407372     0.052009245381
    H           -2.204286760293     0.904541236899    -0.870895932895
    H           -2.189483139163     0.956247091421     0.867396336867
    C           -4.766174054360     0.385707743344     0.034519231505
    H           -3.563894573018    -1.185186973868    -0.796704175276
    H           -3.550134292536    -1.131927352569     0.940889931854
    H           -4.793570580315     0.998735188688    -0.860250961411
    H           -5.676204655182    -0.202593107536     0.059807225014
    H           -4.779397371908     1.052162193360     0.890463592115
    H            3.140562921446     0.322632093950    -2.064192935821
    H            4.557331360117     0.714272889634    -1.073463230341
    H            4.067756502904    -0.966563176553    -1.339274401954

  Mulliken Charges: (a.u.)
   Center  Symbol    Alpha    Beta     Spin     Total
       1     O     4.17785  4.17785  0.00000 -0.35571
       2     C     2.85828  2.85828  0.00000  0.28344
       3     C     3.10121  3.10121  0.00000 -0.20242
       4     C     3.15397  3.15397  0.00000 -0.30794
       5     C     3.09700  3.09700  0.00000 -0.19400
       6     H     0.44860  0.44860  0.00000  0.10280
       7     H     0.44094  0.44094  0.00000  0.11812
       8     C     3.09028  3.09028  0.00000 -0.18056
       9     H     0.45373  0.45373  0.00000  0.09255
      10     H     0.43881  0.43881  0.00000  0.12237
      11     C     3.08675  3.08675  0.00000 -0.17349
      12     H     0.45473  0.45473  0.00000  0.09054
      13     H     0.45259  0.45259  0.00000  0.09483
      14     C     3.08454  3.08454  0.00000 -0.16908
      15     H     0.45505  0.45505  0.00000  0.08991
      16     H     0.45271  0.45271  0.00000  0.09459
      17     C     3.15033  3.15033  0.00000 -0.30067
      18     H     0.45503  0.45503  0.00000  0.08993
      19     H     0.45412  0.45412  0.00000  0.09176
      20     H     0.45521  0.45521  0.00000  0.08958
      21     H     0.44824  0.44824  0.00000  0.10353
      22     H     0.45440  0.45440  0.00000  0.09121
      23     H     0.45066  0.45066  0.00000  0.09868
      24     H     0.43631  0.43631  0.00000  0.12738
      25     H     0.44867  0.44867  0.00000  0.10266

   Total alpha = 36.00000, Total beta = 36.00000, Total charge =  0.00000

*** Psi4 exiting successfully. Buy a developer a beer!
