  ==> Input File <==

--------------------------------------------------------------------------
set {
	reference rhf
	basis cc-pvtz
}

set_num_threads( 4 )
memory 2 gb

molecule MOL {
0 1

H	 2.575485	 -2.169426	 4.146168
C	 2.244601	 -2.167053	 3.114365
C	 0.992867	 -1.313830	 2.941665
H	 3.061449	 -1.791210	 2.507290
H	 2.064235	 -3.196571	 2.823542
C	 0.492374	 -1.283118	 1.505165
H	 1.187616	 -0.296715	 3.263092
H	 0.204997	 -1.696234	 3.586340
N	 -0.681156	 -0.447464	 1.370091
H	 1.269330	 -0.878244	 0.863616
H	 0.312043	 -2.306383	 1.162392
C	 -1.215959	 -0.382435	 0.027143
H	 -1.390515	 -0.758189	 2.000630
C	 -2.451944	 0.502410	 -0.038737
H	 -0.447323	 0.026831	 -0.621607
H	 -1.458095	 -1.373106	 -0.369113
C	 -3.752217	 -0.292550	 0.005776
H	 -2.407325	 1.093801	 -0.946480
H	 -2.431979	 1.206234	 0.790023
H	 -3.817783	 -0.982946	 -0.828547
H	 -4.612613	 0.364348	 -0.042306
H	 -3.830160	 -0.871666	 0.919868

	symmetry c1
}
set optking {
	frozen_dihedral = ("
		15 12 14 18
	")
}

ee = optimize('scf')
oeprop('DIPOLE', 'QUADRUPOLE', 'MULLIKEN_CHARGES')
f=open( 'psi4out.xyz', 'w' )
f.write( "22  " )
f.write( str(ee) + "\n" )
f.write( MOL.save_string_xyz() )
f.close()
--------------------------------------------------------------------------

    Molecular point group: c1
  Charge       = 0
  Multiplicity = 1
  Basis Set: CC-PVTZ
  Basis Set:
  @DF-RHF Final Energy:  -290.48534876300874
    Total Energy =                       -290.4853487630088011
    Molecular point group: c1
  Basis Set: CC-PVTZ
  Basis Set:
  Basis Set: CC-PVTZ
  Basis Set:
  @DF-RHF Final Energy:  -290.48576424139651
    Total Energy =                       -290.4857642413962253
  Basis Set: CC-PVTZ
  Basis Set:
  Basis Set: CC-PVTZ
  Basis Set:
  @DF-RHF Final Energy:  -290.48584639470619
    Total Energy =                       -290.4858463947060727
  Basis Set: CC-PVTZ
  Basis Set:
  Basis Set: CC-PVTZ
  Basis Set:
  @DF-RHF Final Energy:  -290.48584865725826
    Total Energy =                       -290.4858486572584866
  Basis Set: CC-PVTZ
  Basis Set:
  Charge       = 0
  Multiplicity = 1
  Basis Set: CC-PVTZ
  Basis Set:

    Orbital Energies (a.u.)
    -----------------------

    Doubly Occupied:

       1A    -15.528784     2A    -11.236223     3A    -11.236115
       4A    -11.211861     5A    -11.211614     6A    -11.209071
       7A    -11.207571     8A     -1.207407     9A     -1.059367
      10A     -1.025574    11A     -0.929030    12A     -0.874961
      13A     -0.808781    14A     -0.793632    15A     -0.667092
      16A     -0.635118    17A     -0.620237    18A     -0.592714
      19A     -0.576253    20A     -0.567529    21A     -0.550084
      22A     -0.527544    23A     -0.506589    24A     -0.488848
      25A     -0.479609    26A     -0.470130    27A     -0.467440
      28A     -0.452194    29A     -0.360706

  @DF-RHF Final Energy:  -290.48584892402090

   => Energetics <=

    Nuclear Repulsion Energy =            315.9602246009829400
    One-Electron Energy =               -1017.8879900406764136
    Two-Electron Energy =                 411.4419165156725171
    DFT Exchange-Correlation Energy =       0.0000000000000000
    Empirical Dispersion Energy =           0.0000000000000000
    PCM Polarization Energy =               0.0000000000000000
    EFP Energy =                            0.0000000000000000
    Total Energy =                       -290.4858489240210133
    Molecular point group: c1
  Basis Set: CC-PVTZ
  Basis Set:

  -Total Gradient:
     Atom            X                  Y                   Z
    ------   -----------------  -----------------  -----------------
       1       -0.000004800373     0.000002009206    -0.000001166985
       2       -0.000002729105     0.000000172211    -0.000006564220
       3       -0.000000349583    -0.000002880437     0.000006629365
       4        0.000000540772     0.000000890191     0.000000461168
       5        0.000000636140    -0.000002108417    -0.000000518714
       6        0.000044489222    -0.000024151330     0.000009139288
       7        0.000001448027     0.000002408637    -0.000002978328
       8       -0.000000843895    -0.000001586472     0.000003277302
       9       -0.000015170443     0.000014298083    -0.000024743434
      10       -0.000002204877     0.000005085809     0.000000933684
      11       -0.000006791925     0.000007059890     0.000003098542
      12        0.001975713794     0.003453766386     0.004123251468
      13       -0.000005532799    -0.000006010563     0.000000879849
      14       -0.002532696189    -0.004160179471    -0.003068684654
      15       -0.001268964237    -0.002205599421    -0.002956721433
      16       -0.000000010912    -0.000017994450     0.000007010581
      17        0.000024278858     0.000019676306     0.000004307529
      18        0.001789949919     0.002894680383     0.001887233661
      19       -0.000004892655     0.000007839411     0.000014828839
      20        0.000009911875     0.000010336984     0.000003838678
      21       -0.000001645937    -0.000000581104     0.000003846587
      22       -0.000000335674     0.000002868167    -0.000007358769

  **** Optimization is complete! (in 5 steps) ****
    Final optimized geometry and variables:
    Molecular point group: c1

    Geometry (in Angstrom), charge = 0, multiplicity = 1:

    H            3.184275509735    -1.410055638135     2.874992449093
    C            2.853640653684    -1.406852561002     1.843097295407
    C            1.619253455137    -0.529765030854     1.665455249848
    H            3.677848707659    -1.050747339534     1.234074178833
    H            2.652661885352    -2.434144062053     1.557964533846
    C            1.120453274404    -0.496129645565     0.228427011325
    H            1.834060899954     0.484754784475     1.982127463783
    H            0.823475754553    -0.893418421735     2.311300752906
    N           -0.036138019234     0.361961843734     0.088241791778
    H            1.905251364173    -0.109019749144    -0.414719217193
    H            0.920393115061    -1.516975183200    -0.110250134285
    C           -0.559404877083     0.436255175000    -1.260077945114
    H           -0.754506780511     0.061150027115     0.713557534812
    C           -1.838857116631     1.276313085836    -1.337021547512
    H            0.201278195579     0.860413604266    -1.905951195899
    H           -0.761445748479    -0.558192586590    -1.670246686492
    C           -3.125380370435     0.461348334051    -1.252167578904
    H           -1.829963895106     1.867886361094    -2.245891479686
    H           -1.810018456129     1.997709979131    -0.527023656849
    H           -3.212598272988    -0.221894478429    -2.089862094899
    H           -3.997461335245     1.105007684575    -1.256855622456
    H           -3.161102366905    -0.129847503713    -0.342290984936

  Mulliken Charges: (a.u.)
   Center  Symbol    Alpha    Beta     Spin     Total
       1     H     0.44771  0.44771  0.00000  0.10457
       2     C     3.15340  3.15340  0.00000 -0.30679
       3     C     3.08015  3.08015  0.00000 -0.16029
       4     H     0.45469  0.45469  0.00000  0.09061
       5     H     0.45613  0.45613  0.00000  0.08774
       6     C     3.02167  3.02167  0.00000 -0.04335
       7     H     0.44912  0.44912  0.00000  0.10176
       8     H     0.45984  0.45984  0.00000  0.08033
       9     N     3.63576  3.63576  0.00000 -0.27152
      10     H     0.45912  0.45912  0.00000  0.08176
      11     H     0.47411  0.47411  0.00000  0.05178
      12     C     3.03132  3.03132  0.00000 -0.06263
      13     H     0.44558  0.44558  0.00000  0.10884
      14     C     3.09490  3.09490  0.00000 -0.18980
      15     H     0.45439  0.45439  0.00000  0.09122
      16     H     0.47611  0.47611  0.00000  0.04779
      17     C     3.14537  3.14537  0.00000 -0.29074
      18     H     0.44935  0.44935  0.00000  0.10130
      19     H     0.44993  0.44993  0.00000  0.10013
      20     H     0.45455  0.45455  0.00000  0.09090
      21     H     0.44802  0.44802  0.00000  0.10396
      22     H     0.45878  0.45878  0.00000  0.08243

   Total alpha = 29.00000, Total beta = 29.00000, Total charge = -0.00000
