                              Psi4 1.0.54 Driver

  ==> Input File <==

--------------------------------------------------------------------------
set {
	reference rhf
	basis cc-pvtz
}

set_num_threads( 4 )
memory 2 gb

molecule MOL {
0 1

H	 -4.024094	 -0.454727	 0.000004
C	 -2.962215	 -0.297920	 0.000004
C	 -2.454736	 0.988978	 0.000025
C	 -2.105837	 -1.382632	 -0.000016
H	 -3.120052	 1.830438	 0.000041
C	 -1.090106	 1.189676	 0.000026
H	 -2.500390	 -2.380229	 -0.000033
C	 -0.739175	 -1.183302	 -0.000016
H	 -0.680214	 2.179144	 0.000042
C	 -0.227341	 0.104540	 0.000006
H	 -0.073209	 -2.021168	 -0.000032
C	 1.238974	 0.374429	 0.000004
O	 1.786702	 0.260933	 -1.195445
O	 1.856535	 0.662047	 0.970094
C	 3.177085	 0.499224	 -1.293499
H	 3.412356	 1.506287	 -0.983907
H	 3.428436	 0.359421	 -2.332184
H	 3.725972	 -0.197932	 -0.678606

	symmetry c1
}
set optking {
	frozen_dihedral = ("
		13 12 10 6
	")
}

ee,wfn = optimize('scf', return_wfn=True)
oeprop( wfn, 'DIPOLE', 'QUADRUPOLE', 'MULLIKEN_CHARGES')
f=open( 'psi4out.xyz', 'w' )
f.write( "18  " )
f.write( str(ee) + "\n" )
f.write( MOL.save_string_xyz() )
f.close()
--------------------------------------------------------------------------

    Molecular point group: c1
  Charge       = 0
  Multiplicity = 1
  Basis Set: CC-PVTZ
  Basis Set:
  @DF-RHF Final Energy:  -457.49903885778474
    Total Energy =                       -457.4990388577846261
    Molecular point group: c1
  Basis Set: CC-PVTZ
  Basis Set:
  Basis Set: CC-PVTZ
  Basis Set:
  @DF-RHF Final Energy:  -457.49824801882340
    Total Energy =                       -457.4982480188232330
  Basis Set: CC-PVTZ
  Basis Set:
  Basis Set: CC-PVTZ
  Basis Set:
  @DF-RHF Final Energy:  -457.49922872971626
    Total Energy =                       -457.4992287297159237
  Basis Set: CC-PVTZ
  Basis Set:
  Basis Set: CC-PVTZ
  Basis Set:
  @DF-RHF Final Energy:  -457.49942731296909
    Total Energy =                       -457.4994273129692601
  Basis Set: CC-PVTZ
  Basis Set:
  Basis Set: CC-PVTZ
  Basis Set:
  @DF-RHF Final Energy:  -457.49943484214174
    Total Energy =                       -457.4994348421419090
  Basis Set: CC-PVTZ
  Basis Set:
  Charge       = 0
  Multiplicity = 1
  Basis Set: CC-PVTZ
  Basis Set:

    Orbital Energies (a.u.)
    -----------------------

    Doubly Occupied:

       1A    -20.604231     2A    -20.541319     3A    -11.374970
       4A    -11.282634     5A    -11.250753     6A    -11.241732
       7A    -11.241355     8A    -11.238528     9A    -11.237846
      10A    -11.236633    11A     -1.480350    12A     -1.373096
      13A     -1.171702    14A     -1.052450    15A     -1.029573
      16A     -0.982640    17A     -0.862584    18A     -0.842158
      19A     -0.784099    20A     -0.742632    21A     -0.688759
      22A     -0.685147    23A     -0.682509    24A     -0.636270
      25A     -0.632158    26A     -0.600165    27A     -0.594671
      28A     -0.551956    29A     -0.539814    30A     -0.522410
      31A     -0.512600    32A     -0.504885    33A     -0.465515
      34A     -0.449644    35A     -0.347619    36A     -0.347110

  @DF-RHF Final Energy:  -457.49943583092983

   => Energetics <=

    Nuclear Repulsion Energy =            492.6646802659722084
    One-Electron Energy =               -1599.6631986805641645
    Two-Electron Energy =                 649.4990825836625845
    DFT Exchange-Correlation Energy =       0.0000000000000000
    Empirical Dispersion Energy =           0.0000000000000000
    PCM Polarization Energy =               0.0000000000000000
    EFP Energy =                            0.0000000000000000
    Total Energy =                       -457.4994358309293148
    Molecular point group: c1
  Basis Set: CC-PVTZ
  Basis Set:

  -Total Gradient:
     Atom            X                  Y                   Z
    ------   -----------------  -----------------  -----------------
       1       -0.000004736490     0.000010236083    -0.000002876257
       2        0.000011193818    -0.000102746437     0.000007019315
       3        0.000075747315     0.000064232953     0.000000935821
       4       -0.000116222711     0.000034292502    -0.000003342357
       5       -0.000008560156    -0.000001370228     0.000000642420
       6       -0.000089351782     0.000042414119    -0.002170712321
       7        0.000007963828    -0.000000843330    -0.000001768033
       8        0.000102118908     0.000087072480     0.000013968554
       9       -0.000001349726    -0.000002223812    -0.000002133848
      10       -0.000176144051     0.000539732682     0.003032130176
      11       -0.000006570029    -0.000004997891    -0.000004562385
      12        0.000596445923    -0.002747966592    -0.000574609686
      13       -0.000415925373     0.002090130037    -0.000238226838
      14       -0.000015760458    -0.000010351627    -0.000051757409
      15        0.000059233536    -0.000006095386    -0.000025644749
      16       -0.000011807990     0.000015163301     0.000005814267
      17        0.000000468435     0.000003237013     0.000007202242
      18       -0.000006742995    -0.000009915866     0.000007921090

  **** Optimization is complete! (in 6 steps) ****
    Final optimized geometry and variables:
    Molecular point group: c1

    Geometry (in Angstrom), charge = 0, multiplicity = 1:

    H           -3.998262249778    -0.596998322079     0.148979742026
    C           -2.937819625822    -0.433065307450     0.155093797448
    C           -2.436868884580     0.854788200535     0.169325559080
    C           -2.071149231657    -1.509312889294     0.147661569225
    H           -3.106662801481     1.693037195721     0.172351405419
    C           -1.071974171318     1.067561845221     0.182103763136
    H           -2.456146013253    -2.510775968027     0.135851119046
    C           -0.705657454703    -1.299403366419     0.150364768602
    H           -0.683414480565     2.067663046770     0.203130801066
    C           -0.206524191034    -0.010565051297     0.178569444228
    H           -0.034058979869    -2.136475973353     0.134907836026
    C            1.273488781128     0.227855988089     0.188297600913
    O            1.802262291695     0.106189724537    -1.013268044147
    O            1.895276314086     0.513363629679     1.152672029640
    C            3.198311884880     0.310490389547    -1.128985154521
    H            3.461313311084     1.312162043319    -0.823647855384
    H            3.432982327217     0.163083524736    -2.170271178580
    H            3.737981334179    -0.398413674828    -0.518967075158

  Mulliken Charges: (a.u.)
   Center  Symbol    Alpha    Beta     Spin     Total
       1     H     0.42155  0.42155  0.00000  0.15691
       2     C     3.08439  3.08439  0.00000 -0.16878
       3     C     3.06521  3.06521  0.00000 -0.13043
       4     C     3.06504  3.06504  0.00000 -0.13009
       5     H     0.42170  0.42170  0.00000  0.15661
       6     C     3.09256  3.09256  0.00000 -0.18513
       7     H     0.42180  0.42180  0.00000  0.15640
       8     C     3.09208  3.09208  0.00000 -0.18416
       9     H     0.42256  0.42256  0.00000  0.15487
      10     C     2.91509  2.91509  0.00000  0.16982
      11     H     0.42461  0.42461  0.00000  0.15077
      12     C     2.84600  2.84600  0.00000  0.30801
      13     O     4.14302  4.14302  0.00000 -0.28604
      14     O     4.19685  4.19685  0.00000 -0.39371
      15     C     3.03745  3.03745  0.00000 -0.07491
      16     H     0.45314  0.45314  0.00000  0.09373
      17     H     0.44297  0.44297  0.00000  0.11407
      18     H     0.45398  0.45398  0.00000  0.09205

   Total alpha = 36.00000, Total beta = 36.00000, Total charge =  0.00000

*** Psi4 exiting successfully. Buy a developer a beer!
