  ==> Input File <==

--------------------------------------------------------------------------
set {
	reference rhf
	basis 6-31G*
}

set_num_threads( 1 )
memory 2 gb

molecule MOL {
0 1

H	 2.860194	 -1.205266	 2.337986
O	 2.307279	 -1.322725	 1.571668
C	 1.538104	 -0.241380	 1.447265
C	 0.624473	 -0.343591	 0.253101
O	 1.599564	 0.668156	 2.208831
C	 -0.265902	 0.883932	 0.072916
H	 1.253510	 -0.522270	 -0.612785
H	 0.029880	 -1.244869	 0.379235
C	 -1.728698	 0.646073	 0.462102
H	 -0.209144	 1.219470	 -0.958188
H	 0.135059	 1.692851	 0.673903
C	 -2.482460	 -0.343073	 -0.431425
H	 -2.245265	 1.602650	 0.432430
H	 -1.779332	 0.308348	 1.496285
C	 -3.960546	 -0.461025	 -0.060175
H	 -2.395034	 -0.026811	 -1.468912
H	 -2.024850	 -1.327147	 -0.371646
H	 -4.472726	 -1.168004	 -0.705284
H	 -4.465146	 0.496508	 -0.151489
H	 -4.081218	 -0.800940	 0.964585

	symmetry c1
}
set optking {
	frozen_dihedral = ("
		16 12 9 6,
		12 9 6 10,
		5 3 4 7,
		1 2 3 5
	")
}

ee = energy('scf')
oeprop('DIPOLE', 'QUADRUPOLE', 'MULLIKEN_CHARGES')
f=open( 'psi4out.xyz', 'w' )
f.write( "20  " )
f.write( str(ee) + "\n" )
f.write( MOL.save_string_xyz() )
f.close()
--------------------------------------------------------------------------

    Molecular point group: c1

    Geometry (in Angstrom), charge = 0, multiplicity = 1:

       Center              X                  Y                   Z               Mass
    ------------   -----------------  -----------------  -----------------  -----------------
           H          3.121564900577    -1.121174487249     1.619314544506     1.007825032070
           O          2.568649900577    -1.238633487249     0.852996544506    15.994914619560
           C          1.799474900577    -0.157288487249     0.728593544506    12.000000000000
           C          0.885843900577    -0.259499487249    -0.465570455494    12.000000000000
           O          1.860934900577     0.752247512751     1.490159544506    15.994914619560
           C         -0.004531099423     0.968023512751    -0.645755455494    12.000000000000
           H          1.514880900577    -0.438178487249    -1.331456455494     1.007825032070
           H          0.291250900577    -1.160777487249    -0.339436455494     1.007825032070
           C         -1.467327099423     0.730164512751    -0.256569455494    12.000000000000
           H          0.052226900577     1.303561512751    -1.676859455494     1.007825032070
           H          0.396429900577     1.776942512751    -0.044768455494     1.007825032070
           C         -2.221089099423    -0.258981487249    -1.150096455494    12.000000000000
           H         -1.983894099423     1.686741512751    -0.286241455494     1.007825032070
           H         -1.517961099423     0.392439512751     0.777613544506     1.007825032070
           C         -3.699175099423    -0.376933487249    -0.778846455494    12.000000000000
           H         -2.133663099423     0.057280512751    -2.187583455494     1.007825032070
           H         -1.763479099423    -1.243055487249    -1.090317455494     1.007825032070
           H         -4.211355099423    -1.083912487249    -1.423955455494     1.007825032070
           H         -4.203775099423     0.580599512751    -0.870160455494     1.007825032070
           H         -3.819847099423    -0.716848487249     0.245913544506     1.007825032070

  Charge       = 0
  Multiplicity = 1
  Basis Set: 6-31G*
  Basis Set:

    Orbital Energies (a.u.)
    -----------------------

    Doubly Occupied:

       1A    -20.613256     2A    -20.552482     3A    -11.381640
       4A    -11.238824     5A    -11.219362     6A    -11.219233
       7A    -11.217563     8A    -11.211332     9A     -1.475334
      10A     -1.366681    11A     -1.095102    12A     -1.039700
      13A     -0.959226    14A     -0.869482    15A     -0.816504
      16A     -0.773908    17A     -0.701494    18A     -0.692548
      19A     -0.662980    20A     -0.635390    21A     -0.599068
      22A     -0.594304    23A     -0.574482    24A     -0.554510
      25A     -0.538405    26A     -0.508636    27A     -0.499584
      28A     -0.480573    29A     -0.465571    30A     -0.464082
      31A     -0.454824    32A     -0.446555

  @DF-RHF Final Energy:  -383.94450103331639

   => Energetics <=

    Nuclear Repulsion Energy =            379.7816378726374182
    One-Electron Energy =               -1275.6068594092607782
    Two-Electron Energy =                 511.8807205033075434
    DFT Exchange-Correlation Energy =       0.0000000000000000
    Empirical Dispersion Energy =           0.0000000000000000
    PCM Polarization Energy =               0.0000000000000000
    EFP Energy =                            0.0000000000000000
    Total Energy =                       -383.9445010333157597

  Mulliken Charges: (a.u.)
   Center  Symbol    Alpha    Beta     Spin     Total
       1     H     0.26771  0.26771  0.00000  0.46459
       2     O     4.35035  4.35035  0.00000 -0.70069
       3     C     2.62718  2.62718  0.00000  0.74564
       4     C     3.21398  3.21398  0.00000 -0.42795
       5     O     4.27853  4.27853  0.00000 -0.55707
       6     C     3.16499  3.16499  0.00000 -0.32999
       7     H     0.39493  0.39493  0.00000  0.21013
       8     H     0.39588  0.39588  0.00000  0.20825
       9     C     3.15613  3.15613  0.00000 -0.31226
      10     H     0.41872  0.41872  0.00000  0.16256
      11     H     0.39274  0.39274  0.00000  0.21452
      12     C     3.15408  3.15408  0.00000 -0.30816
      13     H     0.41890  0.41890  0.00000  0.16221
      14     H     0.42003  0.42003  0.00000  0.15995
      15     C     3.23902  3.23902  0.00000 -0.47805
      16     H     0.42262  0.42262  0.00000  0.15475
      17     H     0.42388  0.42388  0.00000  0.15224
      18     H     0.41882  0.41882  0.00000  0.16236
      19     H     0.42056  0.42056  0.00000  0.15888
      20     H     0.42096  0.42096  0.00000  0.15808

   Total alpha = 32.00000, Total beta = 32.00000, Total charge = -0.00000
