  ==> Input File <==

--------------------------------------------------------------------------
set {
	reference rhf
	basis 6-31G*
}

set_num_threads( 1 )
memory 2 gb

molecule MOL {
0 1

H	 0.129065	 -3.479640	 0.339392
O	 0.662010	 -2.691423	 0.377332
C	 -0.140873	 -1.641066	 0.208381
C	 0.624473	 -0.343591	 0.253101
O	 -1.311415	 -1.760838	 0.045586
C	 -0.265902	 0.883932	 0.072916
H	 1.160469	 -0.324199	 1.196343
H	 1.386578	 -0.392873	 -0.520539
C	 -1.728698	 0.646073	 0.462102
H	 -0.209144	 1.219470	 -0.958188
H	 0.135059	 1.692851	 0.673903
C	 -2.482460	 -0.343073	 -0.431425
H	 -2.245265	 1.602650	 0.432430
H	 -1.779332	 0.308348	 1.496285
C	 -3.960546	 -0.461025	 -0.060175
H	 -2.395034	 -0.026811	 -1.468912
H	 -2.024850	 -1.327147	 -0.371646
H	 -4.472726	 -1.168004	 -0.705284
H	 -4.465146	 0.496508	 -0.151489
H	 -4.081218	 -0.800940	 0.964585

	symmetry c1
}
set optking {
	frozen_dihedral = ("
		16 12 9 6,
		12 9 6 10,
		5 3 4 7,
		1 2 3 5
	")
}

ee = energy('scf')
oeprop('DIPOLE', 'QUADRUPOLE', 'MULLIKEN_CHARGES')
f=open( 'psi4out.xyz', 'w' )
f.write( "20  " )
f.write( str(ee) + "\n" )
f.write( MOL.save_string_xyz() )
f.close()
--------------------------------------------------------------------------

    Molecular point group: c1

    Geometry (in Angstrom), charge = 0, multiplicity = 1:

       Center              X                  Y                   Z               Mass
    ------------   -----------------  -----------------  -----------------  -----------------
           H          1.204533423694    -2.716953142422     0.220878663020     1.007825032070
           O          1.737478423694    -1.928736142422     0.258818663020    15.994914619560
           C          0.934595423694    -0.878379142422     0.089867663020    12.000000000000
           C          1.699941423694     0.419095857578     0.134587663020    12.000000000000
           O         -0.235946576306    -0.998151142422    -0.072927336980    15.994914619560
           C          0.809566423694     1.646618857578    -0.045597336980    12.000000000000
           H          2.235937423694     0.438487857578     1.077829663020     1.007825032070
           H          2.462046423694     0.369813857578    -0.639052336980     1.007825032070
           C         -0.653229576306     1.408759857578     0.343588663020    12.000000000000
           H          0.866324423694     1.982156857578    -1.076701336980     1.007825032070
           H          1.210527423694     2.455537857578     0.555389663020     1.007825032070
           C         -1.406991576306     0.419613857578    -0.549938336980    12.000000000000
           H         -1.169796576306     2.365336857578     0.313916663020     1.007825032070
           H         -0.703863576306     1.071034857578     1.377771663020     1.007825032070
           C         -2.885077576306     0.301661857578    -0.178688336980    12.000000000000
           H         -1.319565576306     0.735875857578    -1.587425336980     1.007825032070
           H         -0.949381576306    -0.564460142422    -0.490159336980     1.007825032070
           H         -3.397257576306    -0.405317142422    -0.823797336980     1.007825032070
           H         -3.389677576306     1.259194857578    -0.270002336980     1.007825032070
           H         -3.005749576306    -0.038253142422     0.846071663020     1.007825032070

  Charge       = 0
  Multiplicity = 1
  Basis Set: 6-31G*
  Basis Set:

    Orbital Energies (a.u.)
    -----------------------

    Doubly Occupied:

       1A    -20.648290     2A    -20.580352     3A    -11.431933
       4A    -11.260141     5A    -11.223905     6A    -11.191037
       7A    -11.162285     8A    -11.087600     9A     -1.539123
      10A     -1.442216    11A     -1.097113    12A     -1.050948
      13A     -0.948129    14A     -0.924826    15A     -0.860253
      16A     -0.799001    17A     -0.729520    18A     -0.716771
      19A     -0.689635    20A     -0.649646    21A     -0.618829
      22A     -0.584285    23A     -0.563657    24A     -0.547741
      25A     -0.530771    26A     -0.523526    27A     -0.509426
      28A     -0.479976    29A     -0.472155    30A     -0.419693
      31A     -0.412822    32A     -0.246596

  @DF-RHF Final Energy:  -383.65331880437867

   => Energetics <=

    Nuclear Repulsion Energy =            413.7699256810314523
    One-Electron Energy =               -1342.9621554324587578
    Two-Electron Energy =                 545.5389109470489757
    DFT Exchange-Correlation Energy =       0.0000000000000000
    Empirical Dispersion Energy =           0.0000000000000000
    PCM Polarization Energy =               0.0000000000000000
    EFP Energy =                            0.0000000000000000
    Total Energy =                       -383.6533188043782729

  Mulliken Charges: (a.u.)
   Center  Symbol    Alpha    Beta     Spin     Total
       1     H     0.26393  0.26393  0.00000  0.47215
       2     O     4.33936  4.33936  0.00000 -0.67872
       3     C     2.61578  2.61578  0.00000  0.76844
       4     C     3.21598  3.21598  0.00000 -0.43195
       5     O     4.23473  4.23473  0.00000 -0.46946
       6     C     3.16025  3.16025  0.00000 -0.32050
       7     H     0.38858  0.38858  0.00000  0.22283
       8     H     0.38798  0.38798  0.00000  0.22403
       9     C     3.16112  3.16112  0.00000 -0.32224
      10     H     0.41203  0.41203  0.00000  0.17593
      11     H     0.41434  0.41434  0.00000  0.17133
      12     C     3.23833  3.23833  0.00000 -0.47666
      13     H     0.42042  0.42042  0.00000  0.15917
      14     H     0.43627  0.43627  0.00000  0.12747
      15     C     3.22248  3.22248  0.00000 -0.44497
      16     H     0.45835  0.45835  0.00000  0.08331
      17     H     0.31488  0.31488  0.00000  0.37025
      18     H     0.43408  0.43408  0.00000  0.13184
      19     H     0.43925  0.43925  0.00000  0.12151
      20     H     0.44188  0.44188  0.00000  0.11624

   Total alpha = 32.00000, Total beta = 32.00000, Total charge =  0.00000
