  ==> Input File <==

--------------------------------------------------------------------------
set {
	reference rhf
	basis 6-31G*
}

set_num_threads( 4 )
memory 2 gb

molecule MOL {
0 1

H	 -3.407059	 -1.043082	 0.000000
O	 -3.119761	 -0.140267	 0.000000
C	 -1.777559	 -0.059267	 0.000000
C	 -0.991841	 -0.770310	 0.902256
C	 -1.188063	 0.770877	 -0.945210
H	 -1.456714	 -1.411528	 1.631669
C	 0.381018	 -0.648237	 0.855598
H	 -1.815417	 1.308869	 -1.630238
C	 0.186277	 0.882499	 -0.979330
H	 0.999427	 -1.190962	 1.545612
C	 0.986566	 0.178878	 -0.084857
H	 0.643602	 1.525675	 -1.711614
C	 2.456216	 0.308415	 -0.133447
O	 3.212313	 -0.257353	 0.593864
H	 2.834995	 0.982862	 -0.908570

	symmetry c1
}
set optking {
	frozen_dihedral = ("
		5 3 2 1
	")
}

ee = optimize('scf')
oeprop('DIPOLE', 'QUADRUPOLE', 'MULLIKEN_CHARGES')
f=open( 'psi4out.xyz', 'w' )
f.write( "15  " )
f.write( str(ee) + "\n" )
f.write( MOL.save_string_xyz() )
f.close()
--------------------------------------------------------------------------

    Molecular point group: c1
  Charge       = 0
  Multiplicity = 1
  Basis Set: 6-31G*
  Basis Set:
  @DF-RHF Final Energy:  -418.28611346218071
    Total Energy =                       -418.2861134621814472
    Molecular point group: c1
  Basis Set: 6-31G*
  Basis Set:
  Basis Set: 6-31G*
  Basis Set:
  @DF-RHF Final Energy:  -418.28636167239625
    Total Energy =                       -418.2863616723968789
  Basis Set: 6-31G*
  Basis Set:
  Basis Set: 6-31G*
  Basis Set:
  @DF-RHF Final Energy:  -418.28634725791682
    Total Energy =                       -418.2863472579169866
  Basis Set: 6-31G*
  Basis Set:
  Basis Set: 6-31G*
  Basis Set:
  @DF-RHF Final Energy:  -418.28623599212347
    Total Energy =                       -418.2862359921233519
  Basis Set: 6-31G*
  Basis Set:
  Basis Set: 6-31G*
  Basis Set:
  @DF-RHF Final Energy:  -418.28639570028599
    Total Energy =                       -418.2863957002861071
  Basis Set: 6-31G*
  Basis Set:
  Charge       = 0
  Multiplicity = 1
  Basis Set: 6-31G*
  Basis Set:

    Orbital Energies (a.u.)
    -----------------------

    Doubly Occupied:

       1A    -20.599938     2A    -20.559014     3A    -11.330195
       4A    -11.317260     5A    -11.260387     6A    -11.255089
       7A    -11.243574     8A    -11.242617     9A    -11.240842
      10A     -1.418813    11A     -1.400098    12A     -1.170702
      13A     -1.041427    14A     -1.037634    15A     -0.887358
      16A     -0.862068    17A     -0.795204    18A     -0.753234
      19A     -0.711175    20A     -0.665834    21A     -0.647219
      22A     -0.629573    23A     -0.616831    24A     -0.607332
      25A     -0.562671    26A     -0.553002    27A     -0.544553
      28A     -0.501275    29A     -0.483504    30A     -0.420816
      31A     -0.356292    32A     -0.334805

  @DF-RHF Final Energy:  -418.28639632296546

   => Energetics <=

    Nuclear Repulsion Energy =            401.0078020595605608
    One-Electron Energy =               -1364.4877186505816553
    Two-Electron Energy =                 545.1935202680550674
    DFT Exchange-Correlation Energy =       0.0000000000000000
    Empirical Dispersion Energy =           0.0000000000000000
    PCM Polarization Energy =               0.0000000000000000
    EFP Energy =                            0.0000000000000000
    Total Energy =                       -418.2863963229659703
    Molecular point group: c1
  Basis Set: 6-31G*
  Basis Set:

  -Total Gradient:
     Atom            X                  Y                   Z
    ------   -----------------  -----------------  -----------------
       1       -0.000080071617    -0.000005253545    -0.003375175126
       2        0.000083322566    -0.000920179592     0.003439784973
       3       -0.000087986399     0.002721470386     0.001643815059
       4       -0.000137575233    -0.000005700686    -0.000074148883
       5        0.000189465636    -0.001811328892    -0.001628733749
       6        0.000004855662     0.000002593863     0.000006572635
       7        0.000105502463     0.000081980226    -0.000042177050
       8       -0.000001149630    -0.000006363601     0.000012225888
       9       -0.000081753709    -0.000001186955    -0.000072652627
      10       -0.000008950693    -0.000004371991     0.000001201110
      11        0.000006761826    -0.000072747260     0.000088399764
      12        0.000014815236     0.000004496238     0.000008077223
      13        0.000009436431     0.000037669109     0.000005701553
      14       -0.000011502771    -0.000014319549    -0.000005300640
      15       -0.000005169765    -0.000006757750    -0.000007590131

  **** Optimization is complete! (in 6 steps) ****
    Final optimized geometry and variables:
    Molecular point group: c1

    Geometry (in Angstrom), charge = 0, multiplicity = 1:

    H           -3.406436579575    -1.062786068027    -0.009698960384
    O           -3.127774111796    -0.156952667060    -0.013933204088
    C           -1.773115147957    -0.071130359952    -0.038055953792
    C           -0.991456270098    -0.785092192556     0.864796468793
    C           -1.184198601773     0.753660567998    -0.982485669418
    H           -1.466614088204    -1.413143514846     1.597325700498
    C            0.381275724372    -0.667145824477     0.820642687022
    H           -1.809772560528     1.287915854656    -1.672202648833
    C            0.193202759935     0.874718595799    -1.009293059432
    H            0.999700719224    -1.210043009282     1.510438207161
    C            0.986653149255     0.166774480395    -0.116246650906
    H            0.653374657442     1.518209125728    -1.739431320612
    C            2.458679255620     0.297764106842    -0.162326711820
    O            3.212540781195    -0.276676260738     0.559625137649
    H            2.838567833683     0.980326548979    -0.929374119139

  Mulliken Charges: (a.u.)
   Center  Symbol    Alpha    Beta     Spin     Total
       1     H     0.26890  0.26890  0.00000  0.46221
       2     O     4.38106  4.38106  0.00000 -0.76211
       3     C     2.79817  2.79817  0.00000  0.40366
       4     C     3.13435  3.13435  0.00000 -0.26871
       5     C     3.12405  3.12405  0.00000 -0.24811
       6     H     0.39304  0.39304  0.00000  0.21392
       7     C     3.08175  3.08175  0.00000 -0.16349
       8     H     0.38692  0.38692  0.00000  0.22617
       9     C     3.09614  3.09614  0.00000 -0.19227
      10     H     0.37483  0.37483  0.00000  0.25034
      11     C     3.06386  3.06386  0.00000 -0.12772
      12     H     0.38984  0.38984  0.00000  0.22031
      13     C     2.83065  2.83065  0.00000  0.33870
      14     O     4.25256  4.25256  0.00000 -0.50513
      15     H     0.42388  0.42388  0.00000  0.15224

   Total alpha = 32.00000, Total beta = 32.00000, Total charge =  0.00000
