                              Psi4 1.0.54 Driver

  ==> Input File <==

--------------------------------------------------------------------------
set {
	reference rhf
	basis cc-pvtz
}

set_num_threads( 4 )
memory 2 gb

molecule MOL {
0 1

H	 -3.941973	 0.934228	 -0.390224
C	 -3.240162	 0.342701	 0.161016
C	 -2.105997	 -0.000418	 -0.398703
H	 -3.485368	 0.047206	 1.162193
O	 -1.776855	 0.380230	 -1.654329
H	 -1.369823	 -0.592917	 0.113274
C	 -0.610461	 -0.111027	 -2.212281
C	 -0.845299	 -1.401770	 -2.969821
H	 0.156890	 -0.295483	 -1.470039
H	 -0.243573	 0.618101	 -2.918824
F	 0.287439	 -1.807009	 -3.508122
F	 -1.278831	 -2.361951	 -2.181400
F	 -1.719700	 -1.254520	 -3.935324

	symmetry c1
}
set optking {
	frozen_dihedral = ("
		6 3 2 1
	")
}

ee,wfn = optimize('scf', return_wfn=True)
oeprop( wfn, 'DIPOLE', 'QUADRUPOLE', 'MULLIKEN_CHARGES')
f=open( 'psi4out.xyz', 'w' )
f.write( "13  " )
f.write( str(ee) + "\n" )
f.write( MOL.save_string_xyz() )
f.close()
--------------------------------------------------------------------------

    Molecular point group: c1
  Charge       = 0
  Multiplicity = 1
  Basis Set: CC-PVTZ
  Basis Set:
  @DF-RHF Final Energy:  -527.74188487232607
    Total Energy =                       -527.7418848723262954
    Molecular point group: c1
  Basis Set: CC-PVTZ
  Basis Set:
  Basis Set: CC-PVTZ
  Basis Set:
  @DF-RHF Final Energy:  -527.74206596580871
    Total Energy =                       -527.7420659658091608
  Basis Set: CC-PVTZ
  Basis Set:
  Basis Set: CC-PVTZ
  Basis Set:
  @DF-RHF Final Energy:  -527.74207874795331
    Total Energy =                       -527.7420787479534283
  Basis Set: CC-PVTZ
  Basis Set:
  Basis Set: CC-PVTZ
  Basis Set:
  @DF-RHF Final Energy:  -527.74207995930760
    Total Energy =                       -527.7420799593073752
  Basis Set: CC-PVTZ
  Basis Set:
  Charge       = 0
  Multiplicity = 1
  Basis Set: CC-PVTZ
  Basis Set:

    Orbital Energies (a.u.)
    -----------------------

    Doubly Occupied:

       1A    -26.341859     2A    -26.340585     3A    -26.338054
       4A    -20.604130     5A    -11.497847     6A    -11.320162
       7A    -11.298693     8A    -11.213849     9A     -1.750496
      10A     -1.646997    11A     -1.645399    12A     -1.444717
      13A     -1.088245    14A     -1.020668    15A     -0.932297
      16A     -0.843990    17A     -0.839642    18A     -0.827144
      19A     -0.798299    20A     -0.728943    21A     -0.719266
      22A     -0.703938    23A     -0.681803    24A     -0.668164
      25A     -0.661607    26A     -0.650954    27A     -0.640714
      28A     -0.588032    29A     -0.566366    30A     -0.529047
      31A     -0.518594    32A     -0.356656

  @DF-RHF Final Energy:  -527.74208032241597

   => Energetics <=

    Nuclear Repulsion Energy =            413.5267410218062878
    One-Electron Energy =               -1550.9233344654135180
    Two-Electron Energy =                 609.6545131211914850
    DFT Exchange-Correlation Energy =       0.0000000000000000
    Empirical Dispersion Energy =           0.0000000000000000
    PCM Polarization Energy =               0.0000000000000000
    EFP Energy =                            0.0000000000000000
    Total Energy =                       -527.7420803224158590
    Molecular point group: c1
  Basis Set: CC-PVTZ
  Basis Set:

  -Total Gradient:
     Atom            X                  Y                   Z
    ------   -----------------  -----------------  -----------------
       1        0.000154502593     0.000257449761     0.000120643371
       2       -0.000133815745    -0.000251322443    -0.000156190357
       3       -0.000154421711    -0.000288752529    -0.000050113684
       4        0.000002982427    -0.000008021885     0.000012004807
       5        0.000019487592     0.000029350457    -0.000068573744
       6        0.000142595484     0.000271887284     0.000107505710
       7       -0.000030671346    -0.000011058286     0.000027039197
       8       -0.000002042136     0.000002049013     0.000002909990
       9        0.000006193424    -0.000001661595     0.000004936769
      10       -0.000009172287     0.000004898461     0.000005511760
      11        0.000007670303    -0.000002061268    -0.000002916334
      12       -0.000000397300    -0.000001540638    -0.000003426693
      13       -0.000002911297    -0.000001216334     0.000000669213

  **** Optimization is complete! (in 5 steps) ****
    Final optimized geometry and variables:
    Molecular point group: c1

    Geometry (in Angstrom), charge = 0, multiplicity = 1:

    H           -2.619358339857     1.808903887943     1.843196579702
    C           -1.892566640081     1.216753024575     2.363663575015
    C           -0.758933391286     0.871506660387     1.804133217147
    H           -2.101499533191     0.904821587247     3.366365584617
    O           -0.427464634584     1.254190499148     0.549762078931
    H           -0.023687464606     0.278362153499     2.316681442051
    C            0.740876164026     0.765270000837    -0.005957388038
    C            0.509839824173    -0.525636683881    -0.764461900274
    H            1.507080742649     0.581876493791     0.737768195245
    H            1.107889625003     1.495346729871    -0.711454601600
    F            1.644422205956    -0.929217130549    -1.300007428392
    F            0.075637258638    -1.486581900987     0.022727028863
    F           -0.362423903889    -0.379402424069    -1.732108499525

  Mulliken Charges: (a.u.)
   Center  Symbol    Alpha    Beta     Spin     Total
       1     H     0.42475  0.42475  0.00000  0.15049
       2     C     3.19746  3.19746  0.00000 -0.39493
       3     C     2.95865  2.95865  0.00000  0.08269
       4     H     0.42516  0.42516  0.00000  0.14968
       5     O     4.14450  4.14450  0.00000 -0.28900
       6     H     0.43450  0.43450  0.00000  0.13100
       7     C     3.01924  3.01924  0.00000 -0.03847
       8     C     2.67548  2.67548  0.00000  0.64903
       9     H     0.45526  0.45526  0.00000  0.08948
      10     H     0.43520  0.43520  0.00000  0.12961
      11     F     4.61259  4.61259  0.00000 -0.22517
      12     F     4.61043  4.61043  0.00000 -0.22086
      13     F     4.60677  4.60677  0.00000 -0.21355

   Total alpha = 32.00000, Total beta = 32.00000, Total charge = -0.00000

*** Psi4 exiting successfully. Buy a developer a beer!
