  ==> Input File <==

--------------------------------------------------------------------------
set {
	reference rhf
	basis 6-31G*
}

set_num_threads( 4 )
memory 2 gb

molecule MOL {
0 1

O	 0.363425	 1.059132	 -0.778111
C	 0.486307	 0.169203	 0.000779
C	 1.608116	 -0.841643	 0.000302
O	 -0.365418	 -0.057217	 0.991185
C	 2.990107	 -0.200498	 -0.000684
H	 1.468623	 -1.481519	 -0.865924
H	 1.469683	 -1.481289	 0.866878
H	 3.129736	 0.423364	 -0.875135
H	 3.757882	 -0.966877	 -0.001197
H	 3.130964	 0.423383	 0.873533
C	 -1.479223	 0.821176	 1.114740
C	 -2.292972	 0.357637	 2.304385
H	 -2.055386	 0.790676	 0.200032
H	 -1.118165	 1.832023	 1.246711
H	 -2.642559	 -0.658159	 2.159109
H	 -3.155930	 1.002432	 2.435496
H	 -1.700311	 0.388908	 3.211596

	symmetry c1
}
set optking {
	frozen_dihedral = ("
		4 2 3 6
	")
}

ee = optimize('scf')
oeprop('DIPOLE', 'QUADRUPOLE', 'MULLIKEN_CHARGES')
f=open( 'psi4out.xyz', 'w' )
f.write( "17  " )
f.write( str(ee) + "\n" )
f.write( MOL.save_string_xyz() )
f.close()
--------------------------------------------------------------------------

    Molecular point group: c1
  Charge       = 0
  Multiplicity = 1
  Basis Set: 6-31G*
  Basis Set:
  @DF-RHF Final Energy:  -344.90982845594453
    Total Energy =                       -344.9098284559444210
    Molecular point group: c1
  Basis Set: 6-31G*
  Basis Set:
  Basis Set: 6-31G*
  Basis Set:
  @DF-RHF Final Energy:  -344.91043940142669
    Total Energy =                       -344.9104394014271406
  Basis Set: 6-31G*
  Basis Set:
  Basis Set: 6-31G*
  Basis Set:
  @DF-RHF Final Energy:  -344.91037615778004
    Total Energy =                       -344.9103761577802629
  Basis Set: 6-31G*
  Basis Set:
  Basis Set: 6-31G*
  Basis Set:
  @DF-RHF Final Energy:  -344.91044586336074
    Total Energy =                       -344.9104458633609056
  Basis Set: 6-31G*
  Basis Set:
  Basis Set: 6-31G*
  Basis Set:
  @DF-RHF Final Energy:  -344.91046730399620
    Total Energy =                       -344.9104673039963700
  Basis Set: 6-31G*
  Basis Set:
  Charge       = 0
  Multiplicity = 1
  Basis Set: 6-31G*
  Basis Set:

    Orbital Energies (a.u.)
    -----------------------

    Doubly Occupied:

       1A    -20.603206     2A    -20.541430     3A    -11.371033
       4A    -11.284808     5A    -11.236407     6A    -11.222500
       7A    -11.220850     8A     -1.468039     9A     -1.360748
      10A     -1.069870    11A     -1.032379    12A     -0.909546
      13A     -0.850224    14A     -0.775462    15A     -0.694324
      16A     -0.686866    17A     -0.665880    18A     -0.622360
      19A     -0.591459    20A     -0.574425    21A     -0.556058
      22A     -0.529863    23A     -0.524359    24A     -0.510440
      25A     -0.502272    26A     -0.492504    27A     -0.451689
      28A     -0.433633

  @DF-RHF Final Energy:  -344.91046703456681

   => Energetics <=

    Nuclear Repulsion Energy =            315.0087230911950087
    One-Electron Energy =               -1094.2731102489142359
    Two-Electron Energy =                 434.3539201231520792
    DFT Exchange-Correlation Energy =       0.0000000000000000
    Empirical Dispersion Energy =           0.0000000000000000
    PCM Polarization Energy =               0.0000000000000000
    EFP Energy =                            0.0000000000000000
    Total Energy =                       -344.9104670345672048
    Molecular point group: c1
  Basis Set: 6-31G*
  Basis Set:

  -Total Gradient:
     Atom            X                  Y                   Z
    ------   -----------------  -----------------  -----------------
       1       -0.000149754916     0.000003291642     0.000154676308
       2       -0.000348214977    -0.000499552572    -0.001070592523
       3       -0.000283436148    -0.000481888520     0.000919521708
       4        0.000301244660     0.000501322684     0.000445885427
       5       -0.000093703921    -0.000083042240    -0.000047872510
       6        0.000535649163     0.000609332306    -0.000439710279
       7        0.000003002466    -0.000123887875     0.000030517967
       8        0.000053888495     0.000055798316    -0.000043229026
       9       -0.000029245804    -0.000002553121    -0.000007241208
      10       -0.000065637382    -0.000027535227    -0.000011393096
      11        0.000194438495     0.000157698113     0.000194224687
      12       -0.000062836433    -0.000040997639    -0.000045332858
      13       -0.000001485836    -0.000041880214    -0.000061193442
      14       -0.000050247959    -0.000017814711    -0.000014512177
      15       -0.000014656542    -0.000011950796     0.000022578916
      16       -0.000004562519    -0.000007337771    -0.000002425996
      17        0.000015559158     0.000010997624    -0.000023901892

  **** Optimization is complete! (in 6 steps) ****
    Final optimized geometry and variables:
    Molecular point group: c1

    Geometry (in Angstrom), charge = 0, multiplicity = 1:

    O            0.226541773755     0.858094744054    -1.267109997828
    C            0.320311892122    -0.039101964146    -0.490846736720
    C            1.438097435445    -1.056612687443    -0.503994072457
    O           -0.551894525080    -0.254207211579     0.481445450844
    C            2.810675282277    -0.385977079740    -0.584236542777
    H            1.287234631828    -1.672783324101    -1.385718582089
    H            1.358553305233    -1.695988567354     0.365020642249
    H            2.871401101050     0.256617685173    -1.453132742246
    H            3.590848362664    -1.135945466840    -0.653684754976
    H            3.004037719282     0.216945966309     0.297051666649
    C           -1.660330820316     0.634960159780     0.577717579246
    C           -2.511049405283     0.175152341608     1.742708599180
    H           -2.210620907121     0.613127476679    -0.352979717762
    H           -1.292432475764     1.641370012302     0.722797477867
    H           -2.866418695607    -0.836692584197     1.584257142588
    H           -3.370970262991     0.827949760390     1.852302529809
    H           -1.943446482315     0.197644509322     2.666039369610

  Mulliken Charges: (a.u.)
   Center  Symbol    Alpha    Beta     Spin     Total
       1     O     4.28752  4.28752  0.00000 -0.57504
       2     C     2.60582  2.60582  0.00000  0.78835
       3     C     3.20443  3.20443  0.00000 -0.40887
       4     O     4.31077  4.31077  0.00000 -0.62153
       5     C     3.24645  3.24645  0.00000 -0.49291
       6     H     0.40056  0.40056  0.00000  0.19888
       7     H     0.40053  0.40053  0.00000  0.19893
       8     H     0.40190  0.40190  0.00000  0.19620
       9     H     0.41507  0.41507  0.00000  0.16986
      10     H     0.41556  0.41556  0.00000  0.16888
      11     C     3.00351  3.00351  0.00000 -0.00703
      12     C     3.24858  3.24858  0.00000 -0.49717
      13     H     0.40977  0.40977  0.00000  0.18045
      14     H     0.40974  0.40974  0.00000  0.18051
      15     H     0.41176  0.41176  0.00000  0.17649
      16     H     0.41618  0.41618  0.00000  0.16763
      17     H     0.41182  0.41182  0.00000  0.17636

   Total alpha = 28.00000, Total beta = 28.00000, Total charge =  0.00000
