                              Psi4 1.0.54 Driver

  ==> Input File <==

--------------------------------------------------------------------------
set {
	reference rhf
	basis cc-pvtz
}

set_num_threads( 4 )
memory 2 gb

molecule MOL {
0 1

H	 -2.181836	 -1.524636	 -2.093308
N	 -1.269447	 -1.557864	 -1.691420
C	 -1.300109	 -1.161230	 -0.295754
H	 -0.687944	 -0.934961	 -2.210883
C	 0.088926	 -1.205941	 0.298577
H	 -1.709554	 -0.164312	 -0.137468
H	 -1.924803	 -1.859759	 0.250016
O	 0.881195	 -0.248324	 -0.336237
H	 0.040316	 -1.002305	 1.367381
H	 0.514254	 -2.197230	 0.159395
C	 2.208068	 -0.234417	 0.074171
H	 2.725499	 -1.027054	 -0.446768
H	 2.688377	 0.712084	 -0.164856
H	 2.295137	 -0.403407	 1.144883

	symmetry c1
}
set optking {
	frozen_dihedral = ("
		5 8 11 13
	")
}

ee,wfn = optimize('scf', return_wfn=True)
oeprop( wfn, 'DIPOLE', 'QUADRUPOLE', 'MULLIKEN_CHARGES')
f=open( 'psi4out.xyz', 'w' )
f.write( "14  " )
f.write( str(ee) + "\n" )
f.write( MOL.save_string_xyz() )
f.close()
--------------------------------------------------------------------------

    Molecular point group: c1
  Charge       = 0
  Multiplicity = 1
  Basis Set: CC-PVTZ
  Basis Set:
  @DF-RHF Final Energy:  -248.22436372499752
    Total Energy =                       -248.2243637249976018
    Molecular point group: c1
  Basis Set: CC-PVTZ
  Basis Set:
  Basis Set: CC-PVTZ
  Basis Set:
  @DF-RHF Final Energy:  -248.17744039703237
    Total Energy =                       -248.1774403970322851
  Basis Set: CC-PVTZ
  Basis Set:
  Basis Set: CC-PVTZ
  Basis Set:
  @DF-RHF Final Energy:  -248.22332528629974
    Total Energy =                       -248.2233252862997688
  Basis Set: CC-PVTZ
  Basis Set:
  Basis Set: CC-PVTZ
  Basis Set:
  @DF-RHF Final Energy:  -248.22527413883503
    Total Energy =                       -248.2252741388350614
  Basis Set: CC-PVTZ
  Basis Set:
  Basis Set: CC-PVTZ
  Basis Set:
  @DF-RHF Final Energy:  -248.22532665532131
    Total Energy =                       -248.2253266553213393
  Basis Set: CC-PVTZ
  Basis Set:
  Basis Set: CC-PVTZ
  Basis Set:
  @DF-RHF Final Energy:  -248.22533089258201
    Total Energy =                       -248.2253308925820647
  Basis Set: CC-PVTZ
  Basis Set:
  Charge       = 0
  Multiplicity = 1
  Basis Set: CC-PVTZ
  Basis Set:

    Orbital Energies (a.u.)
    -----------------------

    Doubly Occupied:

       1A    -20.549905     2A    -15.523508     3A    -11.264040
       4A    -11.263510     5A    -11.239787     6A     -1.383415
       7A     -1.175965     8A     -1.000506     9A     -0.907691
      10A     -0.815696    11A     -0.685375    12A     -0.675476
      13A     -0.646542    14A     -0.611717    15A     -0.607725
      16A     -0.541916    17A     -0.532307    18A     -0.497155
      19A     -0.474240    20A     -0.419038    21A     -0.383873

  @DF-RHF Final Energy:  -248.22533099279639

   => Energetics <=

    Nuclear Repulsion Energy =            194.6259017070267987
    One-Electron Energy =                -723.3036923382375107
    Two-Electron Energy =                 280.4524596384143251
    DFT Exchange-Correlation Energy =       0.0000000000000000
    Empirical Dispersion Energy =           0.0000000000000000
    PCM Polarization Energy =               0.0000000000000000
    EFP Energy =                            0.0000000000000000
    Total Energy =                       -248.2253309927963301
    Molecular point group: c1
  Basis Set: CC-PVTZ
  Basis Set:

  -Total Gradient:
     Atom            X                  Y                   Z
    ------   -----------------  -----------------  -----------------
       1       -0.000003769462    -0.000008764148     0.000010755687
       2        0.000010855284    -0.000010348487    -0.000002294422
       3       -0.000014700018     0.000036169356     0.000020070965
       4        0.000005026537    -0.000006785430     0.000008885168
       5       -0.000568955682     0.000583428832     0.001665721404
       6       -0.000017555930     0.000004843620     0.000002285656
       7       -0.000002464774     0.000000550140    -0.000010032256
       8        0.000646757691    -0.000867314215    -0.001887614376
       9       -0.000002343795     0.000015635728    -0.000005170813
      10        0.000012133160    -0.000016644765     0.000005269977
      11        0.000632371638     0.000327970566    -0.002074822115
      12        0.000000927884    -0.000001156813    -0.000002534756
      13       -0.000706442943    -0.000057759022     0.002264320179
      14        0.000008160411     0.000000174639     0.000005159703

  **** Optimization is complete! (in 7 steps) ****
    Final optimized geometry and variables:
    Molecular point group: c1

    Geometry (in Angstrom), charge = 0, multiplicity = 1:

    H           -2.228816111376    -0.413236482786    -1.872824395173
    N           -1.310762043590    -0.426225950052    -1.482890749988
    C           -1.360070290300    -0.550102709758    -0.037804834175
    H           -0.862884050520     0.428570013766    -1.737250103885
    C            0.036002254436    -0.562121785752     0.541351706388
    H           -1.925375818651     0.245383925036     0.446233218713
    H           -1.839688494434    -1.489580483214     0.214144410662
    O            0.631281193073     0.677995447553     0.303688286338
    H           -0.008911460775    -0.753524153939     1.612110240685
    H            0.615896551217    -1.356435685613     0.076495610728
    C            1.954874656583     0.779960370109     0.717349404459
    H            2.632363798927     0.319129509161     0.003529999106
    H            2.195456668102     1.828882611766     0.818461484145
    H            2.104348860588     0.308875646340     1.686146732784

  Mulliken Charges: (a.u.)
   Center  Symbol    Alpha    Beta     Spin     Total
       1     H     0.43024  0.43024  0.00000  0.13952
       2     N     3.69419  3.69419  0.00000 -0.38838
       3     C     3.02278  3.02278  0.00000 -0.04556
       4     H     0.42242  0.42242  0.00000  0.15516
       5     C     2.96863  2.96863  0.00000  0.06275
       6     H     0.46463  0.46463  0.00000  0.07075
       7     H     0.45868  0.45868  0.00000  0.08263
       8     O     4.18112  4.18112  0.00000 -0.36224
       9     H     0.46863  0.46863  0.00000  0.06275
      10     H     0.46974  0.46974  0.00000  0.06053
      11     C     3.03069  3.03069  0.00000 -0.06139
      12     H     0.46517  0.46517  0.00000  0.06967
      13     H     0.44973  0.44973  0.00000  0.10053
      14     H     0.47336  0.47336  0.00000  0.05328

   Total alpha = 21.00000, Total beta = 21.00000, Total charge = -0.00000

*** Psi4 exiting successfully. Buy a developer a beer!
