  ==> Input File <==

--------------------------------------------------------------------------
set {
	reference rhf
	basis 6-31G*
}

set_num_threads( 4 )
memory 2 gb

molecule MOL {
0 1

H	 -3.642552	 1.211029	 -1.003538
O	 -3.452007	 0.283848	 -0.965577
C	 -3.181085	 -0.079926	 0.364119
C	 -1.765924	 0.277073	 0.805136
H	 -3.327791	 -1.152017	 0.410903
H	 -3.905698	 0.375695	 1.036898
C	 -0.677594	 -0.417312	 -0.014550
H	 -1.637766	 1.358238	 0.744969
H	 -1.659588	 0.017670	 1.857098
C	 0.738335	 -0.034840	 0.421385
H	 -0.814977	 -0.178223	 -1.064632
H	 -0.802730	 -1.495410	 0.071702
C	 1.822265	 -0.738362	 -0.399735
H	 0.853533	 1.043532	 0.342250
H	 0.871597	 -0.279636	 1.474438
C	 3.258060	 -0.455774	 0.057203
H	 1.718003	 -0.459167	 -1.447053
H	 1.651028	 -1.811884	 -0.354513
C	 3.709143	 0.994797	 -0.123830
H	 3.930637	 -1.101717	 -0.501982
H	 3.365259	 -0.739518	 1.102287
H	 3.601178	 1.310569	 -1.158127
H	 4.753787	 1.110486	 0.148516
H	 3.135362	 1.678896	 0.492569

	symmetry c1
}
set optking {
	frozen_dihedral = ("
		1 2 3 5
	")
}

ee = optimize('scf')
oeprop('DIPOLE', 'QUADRUPOLE', 'MULLIKEN_CHARGES')
f=open( 'psi4out.xyz', 'w' )
f.write( "24  " )
f.write( str(ee) + "\n" )
f.write( MOL.save_string_xyz() )
f.close()
--------------------------------------------------------------------------

    Molecular point group: c1
  Charge       = 0
  Multiplicity = 1
  Basis Set: 6-31G*
  Basis Set:
  @DF-RHF Final Energy:  -349.24730419886015
    Total Energy =                       -349.2473041988599789
    Molecular point group: c1
  Basis Set: 6-31G*
  Basis Set:
  Basis Set: 6-31G*
  Basis Set:
  @DF-RHF Final Energy:  -349.24731879117621
    Total Energy =                       -349.2473187911766104
  Basis Set: 6-31G*
  Basis Set:
  Basis Set: 6-31G*
  Basis Set:
  @DF-RHF Final Energy:  -349.24732360072557
    Total Energy =                       -349.2473236007255650
  Basis Set: 6-31G*
  Basis Set:
  Charge       = 0
  Multiplicity = 1
  Basis Set: 6-31G*
  Basis Set:

    Orbital Energies (a.u.)
    -----------------------

    Doubly Occupied:

       1A    -20.553397     2A    -11.267923     3A    -11.215281
       4A    -11.213177     5A    -11.211036     6A    -11.210372
       7A    -11.209122     8A    -11.206552     9A     -1.359876
      10A     -1.087197    11A     -1.047264    12A     -0.984822
      13A     -0.914008    14A     -0.848804    15A     -0.798532
      16A     -0.775068    17A     -0.685052    18A     -0.652283
      19A     -0.624232    20A     -0.616665    21A     -0.592475
      22A     -0.583415    23A     -0.557248    24A     -0.539976
      25A     -0.515377    26A     -0.506571    27A     -0.498435
      28A     -0.473157    29A     -0.468163    30A     -0.456070
      31A     -0.454972    32A     -0.448284    33A     -0.418794

  @DF-RHF Final Energy:  -349.24732406243658

   => Energetics <=

    Nuclear Repulsion Energy =            384.3913933346081535
    One-Electron Energy =               -1235.2902341124613486
    Two-Electron Energy =                 501.6515167154167898
    DFT Exchange-Correlation Energy =       0.0000000000000000
    Empirical Dispersion Energy =           0.0000000000000000
    PCM Polarization Energy =               0.0000000000000000
    EFP Energy =                            0.0000000000000000
    Total Energy =                       -349.2473240624363484
    Molecular point group: c1
  Basis Set: 6-31G*
  Basis Set:

  -Total Gradient:
     Atom            X                  Y                   Z
    ------   -----------------  -----------------  -----------------
       1       -0.001269602786    -0.000399213835     0.000247435847
       2        0.001378753265     0.000363439735    -0.000243285509
       3        0.001090124886    -0.000019202775    -0.000252592123
       4        0.000055590555     0.000092984844    -0.000053768204
       5       -0.001181376964     0.000216036258     0.000233061177
       6       -0.000048691779    -0.000108145731     0.000042809915
       7        0.000000203516     0.000016197413     0.000001293194
       8       -0.000041750911    -0.000075157611    -0.000033399701
       9       -0.000000423331    -0.000047722686     0.000030474619
      10        0.000007213749    -0.000016597487    -0.000002275904
      11       -0.000010881036    -0.000007591234     0.000012983510
      12        0.000010924846    -0.000011379638     0.000021337258
      13        0.000014218686     0.000021235986    -0.000010104719
      14        0.000004723966     0.000006940968     0.000015948970
      15       -0.000001212725    -0.000021638168     0.000001040395
      16        0.000005306359     0.000004412084    -0.000026185406
      17       -0.000001925534    -0.000017264706    -0.000004367339
      18        0.000005107374     0.000002567487     0.000013182272
      19       -0.000005463845    -0.000001139093     0.000004186223
      20        0.000003608056     0.000004951588    -0.000002255917
      21       -0.000003104631    -0.000004412987    -0.000000492693
      22       -0.000000523305    -0.000001505629     0.000003275053
      23        0.000003658280     0.000001634030     0.000000711625
      24       -0.000014476677     0.000000571187     0.000000987459

  **** Optimization is complete! (in 4 steps) ****
    Final optimized geometry and variables:
    Molecular point group: c1

    Geometry (in Angstrom), charge = 0, multiplicity = 1:

    H           -3.614753136479     1.221139108048    -1.011325871286
    O           -3.436644906573     0.292450799741    -0.971703187533
    C           -3.179002786804    -0.077283658284     0.360226253759
    C           -1.765321449801     0.273556152597     0.808850097605
    H           -3.338901079436    -1.147642291126     0.409796237648
    H           -3.905629672261     0.381693245721     1.028187634478
    C           -0.677518847169    -0.423791094814    -0.008647414433
    H           -1.634251073707     1.353537332234     0.748104035095
    H           -1.663841855649     0.011016319860     1.860851110019
    C            0.738590277697    -0.041341518225     0.426719978437
    H           -0.815585030832    -0.185025481514    -1.058497735672
    H           -0.803016171602    -1.501840247719     0.079778970293
    C            1.822307171970    -0.741030514598    -0.397963355548
    H            0.852300103315     1.037302888491     0.350358925632
    H            0.873685005601    -0.289024970529     1.478947519072
    C            3.258657051745    -0.453245163511     0.053926662693
    H            1.713393540278    -0.462363123178    -1.444892731692
    H            1.655150734422    -1.815231693623    -0.352150309532
    C            3.703612735516     0.999052205225    -0.128349233539
    H            3.931725530799    -1.096526181644    -0.507704554362
    H            3.370542908875    -0.736741670780     1.098616118406
    H            3.590829256312     1.314602815018    -1.162179645136
    H            4.748782884620     1.118691869623     0.140385496027
    H            3.129218303636     1.680769483124     0.490067602165

  Mulliken Charges: (a.u.)
   Center  Symbol    Alpha    Beta     Spin     Total
       1     H     0.28235  0.28235  0.00000  0.43531
       2     O     4.36865  4.36865  0.00000 -0.73730
       3     C     3.00007  3.00007  0.00000 -0.00014
       4     C     3.16351  3.16351  0.00000 -0.32702
       5     H     0.41668  0.41668  0.00000  0.16665
       6     H     0.42847  0.42847  0.00000  0.14307
       7     C     3.15276  3.15276  0.00000 -0.30552
       8     H     0.42760  0.42760  0.00000  0.14481
       9     H     0.42395  0.42395  0.00000  0.15209
      10     C     3.15358  3.15358  0.00000 -0.30717
      11     H     0.41028  0.41028  0.00000  0.17945
      12     H     0.42445  0.42445  0.00000  0.15110
      13     C     3.15220  3.15220  0.00000 -0.30440
      14     H     0.42283  0.42283  0.00000  0.15434
      15     H     0.42583  0.42583  0.00000  0.14834
      16     C     3.15223  3.15223  0.00000 -0.30447
      17     H     0.42356  0.42356  0.00000  0.15288
      18     H     0.42230  0.42230  0.00000  0.15540
      19     C     3.24098  3.24098  0.00000 -0.48196
      20     H     0.42124  0.42124  0.00000  0.15751
      21     H     0.42393  0.42393  0.00000  0.15214
      22     H     0.42227  0.42227  0.00000  0.15545
      23     H     0.41974  0.41974  0.00000  0.16051
      24     H     0.42054  0.42054  0.00000  0.15891

   Total alpha = 33.00000, Total beta = 33.00000, Total charge =  0.00000
