                              Psi4 1.0.54 Driver

  ==> Input File <==

--------------------------------------------------------------------------
set {
	reference rhf
	basis cc-pvtz
}

set_num_threads( 4 )
memory 2 gb

molecule MOL {
0 1

O	 2.868453	 1.353349	 -0.000734
C	 2.841259	 0.166180	 -0.000295
C	 1.542794	 -0.614730	 -0.000853
C	 4.113372	 -0.651103	 0.000743
C	 0.288398	 0.247429	 0.000314
H	 1.557171	 -1.273139	 -0.866508
H	 1.557484	 -1.274998	 0.863344
C	 0.130273	 1.051322	 1.287895
H	 -0.578639	 -0.386281	 -0.147243
H	 0.316855	 0.917554	 -0.851306
C	 -1.124084	 1.920068	 1.301983
H	 0.104939	 0.372953	 2.137864
H	 1.004298	 1.683019	 1.430376
C	 -1.289589	 2.726919	 2.586637
H	 -1.998316	 1.289485	 1.159868
H	 -1.099309	 2.599053	 0.453164
C	 -2.545238	 3.592419	 2.593273
H	 -1.315645	 2.048954	 3.435533
H	 -0.416758	 3.358476	 2.728839
H	 -3.438767	 2.986231	 2.487522
H	 -2.632656	 4.151260	 3.517976
H	 -2.533120	 4.305588	 1.775785
H	 4.145311	 -1.294584	 -0.871587
H	 4.970080	 0.004978	 -0.000091
H	 4.145223	 -1.291980	 0.874988

	symmetry c1
}
set optking {
	frozen_dihedral = ("
		9 5 3 6
	")
}

ee,wfn = optimize('scf', return_wfn=True)
oeprop( wfn, 'DIPOLE', 'QUADRUPOLE', 'MULLIKEN_CHARGES')
f=open( 'psi4out.xyz', 'w' )
f.write( "25  " )
f.write( str(ee) + "\n" )
f.write( MOL.save_string_xyz() )
f.close()
--------------------------------------------------------------------------

    Molecular point group: c1
  Charge       = 0
  Multiplicity = 1
  Basis Set: CC-PVTZ
  Basis Set:
  @DF-RHF Final Energy:  -387.27256994877382
    Total Energy =                       -387.2725699487739348
    Molecular point group: c1
  Basis Set: CC-PVTZ
  Basis Set:
  Basis Set: CC-PVTZ
  Basis Set:
  @DF-RHF Final Energy:  -387.27350051842814
    Total Energy =                       -387.2735005184282500
  Basis Set: CC-PVTZ
  Basis Set:
  Basis Set: CC-PVTZ
  Basis Set:
  @DF-RHF Final Energy:  -387.27134536387706
    Total Energy =                       -387.2713453638767760
  Basis Set: CC-PVTZ
  Basis Set:
  Basis Set: CC-PVTZ
  Basis Set:
  @DF-RHF Final Energy:  -387.27382389801255
    Total Energy =                       -387.2738238980123242
  Basis Set: CC-PVTZ
  Basis Set:
  @DF-RHF Final Energy:  -387.27392658273806
    Total Energy =                       -387.2739265827378858
  @DF-RHF Final Energy:  -387.27399458610023
    Total Energy =                       -387.2739945860997750
  Basis Set: CC-PVTZ
  Basis Set:
  @DF-RHF Final Energy:  -387.27401901586410
    Total Energy =                       -387.2740190158635869
  Basis Set: CC-PVTZ
  Basis Set:
  Basis Set: CC-PVTZ
  Basis Set:
  @DF-RHF Final Energy:  -387.27403236393138
    Total Energy =                       -387.2740323639311555
  Basis Set: CC-PVTZ
  Basis Set:
  Basis Set: CC-PVTZ
  Basis Set:
  @DF-RHF Final Energy:  -387.27403579404279
    Total Energy =                       -387.2740357940429021
  Basis Set: CC-PVTZ
  Basis Set:
  Charge       = 0
  Multiplicity = 1
  Basis Set: CC-PVTZ
  Basis Set:

    Orbital Energies (a.u.)
    -----------------------

    Doubly Occupied:

       1A    -20.538990     2A    -11.321524     3A    -11.230800
       4A    -11.227221     5A    -11.216167     6A    -11.210085
       7A    -11.208999     8A    -11.208076     9A    -11.203870
      10A     -1.399534    11A     -1.092506    12A     -1.056078
      13A     -1.014692    14A     -0.968578    15A     -0.889701
      16A     -0.815860    17A     -0.788309    18A     -0.728283
      19A     -0.670103    20A     -0.638763    21A     -0.633506
      22A     -0.625932    23A     -0.593373    24A     -0.585876
      25A     -0.573415    26A     -0.557996    27A     -0.535069
      28A     -0.526965    29A     -0.516811    30A     -0.499258
      31A     -0.483493    32A     -0.475674    33A     -0.460733
      34A     -0.459443    35A     -0.441395    36A     -0.402249

  @DF-RHF Final Energy:  -387.27403641093241

   => Energetics <=

    Nuclear Repulsion Energy =            448.7839046597094352
    One-Electron Energy =               -1414.5172260415147321
    Two-Electron Energy =                 578.4592849708730000
    DFT Exchange-Correlation Energy =       0.0000000000000000
    Empirical Dispersion Energy =           0.0000000000000000
    PCM Polarization Energy =               0.0000000000000000
    EFP Energy =                            0.0000000000000000
    Total Energy =                       -387.2740364109323536
    Molecular point group: c1
  Basis Set: CC-PVTZ
  Basis Set:

  -Total Gradient:
     Atom            X                  Y                   Z
    ------   -----------------  -----------------  -----------------
       1        0.000023925979     0.000018756062     0.000000159181
       2       -0.000006309210     0.000023646808    -0.000028522823
       3       -0.000552220637    -0.000810911708     0.000688569410
       4       -0.000010032284    -0.000034424687    -0.000046232943
       5        0.000166829716     0.000293749414    -0.001089074094
       6        0.000417631530     0.000586906447    -0.000406071941
       7        0.000007953312     0.000008548285     0.000019659586
       8        0.000002100868    -0.000004223491     0.000012982934
       9       -0.000066388481    -0.000123254711     0.000802021642
      10        0.000001037125     0.000003868880     0.000004490566
      11        0.000013466617     0.000006255977    -0.000013451227
      12        0.000007156367    -0.000009504635     0.000005686716
      13       -0.000023531168     0.000008410186    -0.000001692780
      14        0.000012224724     0.000015115564    -0.000004362730
      15       -0.000001105785     0.000002961793    -0.000009683691
      16        0.000005399404     0.000008734064    -0.000000078947
      17       -0.000013343278    -0.000019076703     0.000011133957
      18        0.000003262747     0.000001585288     0.000006573612
      19        0.000001633233     0.000003322849    -0.000008375357
      20       -0.000011559661     0.000001988400    -0.000004354198
      21       -0.000004418454    -0.000004430157     0.000003669143
      22        0.000009656253    -0.000001949853     0.000003338605
      23       -0.000007731651     0.000015041738    -0.000003095133
      24        0.000018889510     0.000006423187     0.000011299462
      25        0.000005473229     0.000002461003     0.000045411045

  **** Optimization is complete! (in 10 steps) ****
    Final optimized geometry and variables:
    Molecular point group: c1

    Geometry (in Angstrom), charge = 0, multiplicity = 1:

    O            2.165613091239     0.125277972672    -1.265869392309
    C            2.051943641715    -1.022051827733    -0.981057974454
    C            0.702407167775    -1.710975854431    -0.903671200925
    C            3.258725248951    -1.887376677941    -0.700398677195
    C           -0.499770958952    -0.774617568676    -0.849301114173
    H            0.648660711601    -2.336967447466    -1.792373615251
    H            0.704995102276    -2.395394775843    -0.060261079607
    C           -0.628648640749    -0.010388348651     0.467051126103
    H           -1.397037593158    -1.368137884418    -0.998143963541
    H           -0.440511405053    -0.074234996388    -1.673253511689
    C           -1.847907537666     0.906313057676     0.503867026082
    H           -0.691978477823    -0.721905242985     1.288289129136
    H            0.265863020693     0.579405844908     0.632368954184
    C           -1.993670374891     1.667573153835     1.818371147226
    H           -2.747166915644     0.319689817792     0.328786658252
    H           -1.783907724743     1.617566731168    -0.315776550982
    C           -3.213253633655     2.582703381876     1.849275060236
    H           -2.055698902356     0.958147254194     2.639396741382
    H           -1.097353147414     2.256377956909     1.991975054731
    H           -4.129859807457     2.018657331762     1.710943428376
    H           -3.287707100941     3.106889114469     2.795235742734
    H           -3.163176097286     3.327342958394     1.061855609152
    H            3.200031424334    -2.821371526246    -1.247383593641
    H            4.161471075469    -1.358572374686    -0.965212981511
    H            3.283427512980    -2.133079841960     0.356386017765

  Mulliken Charges: (a.u.)
   Center  Symbol    Alpha    Beta     Spin     Total
       1     O     4.17406  4.17406  0.00000 -0.34812
       2     C     2.85887  2.85887  0.00000  0.28226
       3     C     3.12393  3.12393  0.00000 -0.24787
       4     C     3.15111  3.15111  0.00000 -0.30222
       5     C     3.09179  3.09179  0.00000 -0.18358
       6     H     0.43493  0.43493  0.00000  0.13015
       7     H     0.44364  0.44364  0.00000  0.11273
       8     C     3.09097  3.09097  0.00000 -0.18195
       9     H     0.44694  0.44694  0.00000  0.10612
      10     H     0.44455  0.44455  0.00000  0.11091
      11     C     3.08830  3.08830  0.00000 -0.17661
      12     H     0.45888  0.45888  0.00000  0.08225
      13     H     0.44412  0.44412  0.00000  0.11175
      14     C     3.08355  3.08355  0.00000 -0.16710
      15     H     0.45666  0.45666  0.00000  0.08667
      16     H     0.45231  0.45231  0.00000  0.09538
      17     C     3.15067  3.15067  0.00000 -0.30134
      18     H     0.45628  0.45628  0.00000  0.08744
      19     H     0.45315  0.45315  0.00000  0.09369
      20     H     0.45601  0.45601  0.00000  0.08798
      21     H     0.44883  0.44883  0.00000  0.10233
      22     H     0.45449  0.45449  0.00000  0.09101
      23     H     0.45070  0.45070  0.00000  0.09860
      24     H     0.43584  0.43584  0.00000  0.12832
      25     H     0.44941  0.44941  0.00000  0.10119

   Total alpha = 36.00000, Total beta = 36.00000, Total charge =  0.00000

*** Psi4 exiting successfully. Buy a developer a beer!
