                              Psi4 1.0.54 Driver

  ==> Input File <==

--------------------------------------------------------------------------
set {
	reference rhf
	basis cc-pvtz
}

set_num_threads( 4 )
memory 2 gb

molecule MOL {
0 1

H	 1.886657	 -0.033610	 -1.174039
O	 1.675515	 -0.612943	 -0.465627
C	 1.135873	 0.113391	 0.608264
C	 0.027642	 1.012027	 0.090274
H	 1.902972	 0.727968	 1.072615
H	 0.756163	 -0.561896	 1.370018
C	 -1.138737	 0.285728	 -0.581921
H	 0.464661	 1.708096	 -0.618252
H	 -0.340737	 1.603071	 0.925246
C	 -1.933983	 -0.631436	 0.343653
H	 -0.763151	 -0.285569	 -1.422081
H	 -1.808359	 1.035291	 -0.992333
H	 -2.789188	 -1.049673	 -0.174718
H	 -1.335629	 -1.461368	 0.700418
H	 -2.305435	 -0.092167	 1.209725

	symmetry c1
}
set optking {
	frozen_dihedral = ("
		1 2 3 4
	")
}

ee,wfn = optimize('scf', return_wfn=True)
oeprop( wfn, 'DIPOLE', 'QUADRUPOLE', 'MULLIKEN_CHARGES')
f=open( 'psi4out.xyz', 'w' )
f.write( "15  " )
f.write( str(ee) + "\n" )
f.write( MOL.save_string_xyz() )
f.close()
--------------------------------------------------------------------------

    Molecular point group: c1
  Charge       = 0
  Multiplicity = 1
  Basis Set: CC-PVTZ
  Basis Set:
  @DF-RHF Final Energy:  -232.23532146885594
    Total Energy =                       -232.2353214688557159
    Molecular point group: c1
  Basis Set: CC-PVTZ
  Basis Set:
  Basis Set: CC-PVTZ
  Basis Set:
  @DF-RHF Final Energy:  -232.13339341522376
    Total Energy =                       -232.1333934152237362
  Basis Set: CC-PVTZ
  Basis Set:
  Basis Set: CC-PVTZ
  Basis Set:
  @DF-RHF Final Energy:  -232.21829562047995
    Total Energy =                       -232.2182956204798643
  Basis Set: CC-PVTZ
  Basis Set:
  Basis Set: CC-PVTZ
  Basis Set:
  @DF-RHF Final Energy:  -232.23671087014540
    Total Energy =                       -232.2367108701456573
  Basis Set: CC-PVTZ
  Basis Set:
  @DF-RHF Final Energy:  -232.23636728854021
    Total Energy =                       -232.2363672885404640
  Basis Set: CC-PVTZ
  Basis Set:
  @DF-RHF Final Energy:  -232.23711836656463
    Total Energy =                       -232.2371183665647436
  Basis Set: CC-PVTZ
  Basis Set:
  Basis Set: CC-PVTZ
  Basis Set:
  @DF-RHF Final Energy:  -232.23713523617405
    Total Energy =                       -232.2371352361741401
  Basis Set: CC-PVTZ
  Basis Set:
  Basis Set: CC-PVTZ
  Basis Set:
  @DF-RHF Final Energy:  -232.23713404318300
    Total Energy =                       -232.2371340431831754
  Basis Set: CC-PVTZ
  Basis Set:
  Charge       = 0
  Multiplicity = 1
  Basis Set: CC-PVTZ
  Basis Set:

    Orbital Energies (a.u.)
    -----------------------

    Doubly Occupied:

       1A    -20.546353     2A    -11.265062     3A    -11.218253
       4A    -11.214725     5A    -11.206461     6A     -1.364320
       7A     -1.069612     8A     -0.973188     9A     -0.878577
      10A     -0.791124    11A     -0.675890    12A     -0.644869
      13A     -0.635839    14A     -0.584033    15A     -0.568054
      16A     -0.542283    17A     -0.506228    18A     -0.486202
      19A     -0.474106    20A     -0.457002    21A     -0.430836

  @DF-RHF Final Energy:  -232.23713602265335

   => Energetics <=

    Nuclear Repulsion Energy =            191.6639873776587990
    One-Electron Energy =                -694.7362095585033330
    Two-Electron Energy =                 270.8350861581911317
    DFT Exchange-Correlation Energy =       0.0000000000000000
    Empirical Dispersion Energy =           0.0000000000000000
    PCM Polarization Energy =               0.0000000000000000
    EFP Energy =                            0.0000000000000000
    Total Energy =                       -232.2371360226533739
    Molecular point group: c1
  Basis Set: CC-PVTZ
  Basis Set:

  -Total Gradient:
     Atom            X                  Y                   Z
    ------   -----------------  -----------------  -----------------
       1       -0.000795529402    -0.000544268440    -0.000745373104
       2        0.001175762638     0.000915408960     0.000849990862
       3       -0.000904082881    -0.000909694599     0.000043441700
       4        0.000525524643     0.000534356617    -0.000146438310
       5        0.000005164590     0.000011088136     0.000010538574
       6       -0.000005252272    -0.000011015567     0.000010047537
       7        0.000001294064    -0.000008713099    -0.000008180415
       8        0.000000497680    -0.000002041741    -0.000012813373
       9       -0.000010500399     0.000013254425     0.000008371767
      10       -0.000002408650     0.000007114647    -0.000000231919
      11        0.000020530891    -0.000018550111    -0.000010513994
      12       -0.000008132229     0.000010709088    -0.000019474611
      13        0.000004056757     0.000002418790    -0.000004308183
      14        0.000008284670    -0.000010571486     0.000018728973
      15       -0.000015210100     0.000010504379     0.000006214497

  **** Optimization is complete! (in 9 steps) ****
    Final optimized geometry and variables:
    Molecular point group: c1

    Geometry (in Angstrom), charge = 0, multiplicity = 1:

    H            2.252137295046    -0.227116700359    -0.154081604245
    O            1.737540266428    -0.475243127687     0.592648261324
    C            0.792358218321     0.522325983330     0.875372294553
    C           -0.015404943138     0.952790115703    -0.341197841389
    H            1.282900368023     1.393959997873     1.301925178995
    H            0.149362206889     0.113367110029     1.642086077848
    C           -0.808660363244    -0.160166018678    -1.028723953941
    H            0.663869594093     1.401254789169    -1.064023396644
    H           -0.691036571779     1.746360155385    -0.031571327702
    C           -1.919687277419    -0.762819117249    -0.173146525075
    H           -0.130050628511    -0.946838409292    -1.339202662907
    H           -1.244135477756     0.245671702334    -1.936593702580
    H           -2.488460831255    -1.489288200470    -0.741803868257
    H           -1.525428244010    -1.270685619854     0.698496754982
    H           -2.610264236764     0.001639698355     0.169152761656

  Mulliken Charges: (a.u.)
   Center  Symbol    Alpha    Beta     Spin     Total
       1     H     0.39411  0.39411  0.00000  0.21178
       2     O     4.20533  4.20533  0.00000 -0.41067
       3     C     2.97374  2.97374  0.00000  0.05253
       4     C     3.11280  3.11280  0.00000 -0.22560
       5     H     0.46108  0.46108  0.00000  0.07785
       6     H     0.45797  0.45797  0.00000  0.08405
       7     C     3.08014  3.08014  0.00000 -0.16028
       8     H     0.45223  0.45223  0.00000  0.09554
       9     H     0.45195  0.45195  0.00000  0.09611
      10     C     3.15452  3.15452  0.00000 -0.30904
      11     H     0.45348  0.45348  0.00000  0.09305
      12     H     0.44960  0.44960  0.00000  0.10080
      13     H     0.44651  0.44651  0.00000  0.10698
      14     H     0.45030  0.45030  0.00000  0.09939
      15     H     0.45624  0.45624  0.00000  0.08751

   Total alpha = 21.00000, Total beta = 21.00000, Total charge = -0.00000

*** Psi4 exiting successfully. Buy a developer a beer!
