                              Psi4 1.0.54 Driver

  ==> Input File <==

--------------------------------------------------------------------------
set {
	reference rhf
	basis cc-pvtz
}

set_num_threads( 4 )
memory 2 gb

molecule MOL {
0 1

H	 0.375745	 -2.275424	 -0.783090
C	 -0.431523	 -1.565555	 -0.972441
N	 -0.537714	 -0.645117	 0.000000
O	 -1.114741	 -1.637879	 -1.944398
C	 -1.522613	 0.412524	 0.000000
H	 0.100385	 -0.704670	 0.754498
H	 -2.150256	 0.356137	 -0.880771
H	 -1.005621	 1.357208	 0.000000
H	 -2.150256	 0.356137	 0.880771

	symmetry c1
}
set optking {
	frozen_dihedral = ("
		6 3 5 7
	")
}

ee,wfn = optimize('scf', return_wfn=True)
oeprop( wfn, 'DIPOLE', 'QUADRUPOLE', 'MULLIKEN_CHARGES')
f=open( 'psi4out.xyz', 'w' )
f.write( "9  " )
f.write( str(ee) + "\n" )
f.write( MOL.save_string_xyz() )
f.close()
--------------------------------------------------------------------------

    Molecular point group: c1
  Charge       = 0
  Multiplicity = 1
  Basis Set: CC-PVTZ
  Basis Set:
  @DF-RHF Final Energy:  -208.04306709575206
    Total Energy =                       -208.0430670957521500
    Molecular point group: c1
  Basis Set: CC-PVTZ
  Basis Set:
  Basis Set: CC-PVTZ
  Basis Set:
  @DF-RHF Final Energy:  -208.04348819850003
    Total Energy =                       -208.0434881985000573
  Basis Set: CC-PVTZ
  Basis Set:
  Basis Set: CC-PVTZ
  Basis Set:
  @DF-RHF Final Energy:  -208.04353897716345
    Total Energy =                       -208.0435389771635641
  Basis Set: CC-PVTZ
  Basis Set:
  Basis Set: CC-PVTZ
  Basis Set:
  @DF-RHF Final Energy:  -208.04352956859381
    Total Energy =                       -208.0435295685938115
  Basis Set: CC-PVTZ
  Basis Set:
  Charge       = 0
  Multiplicity = 1
  Basis Set: CC-PVTZ
  Basis Set:

    Orbital Energies (a.u.)
    -----------------------

    Doubly Occupied:

       1A    -20.515822     2A    -15.585181     3A    -11.337663
       4A    -11.259135     5A     -1.393425     6A     -1.239948
       7A     -0.970572     8A     -0.808258     9A     -0.748853
      10A     -0.646342    11A     -0.629226    12A     -0.596976
      13A     -0.554668    14A     -0.542890    15A     -0.428015
      16A     -0.395762

  @DF-RHF Final Energy:  -208.04356693308787

   => Energetics <=

    Nuclear Repulsion Energy =            122.6865959404847501
    One-Electron Energy =                -526.1548532718857132
    Two-Electron Energy =                 195.4246903983130892
    DFT Exchange-Correlation Energy =       0.0000000000000000
    Empirical Dispersion Energy =           0.0000000000000000
    PCM Polarization Energy =               0.0000000000000000
    EFP Energy =                            0.0000000000000000
    Total Energy =                       -208.0435669330879023
    Molecular point group: c1
  Basis Set: CC-PVTZ
  Basis Set:

  -Total Gradient:
     Atom            X                  Y                   Z
    ------   -----------------  -----------------  -----------------
       1        0.000011941527    -0.000009274981    -0.000027386453
       2        0.000015455346     0.000017832809     0.000126747304
       3        0.000040052147    -0.000058880546    -0.000045247559
       4       -0.000017322851     0.000006076122    -0.000039655634
       5        0.000042099285     0.000020819069     0.000007879598
       6       -0.000011174318     0.000002044469     0.000005698762
       7       -0.000058229109     0.000032942280    -0.000017662995
       8       -0.000018141104    -0.000006599028    -0.000002846153
       9       -0.000004680923    -0.000004960193    -0.000007526870

  **** Optimization is complete! (in 5 steps) ****
    Final optimized geometry and variables:
    Molecular point group: c1

    Geometry (in Angstrom), charge = 0, multiplicity = 1:

    H            1.287620880266    -1.427265138945    -0.052961997232
    C            0.482030928850    -0.716425846296    -0.246753516849
    N            0.363037465861     0.196736769703     0.731202203364
    O           -0.189422817538    -0.780976070227    -1.227358187445
    C           -0.623030253299     1.253297587051     0.727397837710
    H            0.991219788548     0.131179793621     1.493606623519
    H           -1.210576572551     1.166390188199    -0.171123172912
    H           -0.147373512947     2.226156067066     0.742342386423
    H           -1.279927918705     1.172226633719     1.584672150053

  Mulliken Charges: (a.u.)
   Center  Symbol    Alpha    Beta     Spin     Total
       1     H     0.46271  0.46271  0.00000  0.07458
       2     C     2.88099  2.88099  0.00000  0.23801
       3     N     3.60831  3.60831  0.00000 -0.21662
       4     O     4.21534  4.21534  0.00000 -0.43067
       5     C     3.08128  3.08128  0.00000 -0.16257
       6     H     0.40931  0.40931  0.00000  0.18138
       7     H     0.43265  0.43265  0.00000  0.13470
       8     H     0.45469  0.45469  0.00000  0.09062
       9     H     0.45472  0.45472  0.00000  0.09057

   Total alpha = 16.00000, Total beta = 16.00000, Total charge = -0.00000

*** Psi4 exiting successfully. Buy a developer a beer!
