  ==> Input File <==

--------------------------------------------------------------------------
set {
	reference rhf
	basis 6-31G*
}

set_num_threads( 4 )
memory 2 gb

molecule MOL {
0 1

H	 2.061828	 2.301774	 -1.130269
O	 2.849283	 1.911396	 -1.480399
C	 3.276017	 0.870067	 -0.639218
C	 2.396492	 -0.372296	 -0.726954
H	 4.282247	 0.628708	 -0.956899
H	 3.336750	 1.214292	 0.392577
C	 0.957846	 -0.151050	 -0.253440
H	 2.392384	 -0.719863	 -1.756782
H	 2.857368	 -1.156881	 -0.129135
C	 0.115918	 -1.429151	 -0.302766
H	 0.492850	 0.613722	 -0.869288
H	 0.967391	 0.231156	 0.767426
C	 -1.309753	 -1.282496	 0.241564
H	 0.074003	 -1.790850	 -1.328565
H	 0.625263	 -2.201397	 0.269864
C	 -2.037799	 -0.007733	 -0.193645
H	 -1.890610	 -2.142323	 -0.085726
H	 -1.285946	 -1.330893	 1.329189
C	 -3.489788	 0.042957	 0.286558
H	 -2.017067	 0.064384	 -1.280144
H	 -1.513726	 0.868678	 0.179924
C	 -4.216917	 1.317354	 -0.141063
H	 -4.025645	 -0.823308	 -0.095450
H	 -3.513059	 -0.038752	 1.371301
H	 -4.239342	 1.411634	 -1.223113
H	 -5.243387	 1.322503	 0.212445
H	 -3.726170	 2.201406	 0.256408

	symmetry c1
}
set optking {
	frozen_dihedral = ("
		14 10 13 16
	")
}

ee = optimize('scf')
oeprop('DIPOLE', 'QUADRUPOLE', 'MULLIKEN_CHARGES')
f=open( 'psi4out.xyz', 'w' )
f.write( "27  " )
f.write( str(ee) + "\n" )
f.write( MOL.save_string_xyz() )
f.close()
--------------------------------------------------------------------------

    Molecular point group: c1
  Charge       = 0
  Multiplicity = 1
  Basis Set: 6-31G*
  Basis Set:
  @DF-RHF Final Energy:  -388.27953583081234
    Total Energy =                       -388.2795358308130744
    Molecular point group: c1
  Basis Set: 6-31G*
  Basis Set:
  Basis Set: 6-31G*
  Basis Set:
  @DF-RHF Final Energy:  -388.27966122455251
    Total Energy =                       -388.2796612245520009
  Basis Set: 6-31G*
  Basis Set:
  Basis Set: 6-31G*
  Basis Set:
  @DF-RHF Final Energy:  -388.27993253634861
    Total Energy =                       -388.2799325363488379
  Basis Set: 6-31G*
  Basis Set:
  Basis Set: 6-31G*
  Basis Set:
  @DF-RHF Final Energy:  -388.27996457072356
    Total Energy =                       -388.2799645707239051
  Basis Set: 6-31G*
  Basis Set:
  Basis Set: 6-31G*
  Basis Set:
  @DF-RHF Final Energy:  -388.27996814857141
    Total Energy =                       -388.2799681485714700
  Basis Set: 6-31G*
  Basis Set:
  Basis Set: 6-31G*
  Basis Set:
  @DF-RHF Final Energy:  -388.27996939907160
    Total Energy =                       -388.2799693990716605
  Basis Set: 6-31G*
  Basis Set:
  Charge       = 0
  Multiplicity = 1
  Basis Set: 6-31G*
  Basis Set:

    Orbital Energies (a.u.)
    -----------------------

    Doubly Occupied:

       1A    -20.552301     2A    -11.267099     3A    -11.220242
       4A    -11.217345     5A    -11.216286     6A    -11.215938
       7A    -11.215316     8A    -11.214632     9A    -11.209698
      10A     -1.359075    11A     -1.095142    12A     -1.061551
      13A     -1.011182    14A     -0.948293    15A     -0.889980
      16A     -0.820137    17A     -0.805274    18A     -0.773079
      19A     -0.693543    20A     -0.655673    21A     -0.634697
      22A     -0.614608    23A     -0.600997    24A     -0.584803
      25A     -0.578486    26A     -0.552825    27A     -0.539008
      28A     -0.534201    29A     -0.505772    30A     -0.495568
      31A     -0.486638    32A     -0.474514    33A     -0.467776
      34A     -0.458042    35A     -0.451949    36A     -0.441780
      37A     -0.423550

  @DF-RHF Final Energy:  -388.27996971016552

   => Energetics <=

    Nuclear Repulsion Energy =            461.1884752555213822
    One-Electron Energy =               -1440.3628944661973037
    Two-Electron Energy =                 590.8944495005100634
    DFT Exchange-Correlation Energy =       0.0000000000000000
    Empirical Dispersion Energy =           0.0000000000000000
    PCM Polarization Energy =               0.0000000000000000
    EFP Energy =                            0.0000000000000000
    Total Energy =                       -388.2799697101659149
    Molecular point group: c1
  Basis Set: 6-31G*
  Basis Set:

  -Total Gradient:
     Atom            X                  Y                   Z
    ------   -----------------  -----------------  -----------------
       1       -0.000002932620    -0.000004494699     0.000003773146
       2        0.000005859807     0.000000978494    -0.000011251875
       3       -0.000020815801     0.000006425460     0.000008404978
       4        0.000004276041     0.000005887394    -0.000012954370
       5       -0.000005687747    -0.000004563195    -0.000000641709
       6        0.000001642999    -0.000001832325     0.000002776483
       7        0.000028086537     0.000026872258     0.000016891128
       8       -0.000003260282    -0.000010655238    -0.000004142243
       9        0.000006956992     0.000002607807     0.000002539891
      10        0.000307486449     0.006032892108    -0.000773353952
      11        0.000006547723     0.000005023441     0.000004224544
      12        0.000008432133     0.000005322786     0.000015069315
      13       -0.001739825266    -0.003446738502    -0.003534333093
      14        0.000180378966    -0.004306087730     0.001581240910
      15       -0.000021364727     0.000004532385    -0.000010283428
      16        0.001234196629     0.001688505927     0.002708775331
      17       -0.000013290629    -0.000019369644     0.000016269371
      18        0.000015520689     0.000016642553    -0.000019061872
      19        0.000003959054    -0.000003512385     0.000007734570
      20        0.000010039276    -0.000001939961    -0.000002167286
      21       -0.000013733644     0.000009403208     0.000000663445
      22        0.000007724162    -0.000003121907    -0.000004420284
      23       -0.000000802176    -0.000001500920     0.000001488591
      24       -0.000002576004     0.000002675443     0.000002174878
      25        0.000001498059     0.000001265852    -0.000000500705
      26        0.000002542533    -0.000004930463    -0.000000674560
      27       -0.000000859157    -0.000000288148     0.000001758799

  **** Optimization is complete! (in 7 steps) ****
    Final optimized geometry and variables:
    Molecular point group: c1

    Geometry (in Angstrom), charge = 0, multiplicity = 1:

    H            2.278408882982     2.141747927012    -0.794475318107
    O            3.063489330050     1.727565303610    -1.121853898480
    C            3.449684982010     0.692082184587    -0.254380989484
    C            2.543650904479    -0.531425362102    -0.337481694131
    H            4.455764915171     0.422095951682    -0.548542346485
    H            3.499170900653     1.053223957106     0.772238644427
    C            1.102842156554    -0.269627279172     0.107781246100
    H            2.548478125652    -0.895142131382    -1.361738461790
    H            2.976496153395    -1.316524106268     0.280114589807
    C            0.232715799762    -1.526080826428     0.044943130300
    H            0.669660107177     0.503779881639    -0.519867551402
    H            1.103992433827     0.117294960037     1.127057003811
    C           -1.191769491548    -1.386607682603     0.605076484635
    H            0.187854476121    -1.900262385135    -0.976116221193
    H            0.729815301596    -2.315096235334     0.606733761002
    C           -1.955005706391    -0.130678041602     0.174986766045
    H           -1.760168488385    -2.269496451413     0.322782815754
    H           -1.142693313680    -1.396281841610     1.692936089403
    C           -3.404918026427    -0.123505283104     0.664064795024
    H           -1.944473909955    -0.047024399223    -0.911317946048
    H           -1.451500691760     0.754523078630     0.554635361770
    C           -4.165817391837     1.139017256612     0.260743276898
    H           -3.921603577448    -0.996656876093     0.271677504430
    H           -3.419454365641    -0.222563259378     1.747579977710
    H           -4.196523338182     1.250073927808    -0.819515621240
    H           -5.190162568360     1.112839141698     0.619396524928
    H           -3.695180434934     2.028563433319     0.670190497887

  Mulliken Charges: (a.u.)
   Center  Symbol    Alpha    Beta     Spin     Total
       1     H     0.27992  0.27992  0.00000  0.44017
       2     O     4.37092  4.37092  0.00000 -0.74183
       3     C     2.99733  2.99733  0.00000  0.00534
       4     C     3.16112  3.16112  0.00000 -0.32225
       5     H     0.41440  0.41440  0.00000  0.17121
       6     H     0.43211  0.43211  0.00000  0.13578
       7     C     3.16420  3.16420  0.00000 -0.32840
       8     H     0.41486  0.41486  0.00000  0.17029
       9     H     0.42418  0.42418  0.00000  0.15164
      10     C     3.15231  3.15231  0.00000 -0.30463
      11     H     0.42213  0.42213  0.00000  0.15574
      12     H     0.42513  0.42513  0.00000  0.14974
      13     C     3.15250  3.15250  0.00000 -0.30500
      14     H     0.42111  0.42111  0.00000  0.15778
      15     H     0.42208  0.42208  0.00000  0.15583
      16     C     3.15384  3.15384  0.00000 -0.30768
      17     H     0.42072  0.42072  0.00000  0.15855
      18     H     0.42428  0.42428  0.00000  0.15143
      19     C     3.15124  3.15124  0.00000 -0.30248
      20     H     0.42391  0.42391  0.00000  0.15219
      21     H     0.42353  0.42353  0.00000  0.15294
      22     C     3.23916  3.23916  0.00000 -0.47833
      23     H     0.42266  0.42266  0.00000  0.15468
      24     H     0.42322  0.42322  0.00000  0.15356
      25     H     0.42152  0.42152  0.00000  0.15695
      26     H     0.41909  0.41909  0.00000  0.16183
      27     H     0.42251  0.42251  0.00000  0.15498

   Total alpha = 37.00000, Total beta = 37.00000, Total charge = -0.00000
