                              Psi4 1.0.54 Driver

  ==> Input File <==

--------------------------------------------------------------------------
set {
	reference rhf
	basis cc-pvtz
}

set_num_threads( 4 )
memory 2 gb

molecule MOL {
0 1

H	 -0.000105	 1.988529	 0.748933
O	 -0.000098	 1.879786	 -0.188206
C	 -0.000014	 0.545691	 -0.532416
C	 -1.286000	 -0.125171	 -0.046657
C	 1.286016	 -0.125031	 -0.046584
H	 0.000021	 0.481103	 -1.610604
F	 -1.296845	 -1.375539	 -0.438220
F	 -1.392233	 -0.111610	 1.258043
F	 -2.351212	 0.460152	 -0.550736
F	 2.317750	 0.468717	 -0.594166
F	 1.336617	 -1.393765	 -0.365123
F	 1.414467	 -0.024806	 1.259108

	symmetry c1
}
set optking {
	frozen_dihedral = ("
		7 4 3 6
	")
}

ee,wfn = optimize('scf', return_wfn=True)
oeprop( wfn, 'DIPOLE', 'QUADRUPOLE', 'MULLIKEN_CHARGES')
f=open( 'psi4out.xyz', 'w' )
f.write( "12  " )
f.write( str(ee) + "\n" )
f.write( MOL.save_string_xyz() )
f.close()
--------------------------------------------------------------------------

    Molecular point group: c1
  Charge       = 0
  Multiplicity = 1
  Basis Set: CC-PVTZ
  Basis Set:
  @DF-RHF Final Energy:  -786.58876548862520
    Total Energy =                       -786.5887654886259952
    Molecular point group: c1
  Basis Set: CC-PVTZ
  Basis Set:
  Basis Set: CC-PVTZ
  Basis Set:
  @DF-RHF Final Energy:  -786.58925520417301
    Total Energy =                       -786.5892552041730141
  Basis Set: CC-PVTZ
  Basis Set:
  Basis Set: CC-PVTZ
  Basis Set:
  @DF-RHF Final Energy:  -786.58948476964861
    Total Energy =                       -786.5894847696482657
  Basis Set: CC-PVTZ
  Basis Set:
  Basis Set: CC-PVTZ
  Basis Set:
  @DF-RHF Final Energy:  -786.58950065851809
    Total Energy =                       -786.5895006585182045
  Basis Set: CC-PVTZ
  Basis Set:
  Basis Set: CC-PVTZ
  Basis Set:
  @DF-RHF Final Energy:  -786.58950316718756
    Total Energy =                       -786.5895031671871038
  Basis Set: CC-PVTZ
  Basis Set:
  Charge       = 0
  Multiplicity = 1
  Basis Set: CC-PVTZ
  Basis Set:

    Orbital Energies (a.u.)
    -----------------------

    Doubly Occupied:

       1A    -26.358503     2A    -26.358335     3A    -26.357491
       4A    -26.357024     5A    -26.353904     6A    -26.353496
       7A    -20.610087     8A    -11.519894     9A    -11.519529
      10A    -11.351631    11A     -1.771968    12A     -1.766448
      13A     -1.667735    14A     -1.663342    15A     -1.663010
      16A     -1.660912    17A     -1.440024    18A     -1.103217
      19A     -1.001848    20A     -0.945366    21A     -0.870803
      22A     -0.869052    23A     -0.859417    24A     -0.852231
      25A     -0.839822    26A     -0.822128    27A     -0.749705
      28A     -0.733960    29A     -0.731478    30A     -0.725489
      31A     -0.696316    32A     -0.691783    33A     -0.690249
      34A     -0.681620    35A     -0.677550    36A     -0.669269
      37A     -0.663397    38A     -0.658123    39A     -0.625414
      40A     -0.554029    41A     -0.510336

  @DF-RHF Final Energy:  -786.58950355543345

   => Energetics <=

    Nuclear Repulsion Energy =            670.8672863259045016
    One-Electron Energy =               -2428.9217041567590059
    Two-Electron Energy =                 971.4649142754203694
    DFT Exchange-Correlation Energy =       0.0000000000000000
    Empirical Dispersion Energy =           0.0000000000000000
    PCM Polarization Energy =               0.0000000000000000
    EFP Energy =                            0.0000000000000000
    Total Energy =                       -786.5895035554342485
    Molecular point group: c1
  Basis Set: CC-PVTZ
  Basis Set:

  -Total Gradient:
     Atom            X                  Y                   Z
    ------   -----------------  -----------------  -----------------
       1        0.000006010683     0.000000457993    -0.000002063133
       2       -0.000021591808    -0.000041194889    -0.000010368840
       3       -0.000183675360     0.000433767500    -0.000076775487
       4        0.000142281365    -0.000232993913     0.000209272016
       5       -0.000017076184     0.000011374429    -0.000048831699
       6        0.000159927912    -0.000295874235     0.000006807790
       7       -0.000099038888     0.000143737494    -0.000201120495
       8        0.000033260105    -0.000010390904     0.000076155193
       9        0.000008318574     0.000008861713    -0.000009070806
      10       -0.000026507446    -0.000014123246     0.000018954088
      11       -0.000011166677     0.000005809028     0.000009322525
      12        0.000009257729    -0.000009430975     0.000027718841

  **** Optimization is complete! (in 6 steps) ****
    Final optimized geometry and variables:
    Molecular point group: c1

    Geometry (in Angstrom), charge = 0, multiplicity = 1:

    H            0.020070950268     1.998640485272     0.726105314060
    O            0.007855245546     1.878917973948    -0.209621651732
    C            0.000545738417     0.541064639035    -0.538181422730
    C           -1.286270637781    -0.121407596885    -0.043464007823
    C            1.284514723815    -0.129474319983    -0.046351840543
    H           -0.000783562718     0.462039924856    -1.615459930063
    F           -1.357948213339    -1.382174080125    -0.388696225103
    F           -1.393233605531    -0.046847373793     1.265870069752
    F           -2.318650209659     0.496185818613    -0.562407855506
    F            2.316557765398     0.435075095665    -0.623413584039
    F            1.317126827284    -1.408111653544    -0.325091170432
    F            1.429275269503     0.010172848083     1.254062556779

  Mulliken Charges: (a.u.)
   Center  Symbol    Alpha    Beta     Spin     Total
       1     H     0.38130  0.38130  0.00000  0.23740
       2     O     4.18979  4.18979  0.00000 -0.37959
       3     C     3.00476  3.00476  0.00000 -0.00953
       4     C     2.68569  2.68569  0.00000  0.62863
       5     C     2.68537  2.68537  0.00000  0.62926
       6     H     0.42424  0.42424  0.00000  0.15153
       7     F     4.60260  4.60260  0.00000 -0.20520
       8     F     4.60991  4.60991  0.00000 -0.21982
       9     F     4.60185  4.60185  0.00000 -0.20370
      10     F     4.60205  4.60205  0.00000 -0.20411
      11     F     4.60223  4.60223  0.00000 -0.20445
      12     F     4.61021  4.61021  0.00000 -0.22041

   Total alpha = 41.00000, Total beta = 41.00000, Total charge = -0.00000

*** Psi4 exiting successfully. Buy a developer a beer!
