                              Psi4 1.0.54 Driver

  ==> Input File <==

--------------------------------------------------------------------------
set {
	reference rhf
	basis cc-pvtz
}

set_num_threads( 4 )
memory 2 gb

molecule MOL {
0 1

H	 2.614283	 2.028610	 0.296620
O	 3.358864	 1.662087	 -0.142800
C	 3.565468	 0.338079	 0.273842
C	 2.533667	 -0.637565	 -0.272227
H	 4.548038	 0.064914	 -0.086598
H	 3.593945	 0.282242	 1.360360
C	 1.114816	 -0.402372	 0.240993
H	 2.544552	 -0.580764	 -1.356576
H	 2.850574	 -1.642962	 -0.005497
C	 0.113298	 -1.420414	 -0.302504
H	 0.796373	 0.598427	 -0.031033
H	 1.113377	 -0.446476	 1.328807
C	 -1.143954	 -1.608006	 0.548603
H	 -0.175482	 -1.133721	 -1.310790
H	 0.612716	 -2.381041	 -0.393310
C	 -2.075111	 -0.398112	 0.601953
H	 -1.699586	 -2.454205	 0.153954
H	 -0.854232	 -1.883628	 1.560160
C	 -3.360649	 -0.667594	 1.379887
H	 -2.327797	 -0.096059	 -0.412139
H	 -1.564002	 0.447204	 1.052743
C	 -4.290937	 0.539487	 1.438302
H	 -3.885202	 -1.504469	 0.927049
H	 -3.109730	 -0.977672	 2.390804
H	 -4.586223	 0.854534	 0.442918
H	 -5.193550	 0.313582	 1.994507
H	 -3.808267	 1.383155	 1.920594

	symmetry c1
}
set optking {
	frozen_dihedral = ("
		14 10 7 4
	")
}

ee,wfn = optimize('scf', return_wfn=True)
oeprop( wfn, 'DIPOLE', 'QUADRUPOLE', 'MULLIKEN_CHARGES')
f=open( 'psi4out.xyz', 'w' )
f.write( "27  " )
f.write( str(ee) + "\n" )
f.write( MOL.save_string_xyz() )
f.close()
--------------------------------------------------------------------------

    Molecular point group: c1
  Charge       = 0
  Multiplicity = 1
  Basis Set: CC-PVTZ
  Basis Set:
  @DF-RHF Final Energy:  -388.42644340471344
    Total Energy =                       -388.4264434047138366
    Molecular point group: c1
  Basis Set: CC-PVTZ
  Basis Set:
  Basis Set: CC-PVTZ
  Basis Set:
  @DF-RHF Final Energy:  -388.42649287282865
    Total Energy =                       -388.4264928728282484
  Basis Set: CC-PVTZ
  Basis Set:
  Basis Set: CC-PVTZ
  Basis Set:
  @DF-RHF Final Energy:  -388.42664541731102
    Total Energy =                       -388.4266454173119882
  Basis Set: CC-PVTZ
  Basis Set:
  Basis Set: CC-PVTZ
  Basis Set:
  @DF-RHF Final Energy:  -388.42666884267925
    Total Energy =                       -388.4266688426791916
  Basis Set: CC-PVTZ
  Basis Set:
  Basis Set: CC-PVTZ
  Basis Set:
  @DF-RHF Final Energy:  -388.42667265140125
    Total Energy =                       -388.4266726514016455
  Basis Set: CC-PVTZ
  Basis Set:
  Charge       = 0
  Multiplicity = 1
  Basis Set: CC-PVTZ
  Basis Set:

    Orbital Energies (a.u.)
    -----------------------

    Doubly Occupied:

       1A    -20.545288     2A    -11.264944     3A    -11.217136
       4A    -11.214618     5A    -11.214078     6A    -11.213442
       7A    -11.213156     8A    -11.212108     9A    -11.207549
      10A     -1.363231    11A     -1.096360    12A     -1.062373
      13A     -1.012760    14A     -0.948926    15A     -0.888900
      16A     -0.820774    17A     -0.802989    18A     -0.777295
      19A     -0.695717    20A     -0.656187    21A     -0.637680
      22A     -0.616244    23A     -0.598149    24A     -0.586308
      25A     -0.580924    26A     -0.552275    27A     -0.543879
      28A     -0.532727    29A     -0.505196    30A     -0.495663
      31A     -0.486391    32A     -0.474737    33A     -0.467783
      34A     -0.460833    35A     -0.453627    36A     -0.442601
      37A     -0.425421

  @DF-RHF Final Energy:  -388.42667316258417

   => Energetics <=

    Nuclear Repulsion Energy =            460.0460649884469149
    One-Electron Energy =               -1438.3689453789329491
    Two-Electron Energy =                 589.8962072279020958
    DFT Exchange-Correlation Energy =       0.0000000000000000
    Empirical Dispersion Energy =           0.0000000000000000
    PCM Polarization Energy =               0.0000000000000000
    EFP Energy =                            0.0000000000000000
    Total Energy =                       -388.4266731625839384
    Molecular point group: c1
  Basis Set: CC-PVTZ
  Basis Set:

  -Total Gradient:
     Atom            X                  Y                   Z
    ------   -----------------  -----------------  -----------------
       1        0.000001027194    -0.000007715853    -0.000001318095
       2       -0.000029460187     0.000004898053     0.000012269121
       3        0.000026532808    -0.000022705447    -0.000040514294
       4        0.000427097608    -0.001365081282     0.001816822816
       5       -0.000005427053     0.000010133060     0.000005483901
       6       -0.000009060353    -0.000003366374    -0.000025057314
       7       -0.001144204757     0.002218574229    -0.002235899154
       8        0.000012064668     0.000003613769     0.000035199540
       9       -0.000009986203     0.000015394704     0.000001374713
      10        0.003136035137    -0.002522817988    -0.000708665137
      11        0.000021199946     0.000000423572    -0.000011646021
      12       -0.000016178030    -0.000008005960    -0.000000507697
      13        0.000008842427    -0.000013205450     0.000030051593
      14       -0.002402484647     0.001647183133     0.001135506600
      15        0.000008336039     0.000030003852    -0.000009218518
      16       -0.000014335739    -0.000018076411    -0.000013666225
      17        0.000020631035     0.000019776894     0.000020147777
      18       -0.000016374003     0.000002892165    -0.000017324573
      19       -0.000006599809     0.000010528103    -0.000003477908
      20       -0.000003723965     0.000004130286     0.000007082569
      21       -0.000009857107    -0.000014499887    -0.000005971234
      22       -0.000002504033     0.000003807915     0.000007848454
      23        0.000010116833     0.000014916942     0.000006788592
      24       -0.000002277342     0.000001205479    -0.000007751482
      25        0.000007510934    -0.000004344359     0.000009717669
      26        0.000000396829     0.000003366867     0.000000284584
      27       -0.000007318225    -0.000011030013    -0.000007560277

  **** Optimization is complete! (in 6 steps) ****
    Final optimized geometry and variables:
    Molecular point group: c1

    Geometry (in Angstrom), charge = 0, multiplicity = 1:

    H            2.503231270899     2.295967477419    -0.164507871717
    O            3.268468741694     1.940271156280    -0.576095335181
    C            3.508933063856     0.637927256222    -0.112378898814
    C            2.518649114747    -0.387521746688    -0.643317993285
    H            4.506045405430     0.384938619719    -0.446566347070
    H            3.519340022371     0.618430390176     0.975752058700
    C            1.086068389689    -0.190293877713    -0.152390481531
    H            2.544422394151    -0.361301141251    -1.728877505743
    H            2.863386490300    -1.373744771655    -0.343246097420
    C            0.112804010421    -1.229897487195    -0.717191332867
    H            0.739743391167     0.805376761382    -0.408391372230
    H            1.081834659419    -0.250060260765     0.934579903779
    C           -1.166746677969    -1.410992327036     0.102416289860
    H           -0.167578935141    -0.944528367631    -1.727752373296
    H            0.615779751707    -2.189015587460    -0.787777466294
    C           -2.061933349695    -0.175328635100     0.168292710941
    H           -1.736409543106    -2.231388142570    -0.325377134987
    H           -0.904742157091    -1.718827053322     1.112103700727
    C           -3.363139593024    -0.417035574173     0.928716979050
    H           -2.294453295543     0.152307358192    -0.842765975943
    H           -1.527339942930     0.645060489936     0.638377347897
    C           -4.256124750516     0.817240762425     0.998394563865
    H           -3.908614964172    -1.229538965396     0.456723861200
    H           -3.132425920399    -0.751421116053     1.936604537393
    H           -4.531865224797     1.157304707963     0.005677371781
    H           -5.170634032121     0.610705537376     1.542467871307
    H           -3.752231631213     1.637539888921     1.498868953337

  Mulliken Charges: (a.u.)
   Center  Symbol    Alpha    Beta     Spin     Total
       1     H     0.39251  0.39251  0.00000  0.21499
       2     O     4.20542  4.20542  0.00000 -0.41085
       3     C     2.98031  2.98031  0.00000  0.03937
       4     C     3.08874  3.08874  0.00000 -0.17748
       5     H     0.44834  0.44834  0.00000  0.10333
       6     H     0.46994  0.46994  0.00000  0.06013
       7     C     3.10529  3.10529  0.00000 -0.21058
       8     H     0.45097  0.45097  0.00000  0.09807
       9     H     0.45529  0.45529  0.00000  0.08943
      10     C     3.09831  3.09831  0.00000 -0.19662
      11     H     0.45482  0.45482  0.00000  0.09035
      12     H     0.45374  0.45374  0.00000  0.09252
      13     C     3.09806  3.09806  0.00000 -0.19612
      14     H     0.45114  0.45114  0.00000  0.09772
      15     H     0.44757  0.44757  0.00000  0.10485
      16     C     3.08695  3.08695  0.00000 -0.17390
      17     H     0.44817  0.44817  0.00000  0.10365
      18     H     0.45410  0.45410  0.00000  0.09181
      19     C     3.08445  3.08445  0.00000 -0.16890
      20     H     0.45448  0.45448  0.00000  0.09104
      21     H     0.45460  0.45460  0.00000  0.09081
      22     C     3.14967  3.14967  0.00000 -0.29934
      23     H     0.45355  0.45355  0.00000  0.09290
      24     H     0.45461  0.45461  0.00000  0.09077
      25     H     0.45496  0.45496  0.00000  0.09008
      26     H     0.44824  0.44824  0.00000  0.10352
      27     H     0.45579  0.45579  0.00000  0.08843

   Total alpha = 37.00000, Total beta = 37.00000, Total charge = -0.00000

*** Psi4 exiting successfully. Buy a developer a beer!
