                              Psi4 1.0.54 Driver

  ==> Input File <==

--------------------------------------------------------------------------
set {
	reference rhf
	basis cc-pvtz
}

set_num_threads( 4 )
memory 2 gb

molecule MOL {
0 1

H	 2.071780	 -1.460232	 -0.031796
O	 1.391678	 -0.890462	 -0.339818
C	 1.135873	 0.113391	 0.608264
C	 0.027642	 1.012027	 0.090274
H	 2.028102	 0.711339	 0.776052
H	 0.856892	 -0.327396	 1.561331
C	 -1.138737	 0.285728	 -0.581921
H	 0.464661	 1.708096	 -0.618252
H	 -0.340737	 1.603071	 0.925246
C	 -1.933983	 -0.631436	 0.343653
H	 -0.763151	 -0.285569	 -1.422081
H	 -1.808359	 1.035291	 -0.992333
H	 -2.789188	 -1.049673	 -0.174718
H	 -1.335629	 -1.461368	 0.700418
H	 -2.305435	 -0.092167	 1.209725

	symmetry c1
}
set optking {
	frozen_dihedral = ("
		2 3 4 8
	")
}

ee,wfn = optimize('scf', return_wfn=True)
oeprop( wfn, 'DIPOLE', 'QUADRUPOLE', 'MULLIKEN_CHARGES')
f=open( 'psi4out.xyz', 'w' )
f.write( "15  " )
f.write( str(ee) + "\n" )
f.write( MOL.save_string_xyz() )
f.close()
--------------------------------------------------------------------------

    Molecular point group: c1
  Charge       = 0
  Multiplicity = 1
  Basis Set: CC-PVTZ
  Basis Set:
  @DF-RHF Final Energy:  -232.23598376741296
    Total Energy =                       -232.2359837674130745
    Molecular point group: c1
  Basis Set: CC-PVTZ
  Basis Set:
  Basis Set: CC-PVTZ
  Basis Set:
  @DF-RHF Final Energy:  -232.20945538131866
    Total Energy =                       -232.2094553813186621
  Basis Set: CC-PVTZ
  Basis Set:
  Basis Set: CC-PVTZ
  Basis Set:
  @DF-RHF Final Energy:  -232.23494385596831
    Total Energy =                       -232.2349438559683676
  Basis Set: CC-PVTZ
  Basis Set:
  Basis Set: CC-PVTZ
  Basis Set:
  @DF-RHF Final Energy:  -232.23631599783988
    Total Energy =                       -232.2363159978398244
  Basis Set: CC-PVTZ
  Basis Set:
  Basis Set: CC-PVTZ
  Basis Set:
  @DF-RHF Final Energy:  -232.23634992611130
    Total Energy =                       -232.2363499261114157
  Basis Set: CC-PVTZ
  Basis Set:
  Basis Set: CC-PVTZ
  Basis Set:
  @DF-RHF Final Energy:  -232.23636251731037
    Total Energy =                       -232.2363625173102832
  Basis Set: CC-PVTZ
  Basis Set:
  Charge       = 0
  Multiplicity = 1
  Basis Set: CC-PVTZ
  Basis Set:

    Orbital Energies (a.u.)
    -----------------------

    Doubly Occupied:

       1A    -20.547025     2A    -11.266092     3A    -11.211231
       4A    -11.206337     5A    -11.200393     6A     -1.364870
       7A     -1.064121     8A     -0.970495     9A     -0.868676
      10A     -0.774540    11A     -0.706154    12A     -0.651448
      13A     -0.609280    14A     -0.572197    15A     -0.566839
      16A     -0.529874    17A     -0.509915    18A     -0.477199
      19A     -0.464233    20A     -0.452743    21A     -0.433009

  @DF-RHF Final Energy:  -232.23636276706335

   => Energetics <=

    Nuclear Repulsion Energy =            193.0494902439409373
    One-Electron Energy =                -697.6783646838749746
    Two-Electron Energy =                 272.3925116728707962
    DFT Exchange-Correlation Energy =       0.0000000000000000
    Empirical Dispersion Energy =           0.0000000000000000
    PCM Polarization Energy =               0.0000000000000000
    EFP Energy =                            0.0000000000000000
    Total Energy =                       -232.2363627670632695
    Molecular point group: c1
  Basis Set: CC-PVTZ
  Basis Set:

  -Total Gradient:
     Atom            X                  Y                   Z
    ------   -----------------  -----------------  -----------------
       1       -0.000006858214    -0.000002230523     0.000006089706
       2       -0.002155518730    -0.001899408674     0.001587931605
       3        0.002732528531     0.003348846141    -0.001559427785
       4       -0.000105256994    -0.005044701148    -0.002210272495
       5        0.000003924153     0.000000197034     0.000002643678
       6        0.000018933315    -0.000007153740    -0.000001412526
       7        0.000010351087    -0.000014304536    -0.000012940241
       8       -0.000475494209     0.003603700637     0.002179674358
       9       -0.000003040390     0.000010595531     0.000004205188
      10       -0.000013168119     0.000018660923    -0.000004814586
      11        0.000000100120     0.000012223384    -0.000000453448
      12        0.000001645580    -0.000013331845     0.000006080728
      13       -0.000007570810    -0.000004781843    -0.000003130268
      14       -0.000001306275    -0.000015395026    -0.000007161614
      15        0.000000730956     0.000007083685     0.000012987699

  **** Optimization is complete! (in 7 steps) ****
    Final optimized geometry and variables:
    Molecular point group: c1

    Geometry (in Angstrom), charge = 0, multiplicity = 1:

    H            2.334413446586    -0.805783050323     0.729803801266
    O            1.634379679053    -0.553110829272     0.157079006266
    C            0.990381470089     0.588789453722     0.660315814088
    C           -0.103223503078     1.029913584883    -0.302902352253
    H            1.697863228374     1.401913771237     0.796932045221
    H            0.558888996673     0.367237183301     1.633208628896
    C           -0.988221865519    -0.088389813345    -0.850621644294
    H            0.346626101099     1.584950929267    -1.119784276985
    H           -0.721959625636     1.750583553488     0.228021818114
    C           -1.762634465806    -0.853330418399     0.219117983413
    H           -0.379762653386    -0.780536591052    -1.418230848720
    H           -1.691681898132     0.354234385006    -1.549233873386
    H           -2.424132057880    -1.582669215520    -0.234262287787
    H           -1.095921027275    -1.387717392894     0.884845320452
    H           -2.372388915131    -0.184661632424     0.819286897983

  Mulliken Charges: (a.u.)
   Center  Symbol    Alpha    Beta     Spin     Total
       1     H     0.39573  0.39573  0.00000  0.20853
       2     O     4.19867  4.19867  0.00000 -0.39734
       3     C     2.98026  2.98026  0.00000  0.03947
       4     C     3.09594  3.09594  0.00000 -0.19187
       5     H     0.46058  0.46058  0.00000  0.07884
       6     H     0.47032  0.47032  0.00000  0.05936
       7     C     3.08313  3.08313  0.00000 -0.16627
       8     H     0.44946  0.44946  0.00000  0.10107
       9     H     0.45639  0.45639  0.00000  0.08722
      10     C     3.15503  3.15503  0.00000 -0.31007
      11     H     0.44700  0.44700  0.00000  0.10600
      12     H     0.45102  0.45102  0.00000  0.09796
      13     H     0.44735  0.44735  0.00000  0.10530
      14     H     0.45134  0.45134  0.00000  0.09733
      15     H     0.45777  0.45777  0.00000  0.08447

   Total alpha = 21.00000, Total beta = 21.00000, Total charge =  0.00000

*** Psi4 exiting successfully. Buy a developer a beer!
