                              Psi4 1.0.54 Driver

  ==> Input File <==

--------------------------------------------------------------------------
set {
	reference rhf
	basis cc-pvtz
}

set_num_threads( 4 )
memory 2 gb

molecule MOL {
0 1

H	 -1.835082	 1.385983	 0.000069
C	 -1.300516	 0.441153	 -0.000028
O	 -0.006604	 0.654344	 -0.000106
O	 -1.828920	 -0.612308	 0.000113
C	 0.852093	 -0.482521	 -0.000161
C	 2.110714	 -0.109738	 0.746571
H	 1.062522	 -0.761195	 -1.022911
H	 0.338266	 -1.308344	 0.470966
H	 2.612446	 0.720532	 0.266064
H	 2.787453	 -0.955636	 0.764857
H	 1.884547	 0.170661	 1.767451

	symmetry c1
}
set optking {
	frozen_dihedral = ("
		7 5 3 2
	")
}

ee,wfn = optimize('scf', return_wfn=True)
oeprop( wfn, 'DIPOLE', 'QUADRUPOLE', 'MULLIKEN_CHARGES')
f=open( 'psi4out.xyz', 'w' )
f.write( "11  " )
f.write( str(ee) + "\n" )
f.write( MOL.save_string_xyz() )
f.close()
--------------------------------------------------------------------------

    Molecular point group: c1
  Charge       = 0
  Multiplicity = 1
  Basis Set: CC-PVTZ
  Basis Set:
  @DF-RHF Final Energy:  -266.93049714128279
    Total Energy =                       -266.9304971412829559
    Molecular point group: c1
  Basis Set: CC-PVTZ
  Basis Set:
  Basis Set: CC-PVTZ
  Basis Set:
  @DF-RHF Final Energy:  -266.93062984580388
    Total Energy =                       -266.9306298458039350
  Basis Set: CC-PVTZ
  Basis Set:
  Basis Set: CC-PVTZ
  Basis Set:
  @DF-RHF Final Energy:  -266.93004588853944
    Total Energy =                       -266.9300458885393823
  Basis Set: CC-PVTZ
  Basis Set:
  Basis Set: CC-PVTZ
  Basis Set:
  @DF-RHF Final Energy:  -266.93071533997050
    Total Energy =                       -266.9307153399705612
  Basis Set: CC-PVTZ
  Basis Set:
  Basis Set: CC-PVTZ
  Basis Set:
  @DF-RHF Final Energy:  -266.93077264572469
    Total Energy =                       -266.9307726457245167
  Basis Set: CC-PVTZ
  Basis Set:
  Charge       = 0
  Multiplicity = 1
  Basis Set: CC-PVTZ
  Basis Set:

    Orbital Energies (a.u.)
    -----------------------

    Doubly Occupied:

       1A    -20.605231     2A    -20.545205     3A    -11.370737
       4A    -11.289434     5A    -11.225018     6A     -1.478082
       7A     -1.377651     8A     -1.053712     9A     -0.905415
      10A     -0.804048    11A     -0.743831    12A     -0.689860
      13A     -0.679869    14A     -0.599832    15A     -0.575029
      16A     -0.558041    17A     -0.527382    18A     -0.509154
      19A     -0.463310    20A     -0.456351

  @DF-RHF Final Energy:  -266.93077399207823

   => Energetics <=

    Nuclear Repulsion Energy =            179.5555133105816310
    One-Electron Energy =                -720.0581885283118027
    Two-Electron Energy =                 273.5719012256520273
    DFT Exchange-Correlation Energy =       0.0000000000000000
    Empirical Dispersion Energy =           0.0000000000000000
    PCM Polarization Energy =               0.0000000000000000
    EFP Energy =                            0.0000000000000000
    Total Energy =                       -266.9307739920781160
    Molecular point group: c1
  Basis Set: CC-PVTZ
  Basis Set:

  -Total Gradient:
     Atom            X                  Y                   Z
    ------   -----------------  -----------------  -----------------
       1        0.000053454584    -0.000049119143     0.000003495927
       2       -0.000082719757    -0.000130895881     0.001333893419
       3        0.000354091194     0.000392705132    -0.001905217099
       4       -0.000006979350     0.000090882081     0.000020498712
       5       -0.001541393024    -0.001139200232     0.000537724923
       6       -0.000053257113     0.000003414039    -0.000025275309
       7        0.001264472436     0.000861411331     0.000033454385
       8        0.000036008594    -0.000032477971     0.000003235908
       9        0.000001040599     0.000000830448    -0.000001507708
      10       -0.000017612523     0.000001244412    -0.000004355360
      11       -0.000007105646     0.000001205785     0.000004052205

  **** Optimization is complete! (in 6 steps) ****
    Final optimized geometry and variables:
    Molecular point group: c1

    Geometry (in Angstrom), charge = 0, multiplicity = 1:

    H           -1.764405106804     1.449304604328    -0.136483584618
    C           -1.262840233306     0.486792722607    -0.154682983847
    O            0.037350943296     0.662439096009    -0.143467563191
    O           -1.830138463077    -0.545687113933    -0.181413310731
    C            0.889235611401    -0.480658546241    -0.127252627060
    C            2.161776819974    -0.106323631724     0.597525341390
    H            1.098350746627    -0.755282791577    -1.152662364780
    H            0.379844898432    -1.300160597806     0.352694035616
    H            2.649011376919     0.731433438669     0.115159121604
    H            2.844146735126    -0.948137240887     0.594140520451
    H            1.954430263125     0.162842587755     1.625574645914

  Mulliken Charges: (a.u.)
   Center  Symbol    Alpha    Beta     Spin     Total
       1     H     0.44978  0.44978  0.00000  0.10044
       2     C     2.84297  2.84297  0.00000  0.31405
       3     O     4.14637  4.14637  0.00000 -0.29273
       4     O     4.19543  4.19543  0.00000 -0.39085
       5     C     2.97605  2.97605  0.00000  0.04790
       6     C     3.13232  3.13232  0.00000 -0.26463
       7     H     0.45494  0.45494  0.00000  0.09012
       8     H     0.44620  0.44620  0.00000  0.10759
       9     H     0.45036  0.45036  0.00000  0.09929
      10     H     0.45457  0.45457  0.00000  0.09087
      11     H     0.45102  0.45102  0.00000  0.09796

   Total alpha = 20.00000, Total beta = 20.00000, Total charge = -0.00000

*** Psi4 exiting successfully. Buy a developer a beer!
