  ==> Input File <==

--------------------------------------------------------------------------
set {
	reference rhf
	basis 6-31G*
}

set_num_threads( 4 )
memory 2 gb

molecule MOL {
0 1

O	 1.620573	 -0.390955	 0.221949
C	 0.576249	 0.131685	 -0.000108
C	 -0.766779	 -0.556801	 -0.000461
O	 0.455253	 1.422298	 -0.283554
C	 -1.945214	 0.412366	 0.000161
H	 -0.796911	 -1.211249	 -0.867467
H	 -0.796854	 -1.212390	 0.865687
C	 -3.287791	 -0.317055	 0.000105
H	 -1.876087	 1.060580	 -0.866812
H	 -1.875822	 1.059691	 0.867761
H	 -3.394745	 -0.949193	 -0.877058
H	 -4.111778	 0.388953	 0.000015
H	 -3.394954	 -0.949187	 0.877259
C	 1.646229	 2.187642	 -0.315675
H	 2.137605	 2.166359	 0.646427
H	 1.343581	 3.194189	 -0.558844
H	 2.322044	 1.807571	 -1.068224

	symmetry c1
}
set optking {
	frozen_dihedral = ("
		1 2 3 6
	")
}

ee = optimize('scf')
oeprop('DIPOLE', 'QUADRUPOLE', 'MULLIKEN_CHARGES')
f=open( 'psi4out.xyz', 'w' )
f.write( "17  " )
f.write( str(ee) + "\n" )
f.write( MOL.save_string_xyz() )
f.close()
--------------------------------------------------------------------------

    Molecular point group: c1
  Charge       = 0
  Multiplicity = 1
  Basis Set: 6-31G*
  Basis Set:
  @DF-RHF Final Energy:  -344.90303623040649
    Total Energy =                       -344.9030362304067694
    Molecular point group: c1
  Basis Set: 6-31G*
  Basis Set:
  Basis Set: 6-31G*
  Basis Set:
  @DF-RHF Final Energy:  -344.90372789726501
    Total Energy =                       -344.9037278972649574
  Basis Set: 6-31G*
  Basis Set:
  Basis Set: 6-31G*
  Basis Set:
  @DF-RHF Final Energy:  -344.90429344789271
    Total Energy =                       -344.9042934478931102
  Basis Set: 6-31G*
  Basis Set:
  Basis Set: 6-31G*
  Basis Set:
  @DF-RHF Final Energy:  -344.90435801127506
    Total Energy =                       -344.9043580112750078
  Basis Set: 6-31G*
  Basis Set:
  Basis Set: 6-31G*
  Basis Set:
  @DF-RHF Final Energy:  -344.90433994323854
    Total Energy =                       -344.9043399432384831
  Basis Set: 6-31G*
  Basis Set:
  Basis Set: 6-31G*
  Basis Set:
  @DF-RHF Final Energy:  -344.90436473620053
    Total Energy =                       -344.9043647362007050
  Basis Set: 6-31G*
  Basis Set:
  Charge       = 0
  Multiplicity = 1
  Basis Set: 6-31G*
  Basis Set:

    Orbital Energies (a.u.)
    -----------------------

    Doubly Occupied:

       1A    -20.606854     2A    -20.540920     3A    -11.372794
       4A    -11.281918     5A    -11.236268     6A    -11.226242
       7A    -11.216895     8A     -1.470599     9A     -1.361282
      10A     -1.082974    11A     -0.997389    12A     -0.943358
      13A     -0.831399    14A     -0.775194    15A     -0.696803
      16A     -0.683777    17A     -0.670093    18A     -0.637937
      19A     -0.595752    20A     -0.572092    21A     -0.558716
      22A     -0.530824    23A     -0.522843    24A     -0.516474
      25A     -0.490003    26A     -0.483398    27A     -0.452462
      28A     -0.430576

  @DF-RHF Final Energy:  -344.90436488673964

   => Energetics <=

    Nuclear Repulsion Energy =            314.3036027882065468
    One-Electron Energy =               -1092.8442609535031806
    Two-Electron Energy =                 433.6362932785569910
    DFT Exchange-Correlation Energy =       0.0000000000000000
    Empirical Dispersion Energy =           0.0000000000000000
    PCM Polarization Energy =               0.0000000000000000
    EFP Energy =                            0.0000000000000000
    Total Energy =                       -344.9043648867396996
    Molecular point group: c1
  Basis Set: 6-31G*
  Basis Set:

  -Total Gradient:
     Atom            X                  Y                   Z
    ------   -----------------  -----------------  -----------------
       1        0.000046967183    -0.000083809320    -0.000557468235
       2       -0.000031703707     0.000027000017     0.000843174138
       3       -0.000232023761     0.000462544546    -0.000589937615
       4        0.000020749822     0.000031353426     0.000012454391
       5       -0.000001376661     0.000004333164    -0.000005381110
       6        0.000200536858    -0.000415177499     0.000301076664
       7       -0.000003344955    -0.000003370058    -0.000001958461
       8        0.000001741165    -0.000011127157    -0.000006122204
       9       -0.000001994372     0.000004020581     0.000002306959
      10        0.000014673435    -0.000006608502     0.000004628159
      11        0.000001076622    -0.000007054110     0.000001935662
      12        0.000007130887     0.000001602691    -0.000005139066
      13       -0.000007131084     0.000003286157     0.000005739454
      14       -0.000021953584    -0.000008583276    -0.000011836764
      15       -0.000000994832    -0.000002709432     0.000004113642
      16        0.000006041366     0.000004520094     0.000001760365
      17        0.000001605617    -0.000000221323     0.000000654020

  **** Optimization is complete! (in 7 steps) ****
    Final optimized geometry and variables:
    Molecular point group: c1

    Geometry (in Angstrom), charge = 0, multiplicity = 1:

    O            1.802838291471    -0.832163317425     0.289329977234
    C            0.786352716297    -0.258086687449     0.060331236264
    C           -0.565659115605    -0.936736911400     0.043685474416
    O            0.735768471851     1.032091834109    -0.233104874974
    C           -1.793980566237    -0.027615613405     0.053339366551
    H           -0.570293588797    -1.574293868389    -0.837361531038
    H           -0.573814377069    -1.611202202761     0.893277994196
    C           -3.092623272389    -0.833228274390     0.068686217715
    H           -1.774411014158     0.621053137973    -0.814987528634
    H           -1.757854809469     0.622637722464     0.922036819797
    H           -3.169571904755    -1.473730819671    -0.805443687812
    H           -3.956138489308    -0.176125752318     0.073318995492
    H           -3.154544304402    -1.466999953636     0.948701011779
    C            1.967483961526     1.731286581508    -0.263691332570
    H            2.452615977713     1.686141613684     0.700465998071
    H            1.720826373377     2.751678358565    -0.512317240818
    H            2.623353970193     1.310178985485    -1.011743364377

  Mulliken Charges: (a.u.)
   Center  Symbol    Alpha    Beta     Spin     Total
       1     O     4.28891  4.28891  0.00000 -0.57781
       2     C     2.60553  2.60553  0.00000  0.78893
       3     C     3.20927  3.20927  0.00000 -0.41855
       4     O     4.30403  4.30403  0.00000 -0.60806
       5     C     3.15173  3.15173  0.00000 -0.30345
       6     H     0.39935  0.39935  0.00000  0.20131
       7     H     0.39806  0.39806  0.00000  0.20387
       8     C     3.24310  3.24310  0.00000 -0.48619
       9     H     0.41104  0.41104  0.00000  0.17791
      10     H     0.41561  0.41561  0.00000  0.16878
      11     H     0.42041  0.42041  0.00000  0.15917
      12     H     0.41548  0.41548  0.00000  0.16905
      13     H     0.41992  0.41992  0.00000  0.16016
      14     C     3.09274  3.09274  0.00000 -0.18549
      15     H     0.40803  0.40803  0.00000  0.18394
      16     H     0.40855  0.40855  0.00000  0.18291
      17     H     0.40825  0.40825  0.00000  0.18351

   Total alpha = 28.00000, Total beta = 28.00000, Total charge = -0.00000
