  ==> Input File <==

--------------------------------------------------------------------------
set {
	reference rhf
	basis cc-pvtz
}

set_num_threads( 4 )
memory 2 gb

molecule MOL {
0 1

H	 3.083659	 -1.378387	 0.000000
O	 2.179005	 -1.633391	 0.000000
C	 1.366950	 -0.558201	 0.000000
C	 1.637224	 0.573977	 -0.753529
C	 0.233232	 -0.609222	 0.784921
H	 2.520844	 0.612024	 -1.364427
C	 0.774650	 1.650935	 -0.720597
H	 0.021709	 -1.482198	 1.368029
C	 -0.625850	 0.474572	 0.812058
H	 0.994015	 2.521537	 -1.307755
C	 -0.361620	 1.607893	 0.061998
C	 -1.850467	 0.432282	 1.653427
H	 -1.034220	 2.443796	 0.089631
O	 -2.171572	 -0.482623	 2.331114
H	 -2.466867	 1.335451	 1.609414

	symmetry c1
}
set optking {
	frozen_dihedral = ("
		4 3 2 1
	")
}

ee = optimize('scf')
oeprop('DIPOLE', 'QUADRUPOLE', 'MULLIKEN_CHARGES')
f=open( 'psi4out.xyz', 'w' )
f.write( "15  " )
f.write( str(ee) + "\n" )
f.write( MOL.save_string_xyz() )
f.close()
--------------------------------------------------------------------------

    Molecular point group: c1
  Charge       = 0
  Multiplicity = 1
  Basis Set: CC-PVTZ
  Basis Set:
  @DF-RHF Final Energy:  -418.43704972788277
    Total Energy =                       -418.4370497278828225
    Molecular point group: c1
  Basis Set: CC-PVTZ
  Basis Set:
  Basis Set: CC-PVTZ
  Basis Set:
  @DF-RHF Final Energy:  -418.43720162934551
    Total Energy =                       -418.4372016293453953
  Basis Set: CC-PVTZ
  Basis Set:
  Basis Set: CC-PVTZ
  Basis Set:
  @DF-RHF Final Energy:  -418.43725681369028
    Total Energy =                       -418.4372568136901691
  Basis Set: CC-PVTZ
  Basis Set:
  Basis Set: CC-PVTZ
  Basis Set:
  @DF-RHF Final Energy:  -418.43708388734655
    Total Energy =                       -418.4370838873467164
  Basis Set: CC-PVTZ
  Basis Set:
  Basis Set: CC-PVTZ
  Basis Set:
  @DF-RHF Final Energy:  -418.43731295638639
    Total Energy =                       -418.4373129563866769
  Basis Set: CC-PVTZ
  Basis Set:
  Charge       = 0
  Multiplicity = 1
  Basis Set: CC-PVTZ
  Basis Set:

    Orbital Energies (a.u.)
    -----------------------

    Doubly Occupied:

       1A    -20.590125     2A    -20.554454     3A    -11.327797
       4A    -11.308254     5A    -11.250647     6A    -11.250481
       7A    -11.247943     8A    -11.245945     9A    -11.238744
      10A     -1.420251    11A     -1.410260    12A     -1.174685
      13A     -1.052258    14A     -1.030816    15A     -0.901515
      16A     -0.849624    17A     -0.813442    18A     -0.741404
      19A     -0.704581    20A     -0.689659    21A     -0.646249
      22A     -0.641415    23A     -0.620447    24A     -0.610990
      25A     -0.564932    26A     -0.554225    27A     -0.543985
      28A     -0.512876    29A     -0.492703    30A     -0.426916
      31A     -0.357820    32A     -0.336670

  @DF-RHF Final Energy:  -418.43731396835415

   => Energetics <=

    Nuclear Repulsion Energy =            403.8614959048819628
    One-Electron Energy =               -1370.3733920941376709
    Two-Electron Energy =                 548.0745822209017888
    DFT Exchange-Correlation Energy =       0.0000000000000000
    Empirical Dispersion Energy =           0.0000000000000000
    PCM Polarization Energy =               0.0000000000000000
    EFP Energy =                            0.0000000000000000
    Total Energy =                       -418.4373139683539193
    Molecular point group: c1
  Basis Set: CC-PVTZ
  Basis Set:

  -Total Gradient:
     Atom            X                  Y                   Z
    ------   -----------------  -----------------  -----------------
       1        0.000081084579     0.000018342454     0.002226169728
       2       -0.000585561468    -0.000418602300    -0.003439611382
       3        0.001486912402     0.001149607513     0.002338041309
       4       -0.000841819361    -0.000839486231    -0.001161607631
       5       -0.000146262760     0.000113311154     0.000034246349
       6       -0.000002838553     0.000007039697     0.000000923041
       7       -0.000226636678     0.000100317452     0.000055891426
       8        0.000012974057    -0.000018340065     0.000007948954
       9        0.000026309265    -0.000216247447     0.000079611254
      10        0.000017623973    -0.000006755147     0.000001394136
      11        0.000180502499     0.000113025169    -0.000128953997
      12       -0.000004253747    -0.000014071137    -0.000018026113
      13       -0.000012367783    -0.000004446691     0.000005144975
      14        0.000010986650     0.000008856687    -0.000000559885
      15        0.000003346931     0.000007448887    -0.000000612159

  **** Optimization is complete! (in 6 steps) ****
    Final optimized geometry and variables:
    Molecular point group: c1

    Geometry (in Angstrom), charge = 0, multiplicity = 1:

    H            2.945023240286    -1.497242241778    -0.539198359484
    O            2.038940733007    -1.746701891310    -0.504369773169
    C            1.233205663410    -0.658333021074    -0.468941037766
    C            1.498107253650     0.467213618280    -1.235941014198
    C            0.096654972236    -0.712352514538     0.306570184709
    H            2.374991533905     0.491806462014    -1.856008828104
    C            0.636994710823     1.543927936134    -1.206555896402
    H           -0.114114458386    -1.583957247618     0.892184265496
    C           -0.772047192520     0.367327418349     0.321686267244
    H            0.852654131555     2.412210884779    -1.798434401791
    C           -0.504326567466     1.497833284000    -0.428319024623
    C           -2.001496438637     0.323430396473     1.154646446206
    H           -1.180283859551     2.331556615345    -0.408136426269
    O           -2.321422708035    -0.588562763892     1.836815569444
    H           -2.622753824620     1.222990897481     1.099906785703

  Mulliken Charges: (a.u.)
   Center  Symbol    Alpha    Beta     Spin     Total
       1     H     0.38554  0.38554  0.00000  0.22893
       2     O     4.17783  4.17783  0.00000 -0.35566
       3     C     2.85392  2.85392  0.00000  0.29217
       4     C     3.11762  3.11762  0.00000 -0.23525
       5     C     3.11817  3.11817  0.00000 -0.23635
       6     H     0.42394  0.42394  0.00000  0.15212
       7     C     3.06478  3.06478  0.00000 -0.12957
       8     H     0.40320  0.40320  0.00000  0.19360
       9     C     2.97322  2.97322  0.00000  0.05356
      10     H     0.41925  0.41925  0.00000  0.16149
      11     C     3.10472  3.10472  0.00000 -0.20945
      12     C     2.90906  2.90906  0.00000  0.18188
      13     H     0.42287  0.42287  0.00000  0.15427
      14     O     4.16928  4.16928  0.00000 -0.33856
      15     H     0.45659  0.45659  0.00000  0.08682

   Total alpha = 32.00000, Total beta = 32.00000, Total charge = -0.00000
