                              Psi4 1.0.54 Driver

  ==> Input File <==

--------------------------------------------------------------------------
set {
	reference rhf
	basis cc-pvtz
}

set_num_threads( 4 )
memory 2 gb

molecule MOL {
0 1

H	 0.198976	 1.546456	 2.083597
C	 1.006006	 1.011482	 1.565756
C	 0.692262	 0.592428	 0.156232
O	 2.027937	 0.801299	 2.121737
C	 -0.554654	 -0.292621	 0.086567
H	 1.557617	 0.087136	 -0.252029
H	 0.524744	 1.498173	 -0.422941
C	 -1.846385	 0.513195	 -0.016346
H	 -0.473986	 -0.956115	 -0.769708
H	 -0.597929	 -0.929215	 0.966651
C	 -3.089953	 -0.365049	 -0.098564
H	 -1.798267	 1.154820	 -0.891143
H	 -1.925398	 1.173265	 0.842889
H	 -3.055079	 -1.012299	 -0.968245
H	 -3.988403	 0.236438	 -0.170014
H	 -3.183055	 -0.995885	 0.779079

	symmetry c1
}
set optking {
	frozen_dihedral = ("
		6 3 5 9
	")
}

ee,wfn = optimize('scf', return_wfn=True)
oeprop( wfn, 'DIPOLE', 'QUADRUPOLE', 'MULLIKEN_CHARGES')
f=open( 'psi4out.xyz', 'w' )
f.write( "16  " )
f.write( str(ee) + "\n" )
f.write( MOL.save_string_xyz() )
f.close()
--------------------------------------------------------------------------

    Molecular point group: c1
  Charge       = 0
  Multiplicity = 1
  Basis Set: CC-PVTZ
  Basis Set:
  @DF-RHF Final Energy:  -270.11589942907216
    Total Energy =                       -270.1158994290722717
    Molecular point group: c1
  Basis Set: CC-PVTZ
  Basis Set:
  Basis Set: CC-PVTZ
  Basis Set:
  @DF-RHF Final Energy:  -270.11603519810905
    Total Energy =                       -270.1160351981092163
  Basis Set: CC-PVTZ
  Basis Set:
  Basis Set: CC-PVTZ
  Basis Set:
  @DF-RHF Final Energy:  -270.11612048238743
    Total Energy =                       -270.1161204823871458
  Basis Set: CC-PVTZ
  Basis Set:
  Basis Set: CC-PVTZ
  Basis Set:
  @DF-RHF Final Energy:  -270.11623571321456
    Total Energy =                       -270.1162357132146781
  Basis Set: CC-PVTZ
  Basis Set:
  @DF-RHF Final Energy:  -270.11627988551982
    Total Energy =                       -270.1162798855198162
  Basis Set: CC-PVTZ
  Basis Set:
  @DF-RHF Final Energy:  -270.11630563872160
    Total Energy =                       -270.1163056387214283
  Basis Set: CC-PVTZ
  Basis Set:
  Basis Set: CC-PVTZ
  Basis Set:
  @DF-RHF Final Energy:  -270.11630658146328
    Total Energy =                       -270.1163065814631636
  Basis Set: CC-PVTZ
  Basis Set:
  Basis Set: CC-PVTZ
  Basis Set:
  @DF-RHF Final Energy:  -270.11633853758678
    Total Energy =                       -270.1163385375866710
  Basis Set: CC-PVTZ
  Basis Set:
  Charge       = 0
  Multiplicity = 1
  Basis Set: CC-PVTZ
  Basis Set:

    Orbital Energies (a.u.)
    -----------------------

    Doubly Occupied:

       1A    -20.551235     2A    -11.321275     3A    -11.234422
       4A    -11.233822     5A    -11.229401     6A    -11.218027
       7A     -1.406277     8A     -1.097811     9A     -1.019202
      10A     -0.906449    11A     -0.824581    12A     -0.789040
      13A     -0.672990    14A     -0.659128    15A     -0.617738
      16A     -0.610174    17A     -0.583432    18A     -0.559360
      19A     -0.537255    20A     -0.511133    21A     -0.487342
      22A     -0.482988    23A     -0.475501    24A     -0.411527

  @DF-RHF Final Energy:  -270.11633933065605

   => Energetics <=

    Nuclear Repulsion Energy =            231.1972233527930314
    One-Electron Energy =                -823.7469065730469993
    Two-Electron Energy =                 322.4333438895979498
    DFT Exchange-Correlation Energy =       0.0000000000000000
    Empirical Dispersion Energy =           0.0000000000000000
    PCM Polarization Energy =               0.0000000000000000
    EFP Energy =                            0.0000000000000000
    Total Energy =                       -270.1163393306560465
    Molecular point group: c1
  Basis Set: CC-PVTZ
  Basis Set:

  -Total Gradient:
     Atom            X                  Y                   Z
    ------   -----------------  -----------------  -----------------
       1        0.000028524358    -0.000009235148    -0.000019658918
       2       -0.000051769785    -0.000006381004    -0.000033946222
       3        0.000635463315    -0.001148326874     0.002393541634
       4        0.000002150964     0.000003899824     0.000003342992
       5       -0.000995313914     0.001703344675    -0.001702973543
       6       -0.000328253055     0.000703814651    -0.001664403758
       7       -0.000016443399    -0.000005460074     0.000005680422
       8        0.000027188047     0.000010862869    -0.000019632557
       9        0.000726988453    -0.001260236097     0.001023128999
      10        0.000003706680     0.000025071305    -0.000003135754
      11       -0.000025415553    -0.000008528105     0.000010532262
      12        0.000003489810    -0.000002679699     0.000002766620
      13       -0.000001553792    -0.000009890794    -0.000001243117
      14        0.000006571830     0.000010796722     0.000005042982
      15       -0.000012721020    -0.000003267647     0.000001302287
      16       -0.000002612938    -0.000003784602    -0.000000344331

  **** Optimization is complete! (in 9 steps) ****
    Final optimized geometry and variables:
    Molecular point group: c1

    Geometry (in Angstrom), charge = 0, multiplicity = 1:

    H            0.457944690229     0.957236208628     1.537976501094
    C            1.309683974699     0.580014175757     0.958536591524
    C            1.002756625480     0.155848342205    -0.451969416869
    O            2.382268880099     0.530388280877     1.453843737194
    C           -0.280846096804    -0.680557145683    -0.567360607257
    H            1.862289603326    -0.373134422841    -0.839963057626
    H            0.898584844465     1.063799221560    -1.042879079935
    C           -1.560743002081     0.144311414759    -0.681350504485
    H           -0.191762255874    -1.331849885230    -1.429644426868
    H           -0.355120466660    -1.346140003527     0.289535314195
    C           -2.816304759299    -0.717253904474    -0.757493752111
    H           -1.498142637733     0.772156794291    -1.565615508190
    H           -1.641853312754     0.820456740845     0.164981118473
    H           -2.781104333816    -1.383236339145    -1.613010597525
    H           -3.705545050130    -0.105227287184    -0.850874355724
    H           -2.926716849479    -1.328291460582     0.131868007327

  Mulliken Charges: (a.u.)
   Center  Symbol    Alpha    Beta     Spin     Total
       1     H     0.46442  0.46442  0.00000  0.07116
       2     C     2.90358  2.90358  0.00000  0.19283
       3     C     3.08771  3.08771  0.00000 -0.17541
       4     O     4.16542  4.16542  0.00000 -0.33085
       5     C     3.10917  3.10917  0.00000 -0.21834
       6     H     0.43546  0.43546  0.00000  0.12907
       7     H     0.45022  0.45022  0.00000  0.09955
       8     C     3.08530  3.08530  0.00000 -0.17060
       9     H     0.44238  0.44238  0.00000  0.11525
      10     H     0.44853  0.44853  0.00000  0.10294
      11     C     3.14908  3.14908  0.00000 -0.29816
      12     H     0.45191  0.45191  0.00000  0.09619
      13     H     0.45370  0.45370  0.00000  0.09259
      14     H     0.45332  0.45332  0.00000  0.09335
      15     H     0.44647  0.44647  0.00000  0.10706
      16     H     0.45332  0.45332  0.00000  0.09336

   Total alpha = 24.00000, Total beta = 24.00000, Total charge = -0.00000

*** Psi4 exiting successfully. Buy a developer a beer!
