  ==> Input File <==

--------------------------------------------------------------------------
set {
	reference rhf
	basis 6-31G*
}

set_num_threads( 4 )
memory 2 gb

molecule MOL {
0 1

O	 -0.682937	 1.318834	 -0.186099
C	 -0.860635	 0.152188	 -0.042321
C	 -2.173363	 -0.477127	 0.338347
O	 0.083258	 -0.765189	 -0.202595
H	 -2.477673	 -1.180929	 -0.427595
H	 -2.923125	 0.290956	 0.455536
H	 -2.058825	 -1.029004	 1.264191
C	 1.432622	 -0.330504	 -0.354467
C	 2.090171	 -0.077029	 0.989417
H	 1.453197	 0.553032	 -0.974210
H	 1.920767	 -1.139946	 -0.877933
H	 3.135450	 0.178127	 0.844442
H	 1.608417	 0.743563	 1.506051
H	 2.039070	 -0.963478	 1.612324

	symmetry c1
}
set optking {
	frozen_dihedral = ("
		8 4 2 1
	")
}

ee = optimize('scf')
oeprop('DIPOLE', 'QUADRUPOLE', 'MULLIKEN_CHARGES')
f=open( 'psi4out.xyz', 'w' )
f.write( "14  " )
f.write( str(ee) + "\n" )
f.write( MOL.save_string_xyz() )
f.close()
--------------------------------------------------------------------------

    Molecular point group: c1
  Charge       = 0
  Multiplicity = 1
  Basis Set: 6-31G*
  Basis Set:
  @DF-RHF Final Energy:  -305.87486667726137
    Total Energy =                       -305.8748666772614229
    Molecular point group: c1
  Basis Set: 6-31G*
  Basis Set:
  Basis Set: 6-31G*
  Basis Set:
  @DF-RHF Final Energy:  -305.87358877651798
    Total Energy =                       -305.8735887765180905
  Basis Set: 6-31G*
  Basis Set:
  Basis Set: 6-31G*
  Basis Set:
  @DF-RHF Final Energy:  -305.87495057016770
    Total Energy =                       -305.8749505701674707
  Basis Set: 6-31G*
  Basis Set:
  Basis Set: 6-31G*
  Basis Set:
  @DF-RHF Final Energy:  -305.87496301743226
    Total Energy =                       -305.8749630174321510
  Basis Set: 6-31G*
  Basis Set:
  Basis Set: 6-31G*
  Basis Set:
  @DF-RHF Final Energy:  -305.87496814944359
    Total Energy =                       -305.8749681494434753
  Basis Set: 6-31G*
  Basis Set:
  Basis Set: 6-31G*
  Basis Set:
  @DF-RHF Final Energy:  -305.87496951256401
    Total Energy =                       -305.8749695125638937
  Basis Set: 6-31G*
  Basis Set:
  Charge       = 0
  Multiplicity = 1
  Basis Set: 6-31G*
  Basis Set:

    Orbital Energies (a.u.)
    -----------------------

    Doubly Occupied:

       1A    -20.601367     2A    -20.544885     3A    -11.375955
       4A    -11.285319     5A    -11.233365     6A    -11.220016
       7A     -1.467232     8A     -1.362976     9A     -1.054991
      10A     -0.999499    11A     -0.883523    12A     -0.763999
      13A     -0.699041    14A     -0.682275    15A     -0.658484
      16A     -0.610959    17A     -0.587766    18A     -0.570313
      19A     -0.557998    20A     -0.529013    21A     -0.518622
      22A     -0.493836    23A     -0.451059    24A     -0.438604

  @DF-RHF Final Energy:  -305.87496984945813

   => Energetics <=

    Nuclear Repulsion Energy =            248.9955578745533842
    One-Electron Energy =                -910.5588606590587233
    Two-Electron Energy =                 355.6883329350475265
    DFT Exchange-Correlation Energy =       0.0000000000000000
    Empirical Dispersion Energy =           0.0000000000000000
    PCM Polarization Energy =               0.0000000000000000
    EFP Energy =                            0.0000000000000000
    Total Energy =                       -305.8749698494578411
    Molecular point group: c1
  Basis Set: 6-31G*
  Basis Set:

  -Total Gradient:
     Atom            X                  Y                   Z
    ------   -----------------  -----------------  -----------------
       1       -0.000810613214    -0.000139027031    -0.003090025155
       2        0.001387020300     0.000118954644     0.005865644972
       3        0.000021201437     0.000001600514     0.000068080233
       4       -0.000923299106     0.000213111804    -0.005294705830
       5       -0.000004159010     0.000010593569    -0.000019478410
       6        0.000002249537     0.000000127623    -0.000008474601
       7       -0.000002564928    -0.000014731144    -0.000015581334
       8        0.000334441054    -0.000201566001     0.002508362251
       9       -0.000016296933     0.000018434379    -0.000007974150
      10        0.000006645386     0.000001784815    -0.000000668362
      11       -0.000002657285     0.000000393723     0.000002044121
      12        0.000004629645    -0.000001894330     0.000000105652
      13        0.000002345041    -0.000005821958    -0.000004926334
      14        0.000001058077    -0.000001960610    -0.000002403050

  **** Optimization is complete! (in 7 steps) ****
    Final optimized geometry and variables:
    Molecular point group: c1

    Geometry (in Angstrom), charge = 0, multiplicity = 1:

    O           -0.654622099025     1.350344220509    -0.215049757834
    C           -0.842993363945     0.181163533370    -0.113679756848
    C           -2.165975880485    -0.450056389374     0.225678048796
    O            0.089842119059    -0.739549154475    -0.321060522161
    H           -2.453461079267    -1.141845008237    -0.557392089140
    H           -2.916592500094     0.318031777798     0.337382388762
    H           -2.074281458892    -1.015893483042     1.145809715156
    C            1.441345724313    -0.312553015298    -0.473287177438
    C            2.090688142655    -0.037776866448     0.870537251563
    H            1.470255461565     0.558694508316    -1.109763192092
    H            1.929480823529    -1.133411224617    -0.978403294398
    H            3.137635138483     0.211440233459     0.728061487625
    H            1.610226998187     0.794639738670     1.369991267020
    H            2.032163898225    -0.912438427929     1.509239853945

  Mulliken Charges: (a.u.)
   Center  Symbol    Alpha    Beta     Spin     Total
       1     O     4.28382  4.28382  0.00000 -0.56765
       2     C     2.61935  2.61935  0.00000  0.76129
       3     C     3.28186  3.28186  0.00000 -0.56371
       4     O     4.30778  4.30778  0.00000 -0.61556
       5     H     0.39961  0.39961  0.00000  0.20078
       6     H     0.39712  0.39712  0.00000  0.20577
       7     H     0.40116  0.40116  0.00000  0.19768
       8     C     3.00707  3.00707  0.00000 -0.01415
       9     C     3.25614  3.25614  0.00000 -0.51229
      10     H     0.40169  0.40169  0.00000  0.19663
      11     H     0.40977  0.40977  0.00000  0.18047
      12     H     0.41662  0.41662  0.00000  0.16676
      13     H     0.40383  0.40383  0.00000  0.19234
      14     H     0.41418  0.41418  0.00000  0.17164

   Total alpha = 24.00000, Total beta = 24.00000, Total charge =  0.00000
