  ==> Input File <==

--------------------------------------------------------------------------
set {
	reference rhf
	basis 6-31G*
}

set_num_threads( 4 )
memory 2 gb

molecule MOL {
0 1

H	 -2.271982	 -1.317245	 1.447150
C	 -1.570325	 -0.788909	 0.832377
C	 -1.961029	 0.349207	 0.051630
C	 -0.289512	 -1.174794	 0.768923
H	 -2.982895	 0.683806	 0.081274
C	 -1.065454	 0.993922	 -0.709784
H	 0.082878	 -2.016036	 1.322133
N	 0.640212	 -0.532897	 -0.000111
H	 -1.321048	 1.847858	 -1.306291
C	 0.328237	 0.573841	 -0.778623
C	 2.010177	 -1.032049	 0.000042
O	 1.163570	 1.126303	 -1.450344
H	 2.187698	 -1.635381	 -0.882279
H	 2.677579	 -0.189247	 -0.001871
H	 2.188882	 -1.632203	 0.884288

	symmetry c1
}
set optking {
	frozen_dihedral = ("
		10 8 11 13
	")
}

ee = optimize('scf')
oeprop('DIPOLE', 'QUADRUPOLE', 'MULLIKEN_CHARGES')
f=open( 'psi4out.xyz', 'w' )
f.write( "15  " )
f.write( str(ee) + "\n" )
f.write( MOL.save_string_xyz() )
f.close()
--------------------------------------------------------------------------

    Molecular point group: c1
  Charge       = 0
  Multiplicity = 1
  Basis Set: 6-31G*
  Basis Set:
  @DF-RHF Final Energy:  -360.59593076865525
    Total Energy =                       -360.5959307686555917
    Molecular point group: c1
  Basis Set: 6-31G*
  Basis Set:
  Basis Set: 6-31G*
  Basis Set:
  @DF-RHF Final Energy:  -360.59638249985693
    Total Energy =                       -360.5963824998565315
  Basis Set: 6-31G*
  Basis Set:
  Basis Set: 6-31G*
  Basis Set:
  @DF-RHF Final Energy:  -360.59645043515428
    Total Energy =                       -360.5964504351542246
  Basis Set: 6-31G*
  Basis Set:
  Basis Set: 6-31G*
  Basis Set:
  @DF-RHF Final Energy:  -360.59644749983443
    Total Energy =                       -360.5964474998339142
  Basis Set: 6-31G*
  Basis Set:
  Charge       = 0
  Multiplicity = 1
  Basis Set: 6-31G*
  Basis Set:

    Orbital Energies (a.u.)
    -----------------------

    Doubly Occupied:

       1A    -20.508790     2A    -15.622226     3A    -11.341932
       4A    -11.297761     5A    -11.266283     6A    -11.260405
       7A    -11.232969     8A    -11.228866     9A     -1.384966
      10A     -1.281062    11A     -1.114876    12A     -1.026168
      13A     -0.970284    14A     -0.872762    15A     -0.835677
      16A     -0.715925    17A     -0.697642    18A     -0.661261
      19A     -0.648585    20A     -0.622619    21A     -0.606506
      22A     -0.573101    23A     -0.549384    24A     -0.547414
      25A     -0.527537    26A     -0.477539    27A     -0.414071
      28A     -0.405673    29A     -0.304567

  @DF-RHF Final Energy:  -360.59645240605363

   => Energetics <=

    Nuclear Repulsion Energy =            357.8952976295275334
    One-Electron Energy =               -1198.9898000516334378
    Two-Electron Energy =                 480.4980500160521615
    DFT Exchange-Correlation Energy =       0.0000000000000000
    Empirical Dispersion Energy =           0.0000000000000000
    PCM Polarization Energy =               0.0000000000000000
    EFP Energy =                            0.0000000000000000
    Total Energy =                       -360.5964524060537997
    Molecular point group: c1
  Basis Set: 6-31G*
  Basis Set:

  -Total Gradient:
     Atom            X                  Y                   Z
    ------   -----------------  -----------------  -----------------
       1       -0.000031834486    -0.000012149785    -0.000009219881
       2        0.000062267931     0.000007691108    -0.000020408957
       3       -0.000024632639     0.000027775787    -0.000012474455
       4       -0.000072540939     0.000098901480     0.000054069746
       5       -0.000013530686    -0.000034048448     0.000021689262
       6       -0.000076832081     0.000033886472    -0.000006333215
       7        0.000033326303    -0.000010393180    -0.000031820789
       8       -0.000168683645    -0.000612175467    -0.000792692785
       9        0.000017867482    -0.000007575037     0.000026549648
      10        0.000093221698     0.000285104718     0.000557439847
      11        0.000317484773     0.001030410854    -0.000281960084
      12        0.000069539227    -0.000039851088     0.000048161478
      13       -0.000213561620    -0.000716975423     0.000426753589
      14       -0.000083872997     0.000004836834     0.000004113790
      15        0.000091781673    -0.000055438826     0.000016132808

  **** Optimization is complete! (in 5 steps) ****
    Final optimized geometry and variables:
    Molecular point group: c1

    Geometry (in Angstrom), charge = 0, multiplicity = 1:

    H           -2.266990641510    -1.250993413968     1.613510096578
    C           -1.558635177311    -0.723903692760     1.005465620753
    C           -1.939269594523     0.418465259835     0.227558524506
    C           -0.277699221366    -1.114954183361     0.954023304324
    H           -2.959914089696     0.757001081094     0.253954699459
    C           -1.036893767329     1.063283748003    -0.527106718550
    H            0.084624954522    -1.958070528324     1.509660236874
    N            0.657964740680    -0.470598092526     0.196735069737
    H           -1.285185731673     1.920217547828    -1.122541252403
    C            0.350703385363     0.628063791926    -0.592647626672
    C            2.035349473479    -0.946468389014     0.165548286479
    O            1.199468301491     1.153564378758    -1.269454568539
    H            2.212306917063    -1.552477809006    -0.714456702467
    H            2.703573233070    -0.101840770993     0.144974877878
    H            2.224424164440    -1.539862079714     1.049326063376

  Mulliken Charges: (a.u.)
   Center  Symbol    Alpha    Beta     Spin     Total
       1     H     0.39305  0.39305  0.00000  0.21391
       2     C     3.16227  3.16227  0.00000 -0.32454
       3     C     3.05820  3.05820  0.00000 -0.11640
       4     C     2.92147  2.92147  0.00000  0.15706
       5     H     0.39089  0.39089  0.00000  0.21821
       6     C     3.16974  3.16974  0.00000 -0.33948
       7     H     0.38764  0.38764  0.00000  0.22472
       8     N     3.86385  3.86385  0.00000 -0.72771
       9     H     0.38645  0.38645  0.00000  0.22710
      10     C     2.59630  2.59630  0.00000  0.80739
      11     C     3.14241  3.14241  0.00000 -0.28483
      12     O     4.32168  4.32168  0.00000 -0.64337
      13     H     0.40374  0.40374  0.00000  0.19251
      14     H     0.38698  0.38698  0.00000  0.22605
      15     H     0.41532  0.41532  0.00000  0.16937

   Total alpha = 29.00000, Total beta = 29.00000, Total charge = -0.00000
