  ==> Input File <==

--------------------------------------------------------------------------
set {
	reference rhf
	basis 6-31G*
}

set_num_threads( 4 )
memory 2 gb

molecule MOL {
0 1

H	 -2.639127	 -0.126020	 2.731247
C	 -1.723411	 -0.210517	 2.175014
C	 -1.477215	 -1.329790	 1.387081
C	 -0.774087	 0.789019	 2.231269
H	 -2.205961	 -2.118864	 1.331216
C	 -0.304188	 -1.441636	 0.672451
H	 -0.947318	 1.661995	 2.835413
C	 0.414838	 0.691452	 1.516150
H	 -0.101368	 -2.300551	 0.060109
C	 0.650095	 -0.428339	 0.733971
H	 1.133341	 1.485354	 1.580497
O	 1.765256	 -0.628444	 0.000000
C	 2.778419	 0.335181	 0.000000
H	 2.731280	 0.961222	 -0.884976
H	 3.711703	 -0.207767	 0.000000
H	 2.731280	 0.961222	 0.884976

	symmetry c1
}
set optking {
	frozen_dihedral = ("
		10 12 13 14
	")
}

ee = optimize('scf')
oeprop('DIPOLE', 'QUADRUPOLE', 'MULLIKEN_CHARGES')
f=open( 'psi4out.xyz', 'w' )
f.write( "16  " )
f.write( str(ee) + "\n" )
f.write( MOL.save_string_xyz() )
f.close()
--------------------------------------------------------------------------

    Molecular point group: c1
  Charge       = 0
  Multiplicity = 1
  Basis Set: 6-31G*
  Basis Set:
  @DF-RHF Final Energy:  -344.57683621176062
    Total Energy =                       -344.5768362117605648
    Molecular point group: c1
  Basis Set: 6-31G*
  Basis Set:
  Basis Set: 6-31G*
  Basis Set:
  @DF-RHF Final Energy:  -344.57616692566978
    Total Energy =                       -344.5761669256696678
  Basis Set: 6-31G*
  Basis Set:
  Basis Set: 6-31G*
  Basis Set:
  @DF-RHF Final Energy:  -344.57911178434813
    Total Energy =                       -344.5791117843480720
  Basis Set: 6-31G*
  Basis Set:
  Basis Set: 6-31G*
  Basis Set:
  @DF-RHF Final Energy:  -344.57973320503930
    Total Energy =                       -344.5797332050393038
  Basis Set: 6-31G*
  Basis Set:
  Basis Set: 6-31G*
  Basis Set:
  @DF-RHF Final Energy:  -344.58003140402064
    Total Energy =                       -344.5800314040207581
  Basis Set: 6-31G*
  Basis Set:
  Basis Set: 6-31G*
  Basis Set:
  @DF-RHF Final Energy:  -344.58004851061128
    Total Energy =                       -344.5800485106113911
  Basis Set: 6-31G*
  Basis Set:
  Basis Set: 6-31G*
  Basis Set:
  @DF-RHF Final Energy:  -344.58005093825972
    Total Energy =                       -344.5800509382600012
  Basis Set: 6-31G*
  Basis Set:
  Charge       = 0
  Multiplicity = 1
  Basis Set: 6-31G*
  Basis Set:

    Orbital Energies (a.u.)
    -----------------------

    Doubly Occupied:

       1A    -20.580137     2A    -11.292531     3A    -11.278717
       4A    -11.233060     5A    -11.231499     6A    -11.224218
       7A    -11.220485     8A    -11.219707     9A     -1.408627
      10A     -1.145938    11A     -1.020408    12A     -1.013016
      13A     -0.939702    14A     -0.831322    15A     -0.804754
      16A     -0.718909    17A     -0.663916    18A     -0.661243
      19A     -0.651230    20A     -0.615032    21A     -0.588400
      22A     -0.579153    23A     -0.525979    24A     -0.515138
      25A     -0.507688    26A     -0.479267    27A     -0.453178
      28A     -0.334423    29A     -0.307176

  @DF-RHF Final Energy:  -344.58005138582155

   => Energetics <=

    Nuclear Repulsion Energy =            347.7760155672204974
    One-Electron Energy =               -1156.6224259994844488
    Two-Electron Energy =                 464.2663590464424033
    DFT Exchange-Correlation Energy =       0.0000000000000000
    Empirical Dispersion Energy =           0.0000000000000000
    PCM Polarization Energy =               0.0000000000000000
    EFP Energy =                            0.0000000000000000
    Total Energy =                       -344.5800513858215481
    Molecular point group: c1
  Basis Set: 6-31G*
  Basis Set:

  -Total Gradient:
     Atom            X                  Y                   Z
    ------   -----------------  -----------------  -----------------
       1       -0.000002874281    -0.000005812052     0.000002078857
       2        0.000038753234     0.000038426827     0.000018503333
       3       -0.000020316070    -0.000008744953    -0.000040738212
       4       -0.000057905105     0.000007409144     0.000007357043
       5        0.000001189740     0.000008477863     0.000012073298
       6        0.000028877916     0.000011447246    -0.000035116535
       7       -0.000000517251    -0.000001729369     0.000001990097
       8        0.000021812302    -0.000034781706    -0.000051568366
       9        0.000003749618     0.000000925987    -0.000002645556
      10        0.000823810004    -0.002168370466     0.001589156423
      11        0.000004259117    -0.000006810723    -0.000005523773
      12       -0.000898452589     0.002715184209    -0.002788051660
      13       -0.001333492901     0.000979575893     0.003548459555
      14        0.001451582308    -0.001531430210    -0.002252105843
      15       -0.000044156399    -0.000011099477     0.000018367037
      16       -0.000016319646     0.000007331788    -0.000022235696

  **** Optimization is complete! (in 8 steps) ****
    Final optimized geometry and variables:
    Molecular point group: c1

    Geometry (in Angstrom), charge = 0, multiplicity = 1:

    H           -2.789166096402     0.003207796320     1.854540150136
    C           -1.916447658541    -0.023934733482     1.227728728909
    C           -1.638995865230    -1.145102085315     0.456259720660
    C           -1.057715998183     1.057489778248     1.175065028817
    H           -2.298886037533    -1.993977877792     0.485119700131
    C           -0.516181233556    -1.186549939267    -0.346195530465
    H           -1.263434116743     1.937062760933     1.759058142256
    C            0.070849108993     1.032336452122     0.366463860346
    H           -0.287224305176    -2.048640103367    -0.944652705050
    C            0.346282599600    -0.096904698039    -0.389858729661
    H            0.713944575709     1.891323067689     0.320865366755
    O            1.406152387613    -0.197609206915    -1.223464484059
    C            2.598782150008     0.481731829835    -0.931098829180
    H            2.669731491722     1.396193916332    -1.509822997277
    H            3.411234780720    -0.168144684399    -1.227500085645
    H            2.691352893631     0.701470982513     0.124485492295

  Mulliken Charges: (a.u.)
   Center  Symbol    Alpha    Beta     Spin     Total
       1     H     0.40103  0.40103  0.00000  0.19794
       2     C     3.11114  3.11114  0.00000 -0.22229
       3     C     3.09276  3.09276  0.00000 -0.18552
       4     C     3.09205  3.09205  0.00000 -0.18411
       5     H     0.39875  0.39875  0.00000  0.20251
       6     C     3.12509  3.12509  0.00000 -0.25018
       7     H     0.39941  0.39941  0.00000  0.20118
       8     C     3.13835  3.13835  0.00000 -0.27669
       9     H     0.39317  0.39317  0.00000  0.21366
      10     C     2.78685  2.78685  0.00000  0.42629
      11     H     0.39738  0.39738  0.00000  0.20523
      12     O     4.32947  4.32947  0.00000 -0.65894
      13     C     3.08836  3.08836  0.00000 -0.17673
      14     H     0.41831  0.41831  0.00000  0.16339
      15     H     0.40893  0.40893  0.00000  0.18215
      16     H     0.41895  0.41895  0.00000  0.16211

   Total alpha = 29.00000, Total beta = 29.00000, Total charge =  0.00000
