  ==> Input File <==

--------------------------------------------------------------------------
set {
	reference rhf
	basis 6-31G*
}

set_num_threads( 4 )
memory 2 gb

molecule MOL {
0 1

H	 -2.499865	 1.822939	 -1.270686
C	 -1.758026	 1.200507	 -0.809260
C	 -2.076860	 -0.007332	 -0.404944
H	 -0.764003	 1.588673	 -0.690281
O	 -1.180634	 -0.819263	 0.215062
H	 -3.064568	 -0.417313	 -0.521321
C	 0.051604	 -1.018856	 -0.387932
C	 1.043764	 0.054862	 -0.001873
H	 -0.017620	 -1.041351	 -1.469781
H	 0.437898	 -1.966374	 -0.042284
F	 2.212596	 -0.199467	 -0.571921
F	 0.652529	 1.252447	 -0.405055
F	 1.230877	 0.110694	 1.300533

	symmetry c1
}
set optking {
	frozen_dihedral = ("
		6 3 5 7
	")
}

ee = optimize('scf')
oeprop('DIPOLE', 'QUADRUPOLE', 'MULLIKEN_CHARGES')
f=open( 'psi4out.xyz', 'w' )
f.write( "13  " )
f.write( str(ee) + "\n" )
f.write( MOL.save_string_xyz() )
f.close()
--------------------------------------------------------------------------

    Molecular point group: c1
  Charge       = 0
  Multiplicity = 1
  Basis Set: 6-31G*
  Basis Set:
  @DF-RHF Final Energy:  -527.49758592078422
    Total Energy =                       -527.4975859207845588
    Molecular point group: c1
  Basis Set: 6-31G*
  Basis Set:
  Basis Set: 6-31G*
  Basis Set:
  @DF-RHF Final Energy:  -527.52008396190718
    Total Energy =                       -527.5200839619070621
  Basis Set: 6-31G*
  Basis Set:
  Basis Set: 6-31G*
  Basis Set:
  @DF-RHF Final Energy:  -527.52705442587626
    Total Energy =                       -527.5270544258761447
  Basis Set: 6-31G*
  Basis Set:
  Basis Set: 6-31G*
  Basis Set:
  @DF-RHF Final Energy:  -527.53030606837297
    Total Energy =                       -527.5303060683734202
  Basis Set: 6-31G*
  Basis Set:
  @DF-RHF Final Energy:  -527.53191085213098
    Total Energy =                       -527.5319108521310909
  @DF-RHF Final Energy:  -527.53255944801845
    Total Energy =                       -527.5325594480190148
  @DF-RHF Final Energy:  -527.53293139266611
    Total Energy =                       -527.5329313926665691
  Basis Set: 6-31G*
  Basis Set:
  @DF-RHF Final Energy:  -527.53306046258353
    Total Energy =                       -527.5330604625831938
  Basis Set: 6-31G*
  Basis Set:
  Basis Set: 6-31G*
  Basis Set:
  @DF-RHF Final Energy:  -527.53308533327868
    Total Energy =                       -527.5330853332787910
  Basis Set: 6-31G*
  Basis Set:
  Basis Set: 6-31G*
  Basis Set:
  @DF-RHF Final Energy:  -527.53308820089001
    Total Energy =                       -527.5330882008900062
  Basis Set: 6-31G*
  Basis Set:
  Charge       = 0
  Multiplicity = 1
  Basis Set: 6-31G*
  Basis Set:

    Orbital Energies (a.u.)
    -----------------------

    Doubly Occupied:

       1A    -26.341445     2A    -26.341120     3A    -26.337384
       4A    -20.602088     5A    -11.500343     6A    -11.314812
       7A    -11.300625     8A    -11.225140     9A     -1.738709
      10A     -1.636713    11A     -1.635113    12A     -1.430329
      13A     -1.079504    14A     -1.022012    15A     -0.928079
      16A     -0.834790    17A     -0.828699    18A     -0.815078
      19A     -0.779258    20A     -0.726188    21A     -0.707736
      22A     -0.697135    23A     -0.672992    24A     -0.657982
      25A     -0.653898    26A     -0.640147    27A     -0.626057
      28A     -0.607412    29A     -0.553525    30A     -0.531484
      31A     -0.481678    32A     -0.367376

  @DF-RHF Final Energy:  -527.53308870929777

   => Energetics <=

    Nuclear Repulsion Energy =            416.2652698220792900
    One-Electron Energy =               -1556.3670187542643362
    Two-Electron Energy =                 612.5686602228875017
    DFT Exchange-Correlation Energy =       0.0000000000000000
    Empirical Dispersion Energy =           0.0000000000000000
    PCM Polarization Energy =               0.0000000000000000
    EFP Energy =                            0.0000000000000000
    Total Energy =                       -527.5330887092975445
    Molecular point group: c1
  Basis Set: 6-31G*
  Basis Set:

  -Total Gradient:
     Atom            X                  Y                   Z
    ------   -----------------  -----------------  -----------------
       1        0.000003830419     0.000000743426    -0.000004690640
       2       -0.000026376165     0.000007941942     0.000014577392
       3       -0.001104896693     0.000864506723     0.002506851569
       4        0.000044190255     0.000010307152    -0.000011202614
       5        0.001431052862     0.002522512103     0.000352664992
       6        0.000450479666    -0.001450903405    -0.002215318821
       7       -0.000846234315    -0.001958362688    -0.000632146733
       8        0.000063090752    -0.000064390498     0.000041876597
       9        0.000004543230     0.000007433746     0.000003106249
      10        0.000025056269    -0.000000110123     0.000000259592
      11        0.000001822080    -0.000014457181    -0.000035635957
      12       -0.000011961629     0.000066091188    -0.000010847365
      13       -0.000034596735     0.000008687608    -0.000009494261

  **** Optimization is complete! (in 11 steps) ****
    Final optimized geometry and variables:
    Molecular point group: c1

    Geometry (in Angstrom), charge = 0, multiplicity = 1:

    H           -3.167410308052     1.553349256874    -1.493196686852
    C           -2.287032747691     1.141827156338    -1.037812243380
    C           -2.383247992302     0.037004085642    -0.331095083503
    H           -1.360673273265     1.666204842716    -1.174430757534
    O           -1.363630196188    -0.611264589871     0.297368218784
    H           -3.316881043312    -0.474652498726    -0.188391507982
    C           -0.190395063174    -0.899165412299    -0.393881377037
    C            0.968098058942    -0.109023977447     0.167749501306
    H           -0.276257495203    -0.678074499584    -1.448827782560
    H            0.040969012510    -1.948017960919    -0.263570484789
    F            2.077940430444    -0.442416907777    -0.476458533837
    F            0.801416074155     1.195156623749     0.026947403480
    F            1.156012254263    -0.352196376474     1.448977041699

  Mulliken Charges: (a.u.)
   Center  Symbol    Alpha    Beta     Spin     Total
       1     H     0.40483  0.40483  0.00000  0.19035
       2     C     3.23216  3.23216  0.00000 -0.46433
       3     C     2.90611  2.90611  0.00000  0.18778
       4     H     0.39855  0.39855  0.00000  0.20290
       5     O     4.31081  4.31081  0.00000 -0.62163
       6     H     0.40190  0.40190  0.00000  0.19620
       7     C     3.05314  3.05314  0.00000 -0.10628
       8     C     2.45563  2.45563  0.00000  1.08875
       9     H     0.40186  0.40186  0.00000  0.19627
      10     H     0.39693  0.39693  0.00000  0.20614
      11     F     4.68382  4.68382  0.00000 -0.36765
      12     F     4.67861  4.67861  0.00000 -0.35723
      13     F     4.67564  4.67564  0.00000 -0.35127

   Total alpha = 32.00000, Total beta = 32.00000, Total charge =  0.00000
