  ==> Input File <==

--------------------------------------------------------------------------
set {
	reference rhf
	basis 6-31G*
}

set_num_threads( 1 )
memory 2 gb

molecule MOL {
0 1

H	 -3.121081	 1.750275	 0.964187
C	 -2.747427	 0.744769	 0.964095
C	 -1.671647	 0.446606	 0.272866
H	 -3.270946	 0.002491	 1.536688
O	 -1.180634	 -0.819263	 0.215062
H	 -1.128848	 1.176692	 -0.301189
C	 0.051604	 -1.018856	 -0.387932
C	 1.043764	 0.054862	 -0.001873
H	 -0.017620	 -1.041351	 -1.469781
H	 0.437898	 -1.966374	 -0.042284
F	 2.212596	 -0.199467	 -0.571921
F	 0.652529	 1.252447	 -0.405055
F	 1.230877	 0.110694	 1.300533

	symmetry c1
}
set optking {
	frozen_dihedral = ("
		11 8 7 9,
		6 3 2 1,
		6 3 5 7
	")
}

ee = energy('scf')
oeprop('DIPOLE', 'QUADRUPOLE', 'MULLIKEN_CHARGES')
f=open( 'psi4out.xyz', 'w' )
f.write( "13  " )
f.write( str(ee) + "\n" )
f.write( MOL.save_string_xyz() )
f.close()
--------------------------------------------------------------------------

    Molecular point group: c1

    Geometry (in Angstrom), charge = 0, multiplicity = 1:

       Center              X                  Y                   Z               Mass
    ------------   -----------------  -----------------  -----------------  -----------------
           H         -3.215445809977     1.657807586711     0.801956101814     1.007825032070
           C         -2.841791809977     0.652301586711     0.801864101814    12.000000000000
           C         -1.766011809977     0.354138586711     0.110635101814    12.000000000000
           H         -3.365310809977    -0.089976413289     1.374457101814     1.007825032070
           O         -1.274998809977    -0.911730413289     0.052831101814    15.994914619560
           H         -1.223212809977     1.084224586711    -0.463419898186     1.007825032070
           C         -0.042760809977    -1.111323413289    -0.550162898186    12.000000000000
           C          0.949399190023    -0.037605413289    -0.164103898186    12.000000000000
           H         -0.111984809977    -1.133818413289    -1.632011898186     1.007825032070
           H          0.343533190023    -2.058841413289    -0.204514898186     1.007825032070
           F          2.118231190023    -0.291934413289    -0.734151898186    18.998403224000
           F          0.558164190023     1.159979586711    -0.567285898186    18.998403224000
           F          1.136512190023     0.018226586711     1.138302101814    18.998403224000

  Charge       = 0
  Multiplicity = 1
  Basis Set: 6-31G*
  Basis Set:

    Orbital Energies (a.u.)
    -----------------------

    Doubly Occupied:

       1A    -26.356330     2A    -26.350824     3A    -26.348929
       4A    -20.603554     5A    -11.512156     6A    -11.319368
       7A    -11.285204     8A    -11.208701     9A     -1.752722
      10A     -1.653517    11A     -1.646222    12A     -1.435329
      13A     -1.082700    14A     -1.015536    15A     -0.933858
      16A     -0.850558    17A     -0.842533    18A     -0.836066
      19A     -0.770832    20A     -0.730568    21A     -0.716289
      22A     -0.705486    23A     -0.681329    24A     -0.661305
      25A     -0.660968    26A     -0.653355    27A     -0.640739
      28A     -0.585317    29A     -0.556996    30A     -0.524793
      31A     -0.494957    32A     -0.345101

  @DF-RHF Final Energy:  -527.51883979244371

   => Energetics <=

    Nuclear Repulsion Energy =            422.0272534651915066
    One-Electron Energy =               -1567.5680594528846541
    Two-Electron Energy =                 618.0219661952497745
    DFT Exchange-Correlation Energy =       0.0000000000000000
    Empirical Dispersion Energy =           0.0000000000000000
    PCM Polarization Energy =               0.0000000000000000
    EFP Energy =                            0.0000000000000000
    Total Energy =                       -527.5188397924433730

  Mulliken Charges: (a.u.)
   Center  Symbol    Alpha    Beta     Spin     Total
       1     H     0.40848  0.40848  0.00000  0.18304
       2     C     3.23703  3.23703  0.00000 -0.47406
       3     C     2.92108  2.92108  0.00000  0.15785
       4     H     0.40550  0.40550  0.00000  0.18899
       5     O     4.30799  4.30799  0.00000 -0.61598
       6     H     0.37742  0.37742  0.00000  0.24515
       7     C     3.04385  3.04385  0.00000 -0.08770
       8     C     2.46906  2.46906  0.00000  1.06187
       9     H     0.40407  0.40407  0.00000  0.19186
      10     H     0.39036  0.39036  0.00000  0.21928
      11     F     4.68191  4.68191  0.00000 -0.36382
      12     F     4.67943  4.67943  0.00000 -0.35885
      13     F     4.67382  4.67382  0.00000 -0.34764

   Total alpha = 32.00000, Total beta = 32.00000, Total charge =  0.00000
