  ==> Input File <==

--------------------------------------------------------------------------
set {
	reference rhf
	basis 6-31G*
}

set_num_threads( 4 )
memory 2 gb

molecule MOL {
0 1

H	 0.717970	 3.587542	 -1.070087
O	 1.462736	 3.063146	 -0.809256
C	 1.079780	 1.830725	 -0.419820
C	 2.077305	 0.952023	 -0.009004
C	 -0.241620	 1.428194	 -0.417994
H	 3.096839	 1.288621	 -0.019483
C	 1.748755	 -0.323475	 0.401148
H	 -1.030361	 2.084301	 -0.729342
C	 -0.536158	 0.140425	 0.000000
H	 2.525213	 -0.995336	 0.716701
C	 0.428051	 -0.751804	 0.412039
N	 -1.935604	 -0.280333	 0.000000
H	 0.157602	 -1.738091	 0.727474
O	 -2.161694	 -1.452901	 0.000000
O	 -2.770341	 0.571417	 0.000000

	symmetry c1
}
set optking {
	frozen_dihedral = ("
		11 9 12 14
	")
}

ee = optimize('scf')
oeprop('DIPOLE', 'QUADRUPOLE', 'MULLIKEN_CHARGES')
f=open( 'psi4out.xyz', 'w' )
f.write( "15  " )
f.write( str(ee) + "\n" )
f.write( MOL.save_string_xyz() )
f.close()
--------------------------------------------------------------------------

    Molecular point group: c1
  Charge       = 0
  Multiplicity = 1
  Basis Set: 6-31G*
  Basis Set:
  @DF-RHF Final Energy:  -509.02702722100776
    Total Energy =                       -509.0270272210080975
    Molecular point group: c1
  Basis Set: 6-31G*
  Basis Set:
  Basis Set: 6-31G*
  Basis Set:
  @DF-RHF Final Energy:  -509.02232825189060
    Total Energy =                       -509.0223282518907126
  Basis Set: 6-31G*
  Basis Set:
  Basis Set: 6-31G*
  Basis Set:
  @DF-RHF Final Energy:  -509.02701278335508
    Total Energy =                       -509.0270127833546212
  Basis Set: 6-31G*
  Basis Set:
  Basis Set: 6-31G*
  Basis Set:
  @DF-RHF Final Energy:  -509.02711254555248
    Total Energy =                       -509.0271125455523133
  Basis Set: 6-31G*
  Basis Set:
  Basis Set: 6-31G*
  Basis Set:
  @DF-RHF Final Energy:  -509.02711296979572
    Total Energy =                       -509.0271129697958941
  Basis Set: 6-31G*
  Basis Set:
  Charge       = 0
  Multiplicity = 1
  Basis Set: 6-31G*
  Basis Set:

    Orbital Energies (a.u.)
    -----------------------

    Doubly Occupied:

       1A    -20.616090     2A    -20.605756     3A    -20.605205
       4A    -15.859299     5A    -11.331003     6A    -11.311666
       7A    -11.267638     8A    -11.267150     9A    -11.263904
      10A    -11.260272    11A     -1.638436    12A     -1.436835
      13A     -1.421911    14A     -1.200983    15A     -1.095349
      16A     -1.046903    17A     -0.966259    18A     -0.879500
      19A     -0.828777    20A     -0.790737    21A     -0.754203
      22A     -0.736195    23A     -0.722806    24A     -0.708681
      25A     -0.672725    26A     -0.635333    27A     -0.616217
      28A     -0.594517    29A     -0.559501    30A     -0.545698
      31A     -0.517767    32A     -0.491924    33A     -0.490049
      34A     -0.454505    35A     -0.376992    36A     -0.343076

  @DF-RHF Final Energy:  -509.02711330983743

   => Energetics <=

    Nuclear Repulsion Energy =            503.4786046107358288
    One-Electron Energy =               -1693.1837139630954425
    Two-Electron Energy =                 680.6779960425226363
    DFT Exchange-Correlation Energy =       0.0000000000000000
    Empirical Dispersion Energy =           0.0000000000000000
    PCM Polarization Energy =               0.0000000000000000
    EFP Energy =                            0.0000000000000000
    Total Energy =                       -509.0271133098369774
    Molecular point group: c1
  Basis Set: 6-31G*
  Basis Set:

  -Total Gradient:
     Atom            X                  Y                   Z
    ------   -----------------  -----------------  -----------------
       1        0.000001021069    -0.000003503992    -0.000011175288
       2       -0.000002198022     0.000006847640     0.000018521212
       3        0.000001439581    -0.000003808903    -0.000007071760
       4       -0.000000165543    -0.000003126214    -0.000010899629
       5        0.000000498549    -0.000003085037    -0.000002810909
       6       -0.000000484448     0.000000351319     0.000003067175
       7        0.000000098625     0.000000856539    -0.000001412692
       8        0.000000898861     0.000001338862     0.000003971751
       9        0.000227091941    -0.000897838116    -0.003214316236
      10        0.000000442351     0.000000173309    -0.000000177818
      11       -0.000155328522     0.000610534389     0.001690640835
      12       -0.000069317902     0.000407996262     0.003586658089
      13        0.000001440002     0.000003919244    -0.000003226740
      14       -0.000036984814    -0.000079357472    -0.002049622486
      15        0.000031548273    -0.000041297835    -0.000002145505

  **** Optimization is complete! (in 6 steps) ****
    Final optimized geometry and variables:
    Molecular point group: c1

    Geometry (in Angstrom), charge = 0, multiplicity = 1:

    H            0.877221158419     3.052839025715    -0.966188215151
    O            1.622585320045     2.524952542820    -0.714368377306
    C            1.239490525327     1.293407443198    -0.323068770079
    C            2.236783253369     0.415620594267     0.090566503573
    C           -0.082361557007     0.891651046517    -0.318095032222
    H            3.255947611980     0.753560928411     0.082992917811
    C            1.908678900688    -0.859391374748     0.502531803163
    H           -0.873389010700     1.551595115668    -0.616616198494
    C           -0.373566048854    -0.399969946270     0.087835258501
    H            2.684647270083    -1.528030268643     0.826056113685
    C            0.588797873579    -1.290982150736     0.504953335362
    N           -1.772738945311    -0.815947637987     0.104147121048
    H            0.317905400826    -2.279368947239     0.814686521895
    O           -2.000394825592    -1.986701446712     0.121762086137
    O           -2.604476879855     0.040621546608     0.083876413769

  Mulliken Charges: (a.u.)
   Center  Symbol    Alpha    Beta     Spin     Total
       1     H     0.26728  0.26728  0.00000  0.46543
       2     O     4.37552  4.37552  0.00000 -0.75104
       3     C     2.79227  2.79227  0.00000  0.41545
       4     C     3.10915  3.10915  0.00000 -0.21829
       5     C     3.13621  3.13621  0.00000 -0.27241
       6     H     0.38099  0.38099  0.00000  0.23801
       7     C     3.10043  3.10043  0.00000 -0.20085
       8     H     0.36970  0.36970  0.00000  0.26061
       9     C     2.90884  2.90884  0.00000  0.18231
      10     H     0.38655  0.38655  0.00000  0.22690
      11     C     3.09829  3.09829  0.00000 -0.19658
      12     N     3.24572  3.24572  0.00000  0.50856
      13     H     0.36691  0.36691  0.00000  0.26618
      14     O     4.22898  4.22898  0.00000 -0.45795
      15     O     4.23317  4.23317  0.00000 -0.46633

   Total alpha = 36.00000, Total beta = 36.00000, Total charge =  0.00000
