  ==> Input File <==

--------------------------------------------------------------------------
set {
	reference rhf
	basis 6-31G*
}

set_num_threads( 1 )
memory 2 gb

molecule MOL {
0 1

H	 1.909190	 1.639625	 -0.467157
O	 1.022853	 1.292306	 -0.490907
C	 1.050492	 0.053836	 0.000068
C	 -0.318135	 -0.576402	 0.000164
O	 2.055036	 -0.453294	 0.380472
C	 -1.454360	 0.441875	 -0.000474
H	 -0.374042	 -1.230163	 -0.866135
H	 -0.374274	 -1.229227	 0.867154
C	 -2.826123	 -0.230780	 0.000056
H	 -1.357605	 1.085198	 -0.868380
H	 -1.357504	 1.086451	 0.866496
H	 -2.959731	 -0.858053	 -0.876869
H	 -3.619374	 0.509403	 -0.000080
H	 -2.959371	 -0.857318	 0.877556

	symmetry c1
}
set optking {
	frozen_dihedral = ("
		7 4 6 10,
		1 2 3 5
	")
}

ee = energy('scf')
oeprop('DIPOLE', 'QUADRUPOLE', 'MULLIKEN_CHARGES')
f=open( 'psi4out.xyz', 'w' )
f.write( "14  " )
f.write( str(ee) + "\n" )
f.write( MOL.save_string_xyz() )
f.close()
--------------------------------------------------------------------------

    Molecular point group: c1

    Geometry (in Angstrom), charge = 0, multiplicity = 1:

       Center              X                  Y                   Z               Mass
    ------------   -----------------  -----------------  -----------------  -----------------
           H          1.960596327818     1.527994563924    -0.441720984819     1.007825032070
           O          1.074259327818     1.180675563924    -0.465470984819    15.994914619560
           C          1.101898327818    -0.057794436076     0.025504015181    12.000000000000
           C         -0.266728672182    -0.688032436076     0.025600015181    12.000000000000
           O          2.106442327818    -0.564924436076     0.405908015181    15.994914619560
           C         -1.402953672182     0.330244563924     0.024962015181    12.000000000000
           H         -0.322635672182    -1.341793436076    -0.840698984819     1.007825032070
           H         -0.322867672182    -1.340857436076     0.892590015181     1.007825032070
           C         -2.774716672182    -0.342410436076     0.025492015181    12.000000000000
           H         -1.306198672182     0.973567563924    -0.842943984819     1.007825032070
           H         -1.306097672182     0.974820563924     0.891932015181     1.007825032070
           H         -2.908324672182    -0.969683436076    -0.851432984819     1.007825032070
           H         -3.567967672182     0.397772563924     0.025356015181     1.007825032070
           H         -2.907964672182    -0.968948436076     0.902992015181     1.007825032070

  Charge       = 0
  Multiplicity = 1
  Basis Set: 6-31G*
  Basis Set:

    Orbital Energies (a.u.)
    -----------------------

    Doubly Occupied:

       1A    -20.614372     2A    -20.549516     3A    -11.381769
       4A    -11.240882     5A    -11.228275     6A    -11.218487
       7A     -1.475546     8A     -1.365426     9A     -1.086357
      10A     -0.978129    11A     -0.844712    12A     -0.818839
      13A     -0.700454    14A     -0.681213    15A     -0.662750
      16A     -0.616810    17A     -0.589767    18A     -0.565763
      19A     -0.548795    20A     -0.524312    21A     -0.498067
      22A     -0.488431    23A     -0.469546    24A     -0.436968

  @DF-RHF Final Energy:  -305.87748793713587

   => Energetics <=

    Nuclear Repulsion Energy =            241.5157638349116382
    One-Electron Energy =                -895.6160016497800598
    Two-Electron Energy =                 348.2227498777326105
    DFT Exchange-Correlation Energy =       0.0000000000000000
    Empirical Dispersion Energy =           0.0000000000000000
    PCM Polarization Energy =               0.0000000000000000
    EFP Energy =                            0.0000000000000000
    Total Energy =                       -305.8774879371358679

  Mulliken Charges: (a.u.)
   Center  Symbol    Alpha    Beta     Spin     Total
       1     H     0.26741  0.26741  0.00000  0.46517
       2     O     4.34869  4.34869  0.00000 -0.69739
       3     C     2.62142  2.62142  0.00000  0.75715
       4     C     3.21252  3.21252  0.00000 -0.42504
       5     O     4.28150  4.28150  0.00000 -0.56301
       6     C     3.15559  3.15559  0.00000 -0.31118
       7     H     0.39765  0.39765  0.00000  0.20469
       8     H     0.39659  0.39659  0.00000  0.20682
       9     C     3.24275  3.24275  0.00000 -0.48549
      10     H     0.40584  0.40584  0.00000  0.18831
      11     H     0.41487  0.41487  0.00000  0.17025
      12     H     0.42021  0.42021  0.00000  0.15958
      13     H     0.41499  0.41499  0.00000  0.17003
      14     H     0.41995  0.41995  0.00000  0.16010

   Total alpha = 24.00000, Total beta = 24.00000, Total charge =  0.00000
