  ==> Input File <==

--------------------------------------------------------------------------
set {
	reference rhf
	basis cc-pvtz
}

set_num_threads( 4 )
memory 2 gb

molecule MOL {
0 1

O	 0.843598	 1.893167	 0.457532
C	 0.037563	 1.837416	 1.322553
C	 -1.228176	 1.019986	 1.288245
O	 0.148721	 2.503678	 2.460145
C	 -1.413045	 0.229353	 0.001137
H	 -1.210245	 0.364654	 2.152941
H	 -2.055458	 1.702714	 1.452407
C	 -2.702562	 -0.586401	 0.000228
H	 -0.562552	 -0.427984	 -0.140674
H	 -1.409225	 0.911265	 -0.841790
C	 -3.953810	 0.284959	 -0.000782
H	 -2.717793	 -1.238567	 -0.869075
H	 -2.719108	 -1.238472	 0.869576
H	 -3.983727	 0.924403	 -0.876454
H	 -4.852989	 -0.320147	 -0.001515
H	 -3.985140	 0.924399	 0.874841
C	 1.293832	 3.314791	 2.627875
H	 2.193451	 2.719431	 2.578269
H	 1.199152	 3.765490	 3.602438
H	 1.334684	 4.079099	 1.866043

	symmetry c1
}
set optking {
	frozen_dihedral = ("
		9 5 8 12
	")
}

ee = optimize('scf')
oeprop('DIPOLE', 'QUADRUPOLE', 'MULLIKEN_CHARGES')
f=open( 'psi4out.xyz', 'w' )
f.write( "20  " )
f.write( str(ee) + "\n" )
f.write( MOL.save_string_xyz() )
f.close()
--------------------------------------------------------------------------

    Molecular point group: c1
  Charge       = 0
  Multiplicity = 1
  Basis Set: CC-PVTZ
  Basis Set:
  @DF-RHF Final Energy:  -384.08100988667388
    Total Energy =                       -384.0810098866738826
    Molecular point group: c1
  Basis Set: CC-PVTZ
  Basis Set:
  Basis Set: CC-PVTZ
  Basis Set:
  @DF-RHF Final Energy:  -384.08141707102271
    Total Energy =                       -384.0814170710225426
  Basis Set: CC-PVTZ
  Basis Set:
  Basis Set: CC-PVTZ
  Basis Set:
  @DF-RHF Final Energy:  -384.08159758485760
    Total Energy =                       -384.0815975848573771
  Basis Set: CC-PVTZ
  Basis Set:
  Basis Set: CC-PVTZ
  Basis Set:
  @DF-RHF Final Energy:  -384.08131630567851
    Total Energy =                       -384.0813163056791382
  Basis Set: CC-PVTZ
  Basis Set:
  Basis Set: CC-PVTZ
  Basis Set:
  @DF-RHF Final Energy:  -384.08161001461019
    Total Energy =                       -384.0816100146105327
  Basis Set: CC-PVTZ
  Basis Set:
  Charge       = 0
  Multiplicity = 1
  Basis Set: CC-PVTZ
  Basis Set:

    Orbital Energies (a.u.)
    -----------------------

    Doubly Occupied:

       1A    -20.596304     2A    -20.534157     3A    -11.364646
       4A    -11.278483     5A    -11.233485     6A    -11.218678
       7A    -11.217485     8A    -11.210739     9A     -1.472226
      10A     -1.365818    11A     -1.089842    12A     -1.023732
      13A     -0.968692    14A     -0.895441    15A     -0.800601
      16A     -0.766277    17A     -0.703658    18A     -0.685970
      19A     -0.676084    20A     -0.635037    21A     -0.612279
      22A     -0.596084    23A     -0.570859    24A     -0.549978
      25A     -0.534973    26A     -0.524451    27A     -0.510017
      28A     -0.475223    29A     -0.472751    30A     -0.468487
      31A     -0.459096    32A     -0.440864

  @DF-RHF Final Energy:  -384.08161165007868

   => Energetics <=

    Nuclear Repulsion Energy =            385.3303073613710694
    One-Electron Energy =               -1286.9190002292159534
    Two-Electron Energy =                 517.5070812177665402
    DFT Exchange-Correlation Energy =       0.0000000000000000
    Empirical Dispersion Energy =           0.0000000000000000
    PCM Polarization Energy =               0.0000000000000000
    EFP Energy =                            0.0000000000000000
    Total Energy =                       -384.0816116500783437
    Molecular point group: c1
  Basis Set: CC-PVTZ
  Basis Set:

  -Total Gradient:
     Atom            X                  Y                   Z
    ------   -----------------  -----------------  -----------------
       1       -0.000003388376     0.000000315725    -0.000018197615
       2        0.000007355688     0.000002659783     0.000021915223
       3        0.000019941184    -0.000022083281     0.000004906554
       4       -0.000010747283    -0.000002552215    -0.000005216697
       5        0.000022952753    -0.000033362456     0.000199288609
       6       -0.000005177063     0.000000001305     0.000005072971
       7        0.000000283255    -0.000001251801    -0.000012289520
       8       -0.000082660341     0.000139980696    -0.000114710213
       9       -0.000009014965     0.000033929165    -0.000145559110
      10        0.000007067124     0.000004014356    -0.000005718668
      11       -0.000016704919     0.000000494896    -0.000009862492
      12        0.000060831897    -0.000102773278     0.000088401863
      13       -0.000007728068    -0.000010081307    -0.000000888931
      14        0.000001316263     0.000002628605    -0.000005752501
      15       -0.000001512806    -0.000003037816     0.000003127665
      16        0.000015869024    -0.000008351815    -0.000005047505
      17        0.000007142763    -0.000000639377     0.000002387086
      18       -0.000001645082     0.000001367048    -0.000000342252
      19       -0.000002410412    -0.000000428645    -0.000000426088
      20       -0.000001770632    -0.000000829590    -0.000001088380

  **** Optimization is complete! (in 6 steps) ****
    Final optimized geometry and variables:
    Molecular point group: c1

    Geometry (in Angstrom), charge = 0, multiplicity = 1:

    O            1.712821878042     0.522376446160    -0.566236084618
    C            0.896785946119     0.504072203603     0.290921468492
    C           -0.395825169972    -0.270642632026     0.254801954254
    O            1.018688204994     1.181074714023     1.421232339301
    C           -0.585582226330    -1.074885989807    -1.024932121310
    H           -0.406479485176    -0.916240529433     1.127300321069
    H           -1.195010486373     0.445176678791     0.406039008717
    C           -1.858434974638    -1.922418154763    -1.035501092716
    H            0.273245701749    -1.721061176032    -1.159148573749
    H           -0.587551317826    -0.400825369672    -1.874588420691
    C           -3.158833970231    -1.122660091346    -1.059722588102
    H           -1.828452581298    -2.564926148319    -1.909321179750
    H           -1.858543886009    -2.585865857628    -0.174364639062
    H           -3.185002240131    -0.448794025748    -1.909855106713
    H           -4.014558406116    -1.783326462625    -1.136352993662
    H           -3.289183583970    -0.528671660331    -0.162635552476
    C            2.188485416898     1.955652091592     1.590724181866
    H            3.068193904963     1.330136228061     1.557821199153
    H            2.099276685037     2.421656724859     2.558595315249
    H            2.262432430413     2.708423523951     0.819944587200

  Mulliken Charges: (a.u.)
   Center  Symbol    Alpha    Beta     Spin     Total
       1     O     4.19680  4.19680  0.00000 -0.39361
       2     C     2.80482  2.80482  0.00000  0.39036
       3     C     3.10206  3.10206  0.00000 -0.20412
       4     O     4.14712  4.14712  0.00000 -0.29424
       5     C     3.08864  3.08864  0.00000 -0.17729
       6     H     0.44016  0.44016  0.00000  0.11968
       7     H     0.43932  0.43932  0.00000  0.12136
       8     C     3.09424  3.09424  0.00000 -0.18848
       9     H     0.44115  0.44115  0.00000  0.11771
      10     H     0.44662  0.44662  0.00000  0.10677
      11     C     3.15267  3.15267  0.00000 -0.30533
      12     H     0.44569  0.44569  0.00000  0.10862
      13     H     0.45512  0.45512  0.00000  0.08976
      14     H     0.45318  0.45318  0.00000  0.09364
      15     H     0.44556  0.44556  0.00000  0.10889
      16     H     0.45512  0.45512  0.00000  0.08975
      17     C     3.03789  3.03789  0.00000 -0.07578
      18     H     0.45426  0.45426  0.00000  0.09148
      19     H     0.44526  0.44526  0.00000  0.10949
      20     H     0.45433  0.45433  0.00000  0.09134

   Total alpha = 32.00000, Total beta = 32.00000, Total charge = -0.00000
