                              Psi4 1.0.54 Driver

  ==> Input File <==

--------------------------------------------------------------------------
set {
	reference rhf
	basis cc-pvtz
}

set_num_threads( 4 )
memory 2 gb

molecule MOL {
0 1

H	 2.867672	 -0.456275	 0.875795
C	 2.403497	 -0.020426	 0.000000
N	 0.989899	 -0.304564	 0.000000
H	 2.867672	 -0.456275	 -0.875795
H	 2.620366	 1.051270	 0.000000
C	 0.245327	 0.591562	 -0.860313
C	 0.427662	 -0.315562	 1.334667
H	 0.345120	 1.631995	 -0.535837
H	 0.635762	 0.523765	 -1.869120
C	 -1.222696	 0.210583	 -0.862604
H	 0.951882	 -1.048945	 1.936389
H	 0.541169	 0.656642	 1.824239
C	 -1.045046	 -0.673233	 1.275978
H	 -1.800008	 0.928510	 -1.428216
H	 -1.343588	 -0.768291	 -1.322267
O	 -1.742348	 0.196137	 0.433891
H	 -1.493946	 -0.594161	 2.256215
H	 -1.156745	 -1.697842	 0.926980

	symmetry c1
}
set optking {
	frozen_dihedral = ("
		6 3 2 5
	")
}

ee,wfn = optimize('scf', return_wfn=True)
oeprop( wfn, 'DIPOLE', 'QUADRUPOLE', 'MULLIKEN_CHARGES')
f=open( 'psi4out.xyz', 'w' )
f.write( "18  " )
f.write( str(ee) + "\n" )
f.write( MOL.save_string_xyz() )
f.close()
--------------------------------------------------------------------------

    Molecular point group: c1
  Charge       = 0
  Multiplicity = 1
  Basis Set: CC-PVTZ
  Basis Set:
  @DF-RHF Final Energy:  -325.14379211438018
    Total Energy =                       -325.1437921143800054
    Molecular point group: c1
  Basis Set: CC-PVTZ
  Basis Set:
  Basis Set: CC-PVTZ
  Basis Set:
  @DF-RHF Final Energy:  -325.14394718141625
    Total Energy =                       -325.1439471814161379
  Basis Set: CC-PVTZ
  Basis Set:
  Basis Set: CC-PVTZ
  Basis Set:
  @DF-RHF Final Energy:  -325.14396166805955
    Total Energy =                       -325.1439616680594895
  Basis Set: CC-PVTZ
  Basis Set:
  Charge       = 0
  Multiplicity = 1
  Basis Set: CC-PVTZ
  Basis Set:

    Orbital Energies (a.u.)
    -----------------------

    Doubly Occupied:

       1A    -20.547444     2A    -15.544772     3A    -11.264288
       4A    -11.264154     5A    -11.242563     6A    -11.242498
       7A    -11.239084     8A     -1.386460     9A     -1.233251
      10A     -1.038821    11A     -0.981822    12A     -0.883539
      13A     -0.869880    14A     -0.775252    15A     -0.684999
      16A     -0.646252    17A     -0.644737    18A     -0.634415
      19A     -0.630541    20A     -0.574001    21A     -0.557891
      22A     -0.541180    23A     -0.527728    24A     -0.501269
      25A     -0.484399    26A     -0.453748    27A     -0.410320
      28A     -0.356498

  @DF-RHF Final Energy:  -325.14396252155717

   => Energetics <=

    Nuclear Repulsion Energy =            341.8692025503566470
    One-Electron Energy =               -1119.7027206235607082
    Two-Electron Energy =                 452.6895555516466061
    DFT Exchange-Correlation Energy =       0.0000000000000000
    Empirical Dispersion Energy =           0.0000000000000000
    PCM Polarization Energy =               0.0000000000000000
    EFP Energy =                            0.0000000000000000
    Total Energy =                       -325.1439625215573983
    Molecular point group: c1
  Basis Set: CC-PVTZ
  Basis Set:

  -Total Gradient:
     Atom            X                  Y                   Z
    ------   -----------------  -----------------  -----------------
       1       -0.000020209328    -0.000014727356    -0.000002518925
       2       -0.000167521650     0.000771973573     0.006836395863
       3        0.000630942883    -0.002874958290    -0.004824027131
       4        0.000007134315    -0.000001438544    -0.000028959423
       5       -0.000013010295     0.000033401800    -0.004537736853
       6       -0.000407982469     0.002094154260     0.002647854142
       7        0.000030691081    -0.000032755200    -0.000110813566
       8        0.000008845526     0.000024619324    -0.000006684897
       9       -0.000002761239     0.000005246193     0.000000480285
      10       -0.000007678867    -0.000017565224    -0.000017939020
      11        0.000001546789     0.000006810143     0.000003156648
      12       -0.000001784737     0.000000248769    -0.000003981341
      13       -0.000034643686     0.000000014977     0.000056691558
      14        0.000000147154     0.000001034854     0.000006153220
      15       -0.000013913417    -0.000007678921    -0.000002962087
      16        0.000009073379    -0.000005337784    -0.000013263633
      17       -0.000023511824    -0.000003366114     0.000009726326
      18        0.000004636387     0.000020323540    -0.000011571165

  **** Optimization is complete! (in 4 steps) ****
    Final optimized geometry and variables:
    Molecular point group: c1

    Geometry (in Angstrom), charge = 0, multiplicity = 1:

    H            2.883776500661    -0.445554904942     0.657263809935
    C            2.400256227388     0.011810730418    -0.194872688458
    N            0.983465451225    -0.279530432251    -0.189197211454
    H            2.855891194722    -0.392608666740    -1.092305250802
    H            2.609558656196     1.083192848488    -0.190515250201
    C            0.241944715893     0.624677817499    -1.045096220885
    C            0.415684817479    -0.269850708383     1.145843734950
    H            0.345594040587     1.660666614619    -0.709465275145
    H            0.635717285360     0.566615677897    -2.053973137240
    C           -1.227281049127     0.249525365345    -1.056920376467
    H            0.932543025856    -0.998520356677     1.758967366714
    H            0.527975378160     0.707507013880     1.625104292643
    C           -1.057632355448    -0.625971239358     1.085246263415
    H           -1.797670510166     0.970658158449    -1.625678625109
    H           -1.349927682268    -0.728378977373    -1.518201892071
    O           -1.753894349137     0.237635732828     0.236571097113
    H           -1.508472553347    -0.541488618249     2.064272337318
    H           -1.167672123660    -1.652863994718     0.742209806215

  Mulliken Charges: (a.u.)
   Center  Symbol    Alpha    Beta     Spin     Total
       1     H     0.45287  0.45287  0.00000  0.09427
       2     C     3.09465  3.09465  0.00000 -0.18930
       3     N     3.61841  3.61841  0.00000 -0.23682
       4     H     0.44971  0.44971  0.00000  0.10058
       5     H     0.46773  0.46773  0.00000  0.06454
       6     C     3.04249  3.04249  0.00000 -0.08498
       7     C     3.03975  3.03975  0.00000 -0.07950
       8     H     0.46770  0.46770  0.00000  0.06459
       9     H     0.45405  0.45405  0.00000  0.09191
      10     C     2.98360  2.98360  0.00000  0.03279
      11     H     0.45398  0.45398  0.00000  0.09204
      12     H     0.46952  0.46952  0.00000  0.06096
      13     C     2.98417  2.98417  0.00000  0.03165
      14     H     0.44992  0.44992  0.00000  0.10017
      15     H     0.46749  0.46749  0.00000  0.06502
      16     O     4.18649  4.18649  0.00000 -0.37297
      17     H     0.44979  0.44979  0.00000  0.10043
      18     H     0.46770  0.46770  0.00000  0.06461

   Total alpha = 28.00000, Total beta = 28.00000, Total charge =  0.00000

*** Psi4 exiting successfully. Buy a developer a beer!
