  ==> Input File <==

--------------------------------------------------------------------------
set {
	reference rhf
	basis 6-31G*
}

set_num_threads( 1 )
memory 2 gb

molecule MOL {
0 1

O	 1.846825	 1.296220	 0.000415
C	 1.705091	 0.115954	 0.001797
C	 0.381791	 -0.609817	 0.001258
O	 2.721346	 -0.737485	 -0.000216
C	 -0.823008	 0.326187	 0.001381
H	 0.371250	 -1.265087	 -0.865474
H	 0.370908	 -1.265746	 0.867490
C	 -1.331570	 0.617810	 -1.411199
H	 -0.554605	 1.254426	 0.495872
H	 -1.617451	 -0.113554	 0.596189
C	 -2.539555	 1.556046	 -1.429778
H	 -0.529334	 1.055286	 -2.003676
H	 -1.596826	 -0.317084	 -1.902619
C	 -3.047995	 1.846083	 -2.841379
H	 -2.275429	 2.491438	 -0.941495
H	 -3.342098	 1.120008	 -0.839072
H	 -2.277729	 2.314906	 -3.447275
H	 -3.904153	 2.513199	 -2.821326
H	 -3.352465	 0.932437	 -3.344231
C	 4.024888	 -0.184556	 -0.001949
H	 4.179030	 0.422472	 -0.882452
H	 4.701782	 -1.024608	 -0.003642
H	 4.181981	 0.421185	 0.878906

	symmetry c1
}
set optking {
	frozen_dihedral = ("
		15 11 8 12,
		9 5 8 12,
		1 2 3 6,
		1 2 4 20
	")
}

ee = energy('scf')
oeprop('DIPOLE', 'QUADRUPOLE', 'MULLIKEN_CHARGES')
f=open( 'psi4out.xyz', 'w' )
f.write( "23  " )
f.write( str(ee) + "\n" )
f.write( MOL.save_string_xyz() )
f.close()
--------------------------------------------------------------------------

    Molecular point group: c1

    Geometry (in Angstrom), charge = 0, multiplicity = 1:

       Center              X                  Y                   Z               Mass
    ------------   -----------------  -----------------  -----------------  -----------------
           O          1.479306747158     0.823077845966     0.634386244634    15.994914619560
           C          1.337572747158    -0.357188154034     0.635768244634    12.000000000000
           C          0.014272747158    -1.082959154034     0.635229244634    12.000000000000
           O          2.353827747158    -1.210627154034     0.633755244634    15.994914619560
           C         -1.190526252842    -0.146955154034     0.635352244634    12.000000000000
           H          0.003731747158    -1.738229154034    -0.231502755366     1.007825032070
           H          0.003389747158    -1.738888154034     1.501461244634     1.007825032070
           C         -1.699088252842     0.144667845966    -0.777227755366    12.000000000000
           H         -0.922123252842     0.781283845966     1.129843244634     1.007825032070
           H         -1.984969252842    -0.586696154034     1.230160244634     1.007825032070
           C         -2.907073252842     1.082903845966    -0.795806755366    12.000000000000
           H         -0.896852252842     0.582143845966    -1.369704755366     1.007825032070
           H         -1.964344252842    -0.790226154034    -1.268647755366     1.007825032070
           C         -3.415513252842     1.372940845966    -2.207407755366    12.000000000000
           H         -2.642947252842     2.018295845966    -0.307523755366     1.007825032070
           H         -3.709616252842     0.646865845966    -0.205100755366     1.007825032070
           H         -2.645247252842     1.841763845966    -2.813303755366     1.007825032070
           H         -4.271671252842     2.040056845966    -2.187354755366     1.007825032070
           H         -3.719983252842     0.459294845966    -2.710259755366     1.007825032070
           C          3.657369747158    -0.657698154034     0.632022244634    12.000000000000
           H          3.811511747158    -0.050670154034    -0.248480755366     1.007825032070
           H          4.334263747158    -1.497750154034     0.630329244634     1.007825032070
           H          3.814462747158    -0.051957154034     1.512877244634     1.007825032070

  Charge       = 0
  Multiplicity = 1
  Basis Set: 6-31G*
  Basis Set:

    Orbital Energies (a.u.)
    -----------------------

    Doubly Occupied:

       1A    -20.604399     2A    -20.546481     3A    -11.372987
       4A    -11.281303     5A    -11.234620     6A    -11.217023
       7A    -11.213936     8A    -11.213058     9A    -11.206827
      10A     -1.470138    11A     -1.363855    12A     -1.091424
      13A     -1.041634    14A     -0.986185    15A     -0.930079
      16A     -0.843241    17A     -0.794041    18A     -0.766539
      19A     -0.703717    20A     -0.680867    21A     -0.672419
      22A     -0.638832    23A     -0.613836    24A     -0.599197
      25A     -0.569121    26A     -0.556333    27A     -0.552453
      28A     -0.531443    29A     -0.522941    30A     -0.500043
      31A     -0.488702    32A     -0.467326    33A     -0.463747
      34A     -0.455932    35A     -0.449776    36A     -0.439155

  @DF-RHF Final Energy:  -422.97385999746797

   => Energetics <=

    Nuclear Repulsion Energy =            459.8406843847844243
    One-Electron Energy =               -1487.4619417966505353
    Two-Electron Energy =                 604.6473974143987107
    DFT Exchange-Correlation Energy =       0.0000000000000000
    Empirical Dispersion Energy =           0.0000000000000000
    PCM Polarization Energy =               0.0000000000000000
    EFP Energy =                            0.0000000000000000
    Total Energy =                       -422.9738599974673434

  Mulliken Charges: (a.u.)
   Center  Symbol    Alpha    Beta     Spin     Total
       1     O     4.28587  4.28587  0.00000 -0.57173
       2     C     2.60802  2.60802  0.00000  0.78395
       3     C     3.21039  3.21039  0.00000 -0.42078
       4     O     4.30637  4.30637  0.00000 -0.61274
       5     C     3.15947  3.15947  0.00000 -0.31894
       6     H     0.39893  0.39893  0.00000  0.20213
       7     H     0.39760  0.39760  0.00000  0.20480
       8     C     3.15450  3.15450  0.00000 -0.30900
       9     H     0.40009  0.40009  0.00000  0.19983
      10     H     0.41933  0.41933  0.00000  0.16133
      11     C     3.15251  3.15251  0.00000 -0.30501
      12     H     0.41673  0.41673  0.00000  0.16654
      13     H     0.42570  0.42570  0.00000  0.14861
      14     C     3.23960  3.23960  0.00000 -0.47920
      15     H     0.41936  0.41936  0.00000  0.16128
      16     H     0.42404  0.42404  0.00000  0.15192
      17     H     0.42061  0.42061  0.00000  0.15877
      18     H     0.41932  0.41932  0.00000  0.16136
      19     H     0.42277  0.42277  0.00000  0.15447
      20     C     3.09234  3.09234  0.00000 -0.18468
      21     H     0.40906  0.40906  0.00000  0.18188
      22     H     0.40836  0.40836  0.00000  0.18327
      23     H     0.40903  0.40903  0.00000  0.18193

   Total alpha = 36.00000, Total beta = 36.00000, Total charge =  0.00000
