  ==> Input File <==

--------------------------------------------------------------------------
set {
	reference rhf
	basis 6-31G*
}

set_num_threads( 4 )
memory 2 gb

molecule MOL {
0 1

H	 -3.542881	 0.267597	 -0.614452
O	 -3.108537	 -0.248575	 0.050775
C	 -1.776119	 -0.073162	 0.006514
C	 -1.169707	 0.770702	 -0.919315
C	 -1.009078	 -0.772583	 0.929836
H	 -1.771518	 1.309139	 -1.631508
C	 0.202121	 0.911793	 -0.918050
H	 -1.500071	 -1.417303	 1.633777
C	 0.361808	 -0.620999	 0.918546
H	 0.683276	 1.559441	 -1.626670
C	 0.984182	 0.218375	 0.000000
H	 0.956678	 -1.162782	 1.633853
C	 2.452467	 0.370529	 0.000000
O	 3.228994	 -0.533774	 0.000000
H	 2.809473	 1.405765	 0.000000

	symmetry c1
}
set optking {
	frozen_dihedral = ("
		7 11 13 14
	")
}

ee = optimize('scf')
oeprop('DIPOLE', 'QUADRUPOLE', 'MULLIKEN_CHARGES')
f=open( 'psi4out.xyz', 'w' )
f.write( "15  " )
f.write( str(ee) + "\n" )
f.write( MOL.save_string_xyz() )
f.close()
--------------------------------------------------------------------------

    Molecular point group: c1
  Charge       = 0
  Multiplicity = 1
  Basis Set: 6-31G*
  Basis Set:
  @DF-RHF Final Energy:  -418.28017392367383
    Total Energy =                       -418.2801739236737149
    Molecular point group: c1
  Basis Set: 6-31G*
  Basis Set:
  Basis Set: 6-31G*
  Basis Set:
  @DF-RHF Final Energy:  -418.27977120164388
    Total Energy =                       -418.2797712016437117
  Basis Set: 6-31G*
  Basis Set:
  Basis Set: 6-31G*
  Basis Set:
  @DF-RHF Final Energy:  -418.28108656778170
    Total Energy =                       -418.2810865677816992
  Basis Set: 6-31G*
  Basis Set:
  Basis Set: 6-31G*
  Basis Set:
  @DF-RHF Final Energy:  -418.28148477849294
    Total Energy =                       -418.2814847784926542
  Basis Set: 6-31G*
  Basis Set:
  Basis Set: 6-31G*
  Basis Set:
  @DF-RHF Final Energy:  -418.28149571111260
    Total Energy =                       -418.2814957111129388
  Basis Set: 6-31G*
  Basis Set:
  Charge       = 0
  Multiplicity = 1
  Basis Set: 6-31G*
  Basis Set:

    Orbital Energies (a.u.)
    -----------------------

    Doubly Occupied:

       1A    -20.607215     2A    -20.563263     3A    -11.331208
       4A    -11.318741     5A    -11.260506     6A    -11.253128
       7A    -11.244167     8A    -11.241254     9A    -11.236690
      10A     -1.427671    11A     -1.403138    12A     -1.169244
      13A     -1.040674    14A     -1.035749    15A     -0.890992
      16A     -0.857882    17A     -0.802708    18A     -0.754489
      19A     -0.698134    20A     -0.683524    21A     -0.643448
      22A     -0.627480    23A     -0.607050    24A     -0.604577
      25A     -0.587566    26A     -0.558783    27A     -0.537085
      28A     -0.504813    29A     -0.487047    30A     -0.420574
      31A     -0.355206    32A     -0.325069

  @DF-RHF Final Energy:  -418.28149726848551

   => Energetics <=

    Nuclear Repulsion Energy =            401.1692458551972322
    One-Electron Energy =               -1364.7433415373507160
    Two-Electron Energy =                 545.2925984136680881
    DFT Exchange-Correlation Energy =       0.0000000000000000
    Empirical Dispersion Energy =           0.0000000000000000
    PCM Polarization Energy =               0.0000000000000000
    EFP Energy =                            0.0000000000000000
    Total Energy =                       -418.2814972684853956
    Molecular point group: c1
  Basis Set: 6-31G*
  Basis Set:

  -Total Gradient:
     Atom            X                  Y                   Z
    ------   -----------------  -----------------  -----------------
       1        0.000003258721     0.000000698448     0.000013469768
       2       -0.000021428086     0.000056110338    -0.000020106432
       3        0.000046077745    -0.000252629378     0.000098372044
       4        0.000162610920     0.000108965711    -0.000019845272
       5       -0.000217560493     0.000087011718    -0.000092936612
       6       -0.000025978115    -0.000009134777     0.000017481488
       7       -0.000045356998    -0.005872489346    -0.004395603082
       8        0.000016420075     0.000001343103    -0.000002316925
       9        0.000163895769     0.000154375156    -0.000031948472
      10        0.000014323859     0.000013808054    -0.000001264644
      11       -0.000341472148     0.008149805410     0.002531809289
      12       -0.000009743907    -0.000004157955    -0.000025200431
      13        0.000596561402    -0.001891621634     0.010768446302
      14       -0.000378503533    -0.000534536501    -0.008847810054
      15        0.000036894784    -0.000007548345     0.000007453031

  **** Optimization is complete! (in 6 steps) ****
    Final optimized geometry and variables:
    Molecular point group: c1

    Geometry (in Angstrom), charge = 0, multiplicity = 1:

    H           -3.535174981522     0.233327865594    -0.667665444915
    O           -3.103216589451    -0.272106674792     0.006978275460
    C           -1.771603644527    -0.070726662718    -0.016551313222
    C           -1.164095887388     0.783246256022    -0.923727791774
    C           -1.005335774248    -0.763536183296     0.915934848544
    H           -1.755565697170     1.306129340558    -1.655692647610
    C            0.209341739948     0.957170197072    -0.883448361527
    H           -1.496881437926    -1.427503762695     1.601760207633
    C            0.361703564563    -0.600906999654     0.926954318978
    H            0.673779580223     1.625810912560    -1.588004013051
    C            0.982977842827     0.286475508269     0.049449574365
    H            0.962013590104    -1.159090899481     1.621661904082
    C            2.465622995115     0.371795218410    -0.019134967679
    O            3.187588568072    -0.573729831994     0.010814932509
    H            2.876778657938     1.372929883630    -0.183557048332

  Mulliken Charges: (a.u.)
   Center  Symbol    Alpha    Beta     Spin     Total
       1     H     0.26950  0.26950  0.00000  0.46100
       2     O     4.37413  4.37413  0.00000 -0.74827
       3     C     2.78820  2.78820  0.00000  0.42361
       4     C     3.14561  3.14561  0.00000 -0.29122
       5     C     3.12514  3.12514  0.00000 -0.25028
       6     H     0.39954  0.39954  0.00000  0.20092
       7     C     3.09391  3.09391  0.00000 -0.18782
       8     H     0.38614  0.38614  0.00000  0.22772
       9     C     3.08225  3.08225  0.00000 -0.16450
      10     H     0.39151  0.39151  0.00000  0.21697
      11     C     3.05291  3.05291  0.00000 -0.10583
      12     H     0.38233  0.38233  0.00000  0.23534
      13     C     2.84747  2.84747  0.00000  0.30506
      14     O     4.23498  4.23498  0.00000 -0.46995
      15     H     0.42638  0.42638  0.00000  0.14724

   Total alpha = 32.00000, Total beta = 32.00000, Total charge = -0.00000
