  ==> Input File <==

--------------------------------------------------------------------------
set {
	reference rhf
	basis 6-31G*
}

set_num_threads( 1 )
memory 2 gb

molecule MOL {
0 1

O	 2.862325	 1.357334	 0.000267
C	 2.843464	 0.164689	 -0.000222
C	 1.546494	 -0.624492	 -0.000609
C	 4.124123	 -0.644674	 -0.000428
C	 0.291004	 0.242674	 0.000989
H	 1.557904	 -1.283758	 -0.867573
H	 1.558622	 -1.285963	 0.864672
C	 -0.963549	 -0.541333	 -0.387847
H	 0.432603	 1.074875	 -0.681302
H	 0.162331	 0.680557	 0.985798
C	 -2.228620	 0.318502	 -0.390949
H	 -0.826328	 -0.980601	 -1.374893
H	 -1.098658	 -1.375299	 0.299403
C	 -3.487804	 -0.458572	 -0.779054
H	 -2.094954	 1.152105	 -1.078161
H	 -2.367277	 0.757441	 0.595511
C	 -4.747270	 0.407122	 -0.780105
H	 -3.350856	 -0.896814	 -1.765468
H	 -3.623318	 -1.291229	 -0.091903
H	 -4.656493	 1.230283	 -1.483180
H	 -5.622499	 -0.171319	 -1.059536
H	 -4.931555	 0.832145	 0.202514
H	 4.165367	 -1.288615	 -0.874074
H	 4.976217	 0.020734	 -0.001915
H	 4.166763	 -1.286207	 0.874930

	symmetry c1
}
set optking {
	frozen_dihedral = ("
		9 5 8 12,
		15 11 8 12,
		15 11 14 18,
		1 2 3 6
	")
}

ee = energy('scf')
oeprop('DIPOLE', 'QUADRUPOLE', 'MULLIKEN_CHARGES')
f=open( 'psi4out.xyz', 'w' )
f.write( "25  " )
f.write( str(ee) + "\n" )
f.write( MOL.save_string_xyz() )
f.close()
--------------------------------------------------------------------------

    Molecular point group: c1

    Geometry (in Angstrom), charge = 0, multiplicity = 1:

       Center              X                  Y                   Z               Mass
    ------------   -----------------  -----------------  -----------------  -----------------
           O          2.841452233923     1.326631603849     0.262148541849    15.994914619560
           C          2.822591233923     0.133986603849     0.261659541849    12.000000000000
           C          1.525621233923    -0.655194396151     0.261272541849    12.000000000000
           C          4.103250233923    -0.675376396151     0.261453541849    12.000000000000
           C          0.270131233923     0.211971603849     0.262870541849    12.000000000000
           H          1.537031233923    -1.314460396151    -0.605691458151     1.007825032070
           H          1.537749233923    -1.316665396151     1.126553541849     1.007825032070
           C         -0.984421766077    -0.572035396151    -0.125965458151    12.000000000000
           H          0.411730233923     1.044172603849    -0.419420458151     1.007825032070
           H          0.141458233923     0.649854603849     1.247679541849     1.007825032070
           C         -2.249492766077     0.287799603849    -0.129067458151    12.000000000000
           H         -0.847200766077    -1.011303396151    -1.113011458151     1.007825032070
           H         -1.119530766077    -1.406001396151     0.561284541849     1.007825032070
           C         -3.508676766077    -0.489274396151    -0.517172458151    12.000000000000
           H         -2.115826766077     1.121402603849    -0.816279458151     1.007825032070
           H         -2.388149766077     0.726738603849     0.857392541849     1.007825032070
           C         -4.768142766077     0.376419603849    -0.518223458151    12.000000000000
           H         -3.371728766077    -0.927516396151    -1.503586458151     1.007825032070
           H         -3.644190766077    -1.321931396151     0.169978541849     1.007825032070
           H         -4.677365766077     1.199580603849    -1.221298458151     1.007825032070
           H         -5.643371766077    -0.202021396151    -0.797654458151     1.007825032070
           H         -4.952427766077     0.801442603849     0.464395541849     1.007825032070
           H          4.144494233923    -1.319317396151    -0.612192458151     1.007825032070
           H          4.955344233923    -0.009968396151     0.259966541849     1.007825032070
           H          4.145890233923    -1.316909396151     1.136811541849     1.007825032070

  Charge       = 0
  Multiplicity = 1
  Basis Set: 6-31G*
  Basis Set:

    Orbital Energies (a.u.)
    -----------------------

    Doubly Occupied:

       1A    -20.550584     2A    -11.326473     3A    -11.231625
       4A    -11.228459     5A    -11.216750     6A    -11.215874
       7A    -11.215200     8A    -11.213269     9A    -11.208185
      10A     -1.395991    11A     -1.093406    12A     -1.056195
      13A     -1.014501    14A     -0.969150    15A     -0.890534
      16A     -0.814058    17A     -0.790710    18A     -0.729915
      19A     -0.662522    20A     -0.650882    21A     -0.631871
      22A     -0.624061    23A     -0.595751    24A     -0.584115
      25A     -0.567296    26A     -0.559650    27A     -0.539438
      28A     -0.526036    29A     -0.512784    30A     -0.491296
      31A     -0.486252    32A     -0.472691    33A     -0.463785
      34A     -0.461808    35A     -0.450103    36A     -0.399760

  @DF-RHF Final Energy:  -387.13570637324955

   => Energetics <=

    Nuclear Repulsion Energy =            438.5912395425415866
    One-Electron Energy =               -1393.7719156256548558
    Two-Electron Energy =                 568.0449697098647448
    DFT Exchange-Correlation Energy =       0.0000000000000000
    Empirical Dispersion Energy =           0.0000000000000000
    PCM Polarization Energy =               0.0000000000000000
    EFP Energy =                            0.0000000000000000
    Total Energy =                       -387.1357063732484676

  Mulliken Charges: (a.u.)
   Center  Symbol    Alpha    Beta     Spin     Total
       1     O     4.26088  4.26088  0.00000 -0.52176
       2     C     2.73639  2.73639  0.00000  0.52722
       3     C     3.21149  3.21149  0.00000 -0.42299
       4     C     3.28666  3.28666  0.00000 -0.57332
       5     C     3.14945  3.14945  0.00000 -0.29890
       6     H     0.40995  0.40995  0.00000  0.18009
       7     H     0.40912  0.40912  0.00000  0.18176
       8     C     3.15439  3.15439  0.00000 -0.30877
       9     H     0.40633  0.40633  0.00000  0.18733
      10     H     0.41590  0.41590  0.00000  0.16820
      11     C     3.15085  3.15085  0.00000 -0.30171
      12     H     0.42441  0.42441  0.00000  0.15118
      13     H     0.42522  0.42522  0.00000  0.14955
      14     C     3.15149  3.15149  0.00000 -0.30297
      15     H     0.42196  0.42196  0.00000  0.15607
      16     H     0.42294  0.42294  0.00000  0.15413
      17     C     3.23932  3.23932  0.00000 -0.47865
      18     H     0.42348  0.42348  0.00000  0.15305
      19     H     0.42363  0.42363  0.00000  0.15273
      20     H     0.42125  0.42125  0.00000  0.15750
      21     H     0.41956  0.41956  0.00000  0.16088
      22     H     0.42152  0.42152  0.00000  0.15695
      23     H     0.40872  0.40872  0.00000  0.18256
      24     H     0.39644  0.39644  0.00000  0.20711
      25     H     0.40863  0.40863  0.00000  0.18274

   Total alpha = 36.00000, Total beta = 36.00000, Total charge =  0.00000
