  ==> Input File <==

--------------------------------------------------------------------------
set {
	reference rhf
	basis 6-31G*
}

set_num_threads( 1 )
memory 2 gb

molecule MOL {
0 1

H	 4.426766	 -0.022299	 -1.270079
C	 3.641817	 -0.526078	 -0.715271
C	 2.348014	 0.286801	 -0.731519
H	 3.496406	 -1.504329	 -1.164835
H	 4.000478	 -0.678679	 0.298792
C	 1.217350	 -0.386724	 0.039429
H	 2.020464	 0.449683	 -1.753561
H	 2.535992	 1.271051	 -0.305718
N	 0.000003	 0.397874	 -0.023260
H	 1.011846	 -1.358388	 -0.401705
H	 1.538348	 -0.576343	 1.069179
C	 -1.217365	 -0.386708	 0.039277
H	 -0.000031	 1.072115	 0.718656
C	 -2.452633	 0.504241	 -0.042481
H	 -1.215291	 -1.074557	 -0.802042
H	 -1.269739	 -1.003477	 0.942735
C	 -3.758029	 -0.289423	 -0.010781
H	 -2.394220	 1.093569	 -0.952170
H	 -2.440793	 1.210787	 0.785871
H	 -3.816659	 -0.981993	 -0.845726
H	 -4.617837	 0.370165	 -0.069296
H	 -3.847478	 -0.867502	 0.904682

	symmetry c1
}
set optking {
	frozen_dihedral = ("
		15 12 14 18
	")
}

ee = energy('scf')
oeprop('DIPOLE', 'QUADRUPOLE', 'MULLIKEN_CHARGES')
f=open( 'psi4out.xyz', 'w' )
f.write( "22  " )
f.write( str(ee) + "\n" )
f.write( MOL.save_string_xyz() )
f.close()
--------------------------------------------------------------------------

    Molecular point group: c1

    Geometry (in Angstrom), charge = 0, multiplicity = 1:

       Center              X                  Y                   Z               Mass
    ------------   -----------------  -----------------  -----------------  -----------------
           H          4.458671830657     0.043204828276    -1.069829253103     1.007825032070
           C          3.673722830657    -0.460574171724    -0.515021253103    12.000000000000
           C          2.379919830657     0.352304828276    -0.531269253103    12.000000000000
           H          3.528311830657    -1.438825171724    -0.964585253103     1.007825032070
           H          4.032383830657    -0.613175171724     0.499041746897     1.007825032070
           C          1.249255830657    -0.321220171724     0.239678746897    12.000000000000
           H          2.052369830657     0.515186828276    -1.553311253103     1.007825032070
           H          2.567897830657     1.336554828276    -0.105468253103     1.007825032070
           N          0.031908830657     0.463377828276     0.176989746897    14.003074004780
           H          1.043751830657    -1.292884171724    -0.201455253103     1.007825032070
           H          1.570253830657    -0.510839171724     1.269428746897     1.007825032070
           C         -1.185459169343    -0.321204171724     0.239526746897    12.000000000000
           H          0.031874830657     1.137618828276     0.918905746897     1.007825032070
           C         -2.420727169343     0.569744828276     0.157768746897    12.000000000000
           H         -1.183385169343    -1.009053171724    -0.601792253103     1.007825032070
           H         -1.237833169343    -0.937973171724     1.142984746897     1.007825032070
           C         -3.726123169343    -0.223919171724     0.189468746897    12.000000000000
           H         -2.362314169343     1.159072828276    -0.751920253103     1.007825032070
           H         -2.408887169343     1.276290828276     0.986120746897     1.007825032070
           H         -3.784753169343    -0.916489171724    -0.645476253103     1.007825032070
           H         -4.585931169343     0.435668828276     0.130953746897     1.007825032070
           H         -3.815572169343    -0.801998171724     1.104931746897     1.007825032070

  Charge       = 0
  Multiplicity = 1
  Basis Set: 6-31G*
  Basis Set:

    Orbital Energies (a.u.)
    -----------------------

    Doubly Occupied:

       1A    -15.532953     2A    -11.238786     3A    -11.237847
       4A    -11.213632     5A    -11.209957     6A    -11.207944
       7A    -11.206530     8A     -1.205528     9A     -1.057662
      10A     -1.024876    11A     -0.927421    12A     -0.869164
      13A     -0.808102    14A     -0.792628    15A     -0.671537
      16A     -0.628294    17A     -0.613997    18A     -0.604163
      19A     -0.577573    20A     -0.560842    21A     -0.534219
      22A     -0.517889    23A     -0.516640    24A     -0.486252
      25A     -0.483017    26A     -0.472530    27A     -0.465149
      28A     -0.450578    29A     -0.356793

  @DF-RHF Final Energy:  -290.38069791537913

   => Energetics <=

    Nuclear Repulsion Energy =            313.5370284739854583
    One-Electron Energy =               -1012.8904965699357490
    Two-Electron Energy =                 408.9727701805725246
    DFT Exchange-Correlation Energy =       0.0000000000000000
    Empirical Dispersion Energy =           0.0000000000000000
    PCM Polarization Energy =               0.0000000000000000
    EFP Energy =                            0.0000000000000000
    Total Energy =                       -290.3806979153778229

  Mulliken Charges: (a.u.)
   Center  Symbol    Alpha    Beta     Spin     Total
       1     H     0.41817  0.41817  0.00000  0.16366
       2     C     3.24507  3.24507  0.00000 -0.49014
       3     C     3.14455  3.14455  0.00000 -0.28909
       4     H     0.42237  0.42237  0.00000  0.15527
       5     H     0.42297  0.42297  0.00000  0.15407
       6     C     3.05478  3.05478  0.00000 -0.10955
       7     H     0.41599  0.41599  0.00000  0.16802
       8     H     0.42529  0.42529  0.00000  0.14943
       9     N     3.85668  3.85668  0.00000 -0.71335
      10     H     0.42251  0.42251  0.00000  0.15498
      11     H     0.43260  0.43260  0.00000  0.13479
      12     C     3.04820  3.04820  0.00000 -0.09640
      13     H     0.33415  0.33415  0.00000  0.33170
      14     C     3.15599  3.15599  0.00000 -0.31197
      15     H     0.42114  0.42114  0.00000  0.15771
      16     H     0.43654  0.43654  0.00000  0.12692
      17     C     3.24328  3.24328  0.00000 -0.48655
      18     H     0.41297  0.41297  0.00000  0.17406
      19     H     0.42669  0.42669  0.00000  0.14662
      20     H     0.42077  0.42077  0.00000  0.15847
      21     H     0.41766  0.41766  0.00000  0.16468
      22     H     0.42165  0.42165  0.00000  0.15670

   Total alpha = 29.00000, Total beta = 29.00000, Total charge =  0.00000
