  ==> Input File <==

--------------------------------------------------------------------------
set {
	reference rhf
	basis 6-31G*
}

set_num_threads( 1 )
memory 2 gb

molecule MOL {
0 1

H	 -3.161837	 0.500524	 -0.000234
C	 -2.367097	 -0.232926	 -0.000000
O	 -1.158440	 0.455814	 -0.000122
H	 -2.468853	 -0.861886	 -0.882833
H	 -2.468942	 -0.861421	 0.883154
C	 -0.029776	 -0.365156	 0.000148
C	 0.063042	 -1.070455	 1.342012
H	 0.867121	 0.229660	 -0.177815
H	 -0.096482	 -1.095287	 -0.807544
C	 1.275835	 -1.995477	 1.433375
H	 0.105332	 -0.318477	 2.123935
H	 -0.851474	 -1.634216	 1.498644
H	 2.204128	 -1.446100	 1.303445
H	 1.317004	 -2.485613	 2.400287
H	 1.240915	 -2.770890	 0.673165

	symmetry c1
}
set optking {
	frozen_dihedral = ("
		6 3 2 4,
		11 7 6 8
	")
}

ee = energy('scf')
oeprop('DIPOLE', 'QUADRUPOLE', 'MULLIKEN_CHARGES')
f=open( 'psi4out.xyz', 'w' )
f.write( "15  " )
f.write( str(ee) + "\n" )
f.write( MOL.save_string_xyz() )
f.close()
--------------------------------------------------------------------------

    Molecular point group: c1

    Geometry (in Angstrom), charge = 0, multiplicity = 1:

       Center              X                  Y                   Z               Mass
    ------------   -----------------  -----------------  -----------------  -----------------
           H         -2.695215735206     1.141852581949    -0.545283735950     1.007825032070
           C         -1.900475735206     0.408402581949    -0.545049735950    12.000000000000
           O         -0.691818735206     1.097142581949    -0.545171735950    15.994914619560
           H         -2.002231735206    -0.220557418051    -1.427882735950     1.007825032070
           H         -2.002320735206    -0.220092418051     0.338104264050     1.007825032070
           C          0.436845264794     0.276172581949    -0.544901735950    12.000000000000
           C          0.529663264794    -0.429126418051     0.796962264050    12.000000000000
           H          1.333742264794     0.870988581949    -0.722864735950     1.007825032070
           H          0.370139264794    -0.453958418051    -1.352593735950     1.007825032070
           C          1.742456264794    -1.354148418051     0.888325264050    12.000000000000
           H          0.571953264794     0.322851581949     1.578885264050     1.007825032070
           H         -0.384852735206    -0.992887418051     0.953594264050     1.007825032070
           H          2.670749264794    -0.804771418051     0.758395264050     1.007825032070
           H          1.783625264794    -1.844284418051     1.855237264050     1.007825032070
           H          1.707536264794    -2.129561418051     0.128115264050     1.007825032070

  Charge       = 0
  Multiplicity = 1
  Basis Set: 6-31G*
  Basis Set:

    Orbital Energies (a.u.)
    -----------------------

    Doubly Occupied:

       1A    -20.552440     2A    -11.266981     3A    -11.263345
       4A    -11.214410     5A    -11.213760     6A     -1.379132
       7A     -1.055877     8A     -0.958713     9A     -0.886198
      10A     -0.804723    11A     -0.672925    12A     -0.659277
      13A     -0.633916    14A     -0.600908    15A     -0.567633
      16A     -0.530588    17A     -0.524268    18A     -0.499967
      19A     -0.483571    20A     -0.454189    21A     -0.405180

  @DF-RHF Final Energy:  -232.13229672927599

   => Energetics <=

    Nuclear Repulsion Energy =            193.5134184728522087
    One-Electron Energy =                -698.0354346654949040
    Two-Electron Energy =                 272.3897194633667027
    DFT Exchange-Correlation Energy =       0.0000000000000000
    Empirical Dispersion Energy =           0.0000000000000000
    PCM Polarization Energy =               0.0000000000000000
    EFP Energy =                            0.0000000000000000
    Total Energy =                       -232.1322967292759927

  Mulliken Charges: (a.u.)
   Center  Symbol    Alpha    Beta     Spin     Total
       1     H     0.41108  0.41108  0.00000  0.17785
       2     C     3.08363  3.08363  0.00000 -0.16726
       3     O     4.30353  4.30353  0.00000 -0.60705
       4     H     0.43029  0.43029  0.00000  0.13942
       5     H     0.42894  0.42894  0.00000  0.14212
       6     C     2.98957  2.98957  0.00000  0.02086
       7     C     3.16730  3.16730  0.00000 -0.33459
       8     H     0.41488  0.41488  0.00000  0.17024
       9     H     0.43249  0.43249  0.00000  0.13502
      10     C     3.24656  3.24656  0.00000 -0.49312
      11     H     0.41373  0.41373  0.00000  0.17255
      12     H     0.41993  0.41993  0.00000  0.16014
      13     H     0.42030  0.42030  0.00000  0.15940
      14     H     0.41647  0.41647  0.00000  0.16705
      15     H     0.42131  0.42131  0.00000  0.15738

   Total alpha = 21.00000, Total beta = 21.00000, Total charge = -0.00000
