  ==> Input File <==

--------------------------------------------------------------------------
set {
	reference rhf
	basis 6-31G*
}

set_num_threads( 1 )
memory 2 gb

molecule MOL {
0 1

O	 0.625848	 1.349995	 -0.000749
C	 0.486307	 0.169203	 0.000779
C	 1.608116	 -0.841643	 0.000302
O	 -0.698257	 -0.426125	 0.001050
C	 2.990107	 -0.200498	 -0.000684
H	 1.468623	 -1.481519	 -0.865924
H	 1.469683	 -1.481289	 0.866878
H	 3.129736	 0.423364	 -0.875135
H	 3.757882	 -0.966877	 -0.001197
H	 3.130964	 0.423383	 0.873533
C	 -1.819035	 0.338795	 -0.430407
C	 -3.038888	 -0.553586	 -0.341379
H	 -1.645387	 0.678643	 -1.442304
H	 -1.914857	 1.211207	 0.201499
H	 -2.924976	 -1.425333	 -0.975602
H	 -3.920103	 -0.007826	 -0.662712
H	 -3.196050	 -0.889867	 0.677185

	symmetry c1
}
set optking {
	frozen_dihedral = ("
		2 4 11 13,
		4 2 3 6
	")
}

ee = energy('scf')
oeprop('DIPOLE', 'QUADRUPOLE', 'MULLIKEN_CHARGES')
f=open( 'psi4out.xyz', 'w' )
f.write( "17  " )
f.write( str(ee) + "\n" )
f.write( MOL.save_string_xyz() )
f.close()
--------------------------------------------------------------------------

    Molecular point group: c1

    Geometry (in Angstrom), charge = 0, multiplicity = 1:

       Center              X                  Y                   Z               Mass
    ------------   -----------------  -----------------  -----------------  -----------------
           O          0.616916901115     1.367817946636     0.111655164177    15.994914619560
           C          0.477375901115     0.187025946636     0.113183164177    12.000000000000
           C          1.599184901115    -0.823820053364     0.112706164177    12.000000000000
           O         -0.707188098885    -0.408302053364     0.113454164177    15.994914619560
           C          2.981175901115    -0.182675053364     0.111720164177    12.000000000000
           H          1.459691901115    -1.463696053364    -0.753519835823     1.007825032070
           H          1.460751901115    -1.463466053364     0.979282164177     1.007825032070
           H          3.120804901115     0.441186946636    -0.762730835823     1.007825032070
           H          3.748950901115    -0.949054053364     0.111207164177     1.007825032070
           H          3.122032901115     0.441205946636     0.985937164177     1.007825032070
           C         -1.827966098885     0.356617946636    -0.318002835823    12.000000000000
           C         -3.047819098885    -0.535763053364    -0.228974835823    12.000000000000
           H         -1.654318098885     0.696465946636    -1.329899835823     1.007825032070
           H         -1.923788098885     1.229029946636     0.313903164177     1.007825032070
           H         -2.933907098885    -1.407510053364    -0.863197835823     1.007825032070
           H         -3.929034098885     0.009996946636    -0.550307835823     1.007825032070
           H         -3.204981098885    -0.872044053364     0.789589164177     1.007825032070

  Charge       = 0
  Multiplicity = 1
  Basis Set: 6-31G*
  Basis Set:

    Orbital Energies (a.u.)
    -----------------------

    Doubly Occupied:

       1A    -20.598693     2A    -20.545078     3A    -11.371466
       4A    -11.285821     5A    -11.237600     6A    -11.222680
       7A    -11.215705     8A     -1.466867     9A     -1.362068
      10A     -1.069690    11A     -1.032221    12A     -0.910322
      13A     -0.848654    14A     -0.772751    15A     -0.697266
      16A     -0.687283    17A     -0.663855    18A     -0.630160
      19A     -0.586461    20A     -0.568831    21A     -0.558528
      22A     -0.523744    23A     -0.518997    24A     -0.516068
      25A     -0.504390    26A     -0.492848    27A     -0.452124
      28A     -0.435010

  @DF-RHF Final Energy:  -344.90958019422999

   => Energetics <=

    Nuclear Repulsion Energy =            314.6820685718982986
    One-Electron Energy =               -1093.6329178307244092
    Two-Electron Energy =                 434.0412690645963494
    DFT Exchange-Correlation Energy =       0.0000000000000000
    Empirical Dispersion Energy =           0.0000000000000000
    PCM Polarization Energy =               0.0000000000000000
    EFP Energy =                            0.0000000000000000
    Total Energy =                       -344.9095801942297612

  Mulliken Charges: (a.u.)
   Center  Symbol    Alpha    Beta     Spin     Total
       1     O     4.28420  4.28420  0.00000 -0.56840
       2     C     2.60526  2.60526  0.00000  0.78947
       3     C     3.20550  3.20550  0.00000 -0.41100
       4     O     4.31386  4.31386  0.00000 -0.62772
       5     C     3.23896  3.23896  0.00000 -0.47792
       6     H     0.40196  0.40196  0.00000  0.19608
       7     H     0.40006  0.40006  0.00000  0.19989
       8     H     0.41036  0.41036  0.00000  0.17927
       9     H     0.41829  0.41829  0.00000  0.16342
      10     H     0.40964  0.40964  0.00000  0.18071
      11     C     3.00319  3.00319  0.00000 -0.00639
      12     C     3.24842  3.24842  0.00000 -0.49684
      13     H     0.41476  0.41476  0.00000  0.17048
      14     H     0.40598  0.40598  0.00000  0.18804
      15     H     0.41250  0.41250  0.00000  0.17500
      16     H     0.41639  0.41639  0.00000  0.16722
      17     H     0.41066  0.41066  0.00000  0.17868

   Total alpha = 28.00000, Total beta = 28.00000, Total charge =  0.00000
