  ==> Input File <==

--------------------------------------------------------------------------
set {
	reference rhf
	basis 6-31G*
}

set_num_threads( 1 )
memory 2 gb

molecule MOL {
0 1

H	 -2.844648	 -1.392987	 0.643253
O	 -2.019023	 -1.064414	 0.317434
C	 -2.026376	 0.340750	 0.341611
C	 -0.673256	 0.843270	 -0.132153
H	 -2.809464	 0.727084	 -0.308355
H	 -2.226363	 0.704610	 1.348718
C	 0.486613	 -0.083066	 0.235839
H	 -0.715586	 0.970948	 -1.210718
H	 -0.508072	 1.829858	 0.297090
C	 1.840406	 0.433480	 -0.254303
H	 0.300215	 -1.068318	 -0.178947
H	 0.519509	 -0.203625	 1.318070
C	 3.000220	 -0.489290	 0.118523
H	 1.809207	 0.553576	 -1.335192
H	 2.021860	 1.424500	 0.157276
H	 2.864959	 -1.479103	 -0.307933
H	 3.946603	 -0.099227	 -0.243630
H	 3.080049	 -0.602997	 1.196117

	symmetry c1
}
set optking {
	frozen_dihedral = ("
		14 10 7 11,
		10 7 4 8,
		1 2 3 4
	")
}

ee = energy('scf')
oeprop('DIPOLE', 'QUADRUPOLE', 'MULLIKEN_CHARGES')
f=open( 'psi4out.xyz', 'w' )
f.write( "18  " )
f.write( str(ee) + "\n" )
f.write( MOL.save_string_xyz() )
f.close()
--------------------------------------------------------------------------

    Molecular point group: c1

    Geometry (in Angstrom), charge = 0, multiplicity = 1:

       Center              X                  Y                   Z               Mass
    ------------   -----------------  -----------------  -----------------  -----------------
           H         -2.898207661680    -1.357698885274     0.527709976667     1.007825032070
           O         -2.072582661680    -1.029125885274     0.201890976667    15.994914619560
           C         -2.079935661680     0.376038114726     0.226067976667    12.000000000000
           C         -0.726815661680     0.878558114726    -0.247696023333    12.000000000000
           H         -2.863023661680     0.762372114726    -0.423898023333     1.007825032070
           H         -2.279922661680     0.739898114726     1.233174976667     1.007825032070
           C          0.433053338320    -0.047777885274     0.120295976667    12.000000000000
           H         -0.769145661680     1.006236114726    -1.326261023333     1.007825032070
           H         -0.561631661680     1.865146114726     0.181546976667     1.007825032070
           C          1.786846338320     0.468768114726    -0.369846023333    12.000000000000
           H          0.246655338320    -1.033029885274    -0.294490023333     1.007825032070
           H          0.465949338320    -0.168336885274     1.202526976667     1.007825032070
           C          2.946660338320    -0.454001885274     0.002979976667    12.000000000000
           H          1.755647338320     0.588864114726    -1.450735023333     1.007825032070
           H          1.968300338320     1.459788114726     0.041732976667     1.007825032070
           H          2.811399338320    -1.443814885274    -0.423476023333     1.007825032070
           H          3.893043338320    -0.063938885274    -0.359173023333     1.007825032070
           H          3.026489338320    -0.567708885274     1.080573976667     1.007825032070

  Charge       = 0
  Multiplicity = 1
  Basis Set: 6-31G*
  Basis Set:

    Orbital Energies (a.u.)
    -----------------------

    Doubly Occupied:

       1A    -20.553172     2A    -11.267863     3A    -11.211048
       4A    -11.207959     5A    -11.202474     6A    -11.202322
       7A     -1.360635     8A     -1.071814     9A     -1.007393
      10A     -0.912633    11A     -0.816442    12A     -0.780125
      13A     -0.701255    14A     -0.651964    15A     -0.618061
      16A     -0.580459    17A     -0.570425    18A     -0.553056
      19A     -0.518140    20A     -0.501161    21A     -0.489530
      22A     -0.463259    23A     -0.454690    24A     -0.443494
      25A     -0.428002

  @DF-RHF Final Energy:  -271.17515505186373

   => Energetics <=

    Nuclear Repulsion Energy =            250.7526050860616067
    One-Electron Energy =                -864.7207404048820081
    Two-Electron Energy =                 342.7929802669571586
    DFT Exchange-Correlation Energy =       0.0000000000000000
    Empirical Dispersion Energy =           0.0000000000000000
    PCM Polarization Energy =               0.0000000000000000
    EFP Energy =                            0.0000000000000000
    Total Energy =                       -271.1751550518632143

  Mulliken Charges: (a.u.)
   Center  Symbol    Alpha    Beta     Spin     Total
       1     H     0.28053  0.28053  0.00000  0.43894
       2     O     4.37044  4.37044  0.00000 -0.74089
       3     C     2.99316  2.99316  0.00000  0.01369
       4     C     3.16882  3.16882  0.00000 -0.33764
       5     H     0.42909  0.42909  0.00000  0.14181
       6     H     0.43200  0.43200  0.00000  0.13600
       7     C     3.14705  3.14705  0.00000 -0.29409
       8     H     0.41949  0.41949  0.00000  0.16102
       9     H     0.42256  0.42256  0.00000  0.15488
      10     C     3.15201  3.15201  0.00000 -0.30402
      11     H     0.40530  0.40530  0.00000  0.18940
      12     H     0.42562  0.42562  0.00000  0.14877
      13     C     3.23852  3.23852  0.00000 -0.47705
      14     H     0.42436  0.42436  0.00000  0.15129
      15     H     0.42633  0.42633  0.00000  0.14733
      16     H     0.42116  0.42116  0.00000  0.15767
      17     H     0.42105  0.42105  0.00000  0.15791
      18     H     0.42251  0.42251  0.00000  0.15499

   Total alpha = 25.00000, Total beta = 25.00000, Total charge =  0.00000
