  ==> Input File <==

--------------------------------------------------------------------------
set {
	reference rhf
	basis 6-31G*
}

set_num_threads( 1 )
memory 2 gb

molecule MOL {
0 1

H	 3.463771	 0.168298	 -0.756243
C	 2.752674	 -0.045734	 0.033351
C	 1.322923	 0.120767	 -0.479465
H	 2.934561	 -1.059086	 0.377456
H	 2.958358	 0.631174	 0.856809
C	 0.306652	 -0.176050	 0.621399
H	 1.144658	 -0.551717	 -1.312180
H	 1.166477	 1.131798	 -0.836680
N	 -1.068537	 -0.011044	 0.085269
H	 0.372515	 -1.192590	 0.973735
H	 0.391664	 0.520566	 1.441230
O	 -1.520270	 -0.907443	 -0.557987
O	 -1.615970	 1.025271	 0.309756

	symmetry c1
}
set optking {
	frozen_dihedral = ("
		7 3 6 9
	")
}

ee = energy('scf')
oeprop('DIPOLE', 'QUADRUPOLE', 'MULLIKEN_CHARGES')
f=open( 'psi4out.xyz', 'w' )
f.write( "13  " )
f.write( str(ee) + "\n" )
f.write( MOL.save_string_xyz() )
f.close()
--------------------------------------------------------------------------

    Molecular point group: c1

    Geometry (in Angstrom), charge = 0, multiplicity = 1:

       Center              X                  Y                   Z               Mass
    ------------   -----------------  -----------------  -----------------  -----------------
           H          3.463888025895     0.166462052017    -0.757107304217     1.007825032070
           C          2.752791025895    -0.047569947983     0.032486695783    12.000000000000
           C          1.323040025895     0.118931052017    -0.480329304217    12.000000000000
           H          2.934678025895    -1.060921947983     0.376591695783     1.007825032070
           H          2.958475025895     0.629338052017     0.855944695783     1.007825032070
           C          0.306769025895    -0.177885947983     0.620534695783    12.000000000000
           H          1.144775025895    -0.553552947983    -1.313044304217     1.007825032070
           H          1.166594025895     1.129962052017    -0.837544304217     1.007825032070
           N         -1.068419974105    -0.012879947983     0.084404695783    14.003074004780
           H          0.372632025895    -1.194425947983     0.972870695783     1.007825032070
           H          0.391781025895     0.518730052017     1.440365695783     1.007825032070
           O         -1.520152974105    -0.909278947983    -0.558851304217    15.994914619560
           O         -1.615852974105     1.023435052017     0.308891695783    15.994914619560

  Charge       = 0
  Multiplicity = 1
  Basis Set: 6-31G*
  Basis Set:

    Orbital Energies (a.u.)
    -----------------------

    Doubly Occupied:

       1A    -20.600722     2A    -20.600172     3A    -15.846832
       4A    -11.299123     5A    -11.257295     6A    -11.240163
       7A     -1.630406     8A     -1.415938     9A     -1.135533
      10A     -1.028545    11A     -0.884195    12A     -0.833313
      13A     -0.758239    14A     -0.734389    15A     -0.722865
      16A     -0.672479    17A     -0.604579    18A     -0.588931
      19A     -0.551121    20A     -0.521624    21A     -0.515289
      22A     -0.483463    23A     -0.473561    24A     -0.447711

  @DF-RHF Final Energy:  -321.73553028263575

   => Energetics <=

    Nuclear Repulsion Energy =            247.4057131527055162
    One-Electron Energy =                -928.5895457236737229
    Two-Electron Energy =                 359.4483022883327408
    DFT Exchange-Correlation Energy =       0.0000000000000000
    Empirical Dispersion Energy =           0.0000000000000000
    PCM Polarization Energy =               0.0000000000000000
    EFP Energy =                            0.0000000000000000
    Total Energy =                       -321.7355302826354659

  Mulliken Charges: (a.u.)
   Center  Symbol    Alpha    Beta     Spin     Total
       1     H     0.40727  0.40727  0.00000  0.18546
       2     C     3.24807  3.24807  0.00000 -0.49614
       3     C     3.17321  3.17321  0.00000 -0.34642
       4     H     0.41444  0.41444  0.00000  0.17112
       5     H     0.41473  0.41473  0.00000  0.17055
       6     C     3.08272  3.08272  0.00000 -0.16544
       7     H     0.39742  0.39742  0.00000  0.20515
       8     H     0.40053  0.40053  0.00000  0.19893
       9     N     3.22388  3.22388  0.00000  0.55225
      10     H     0.38908  0.38908  0.00000  0.22184
      11     H     0.38760  0.38760  0.00000  0.22480
      12     O     4.23111  4.23111  0.00000 -0.46222
      13     O     4.22993  4.22993  0.00000 -0.45987

   Total alpha = 24.00000, Total beta = 24.00000, Total charge =  0.00000
