  ==> Input File <==

--------------------------------------------------------------------------
set {
	reference rhf
	basis cc-pvtz
}

set_num_threads( 4 )
memory 2 gb

molecule MOL {
0 1

H	 -2.362939	 -1.309000	 -0.383250
C	 -1.359344	 -1.272457	 0.020748
C	 -0.684082	 0.000127	 -0.464918
H	 -0.825835	 -2.151141	 -0.318537
H	 -1.416276	 -1.292399	 1.099455
C	 -1.359089	 1.272668	 0.021259
N	 0.742439	 -0.000109	 0.007333
H	 -0.596914	 0.000345	 -1.538146
H	 -2.362696	 1.309620	 -0.382686
H	 -0.825392	 2.151374	 -0.317674
H	 -1.415983	 1.292181	 1.099973
O	 0.972785	 0.525815	 1.043668
O	 1.547776	 -0.526353	 -0.686057

	symmetry c1
}
set optking {
	frozen_dihedral = ("
		12 7 3 8
	")
}

ee = optimize('scf')
oeprop('DIPOLE', 'QUADRUPOLE', 'MULLIKEN_CHARGES')
f=open( 'psi4out.xyz', 'w' )
f.write( "13  " )
f.write( str(ee) + "\n" )
f.write( MOL.save_string_xyz() )
f.close()
--------------------------------------------------------------------------

    Molecular point group: c1
  Charge       = 0
  Multiplicity = 1
  Basis Set: CC-PVTZ
  Basis Set:
  @DF-RHF Final Energy:  -321.86368027825762
    Total Energy =                       -321.8636802782577320
    Molecular point group: c1
  Basis Set: CC-PVTZ
  Basis Set:
  Basis Set: CC-PVTZ
  Basis Set:
  @DF-RHF Final Energy:  -321.86124281738114
    Total Energy =                       -321.8612428173809121
  Basis Set: CC-PVTZ
  Basis Set:
  Basis Set: CC-PVTZ
  Basis Set:
  @DF-RHF Final Energy:  -321.86194375134113
    Total Energy =                       -321.8619437513411299
  Basis Set: CC-PVTZ
  Basis Set:
  Basis Set: CC-PVTZ
  Basis Set:
  @DF-RHF Final Energy:  -321.86415164644302
    Total Energy =                       -321.8641516464431334
  Basis Set: CC-PVTZ
  Basis Set:
  Basis Set: CC-PVTZ
  Basis Set:
  @DF-RHF Final Energy:  -321.86417703846814
    Total Energy =                       -321.8641770384681422
  Basis Set: CC-PVTZ
  Basis Set:
  Basis Set: CC-PVTZ
  Basis Set:
  @DF-RHF Final Energy:  -321.86418125307330
    Total Energy =                       -321.8641812530732409
  Basis Set: CC-PVTZ
  Basis Set:
  Charge       = 0
  Multiplicity = 1
  Basis Set: CC-PVTZ
  Basis Set:

    Orbital Energies (a.u.)
    -----------------------

    Doubly Occupied:

       1A    -20.589836     2A    -20.587756     3A    -15.832869
       4A    -11.304760     5A    -11.245362     6A    -11.239176
       7A     -1.633986     8A     -1.418247     9A     -1.142224
      10A     -0.972965    11A     -0.957346    12A     -0.816213
      13A     -0.755431    14A     -0.731663    15A     -0.726134
      16A     -0.648246    17A     -0.594280    18A     -0.587653
      19A     -0.571375    20A     -0.529524    21A     -0.521979
      22A     -0.485053    23A     -0.470749    24A     -0.451828

  @DF-RHF Final Energy:  -321.86418149989112

   => Energetics <=

    Nuclear Repulsion Energy =            257.3813981929634451
    One-Electron Energy =                -948.8618446487954543
    Two-Electron Energy =                 369.6162649559409488
    DFT Exchange-Correlation Energy =       0.0000000000000000
    Empirical Dispersion Energy =           0.0000000000000000
    PCM Polarization Energy =               0.0000000000000000
    EFP Energy =                            0.0000000000000000
    Total Energy =                       -321.8641814998910036
    Molecular point group: c1
  Basis Set: CC-PVTZ
  Basis Set:

  -Total Gradient:
     Atom            X                  Y                   Z
    ------   -----------------  -----------------  -----------------
       1        0.000004501974     0.000003477553     0.000000960723
       2        0.000012611124    -0.000003057654    -0.000003131837
       3        0.000020161551    -0.000661380813    -0.000147317448
       4        0.000001501072    -0.000003579108     0.000000350769
       5       -0.000001954646    -0.000000156854     0.000005233429
       6        0.000003024493     0.000005027231     0.000005039337
       7       -0.000126180219    -0.000834104500     0.000543782040
       8        0.000029393800     0.000786021511    -0.000008448196
       9        0.000007898101    -0.000002759130     0.000000923138
      10       -0.000001162420     0.000002486125     0.000001183409
      11       -0.000001310657     0.000001877729     0.000000830236
      12        0.000093184708     0.000723304341    -0.000342007820
      13       -0.000041668881    -0.000017156431    -0.000057397780

  **** Optimization is complete! (in 7 steps) ****
    Final optimized geometry and variables:
    Molecular point group: c1

    Geometry (in Angstrom), charge = 0, multiplicity = 1:

    H           -2.359871663203    -1.289212272918    -0.352714217644
    C           -1.345432688020    -1.254114768554     0.022144542568
    C           -0.684024213049     0.030848370263    -0.459990347072
    H           -0.814533948721    -2.122955122177    -0.340702693704
    H           -1.378289596183    -1.284634401243     1.103684688505
    C           -1.380773816894     1.290588715233     0.015865449566
    N            0.745129026220    -0.001029590706     0.008937832182
    H           -0.594981209320     0.023425479028    -1.534128817558
    H           -2.370558982926     1.317850551626    -0.422987097930
    H           -0.846094769754     2.177623909379    -0.295960500475
    H           -1.475473698439     1.307437448380     1.091236385001
    O            1.009817556982     0.519299556536     1.039567739148
    O            1.516327366497    -0.577067891201    -0.683450773223

  Mulliken Charges: (a.u.)
   Center  Symbol    Alpha    Beta     Spin     Total
       1     H     0.44845  0.44845  0.00000  0.10310
       2     C     3.14295  3.14295  0.00000 -0.28590
       3     C     3.00768  3.00768  0.00000 -0.01537
       4     H     0.43601  0.43601  0.00000  0.12798
       5     H     0.44303  0.44303  0.00000  0.11394
       6     C     3.14391  3.14391  0.00000 -0.28782
       7     N     3.27416  3.27416  0.00000  0.45168
       8     H     0.42608  0.42608  0.00000  0.14784
       9     H     0.45014  0.45014  0.00000  0.09973
      10     H     0.44058  0.44058  0.00000  0.11883
      11     H     0.43915  0.43915  0.00000  0.12171
      12     O     4.17382  4.17382  0.00000 -0.34765
      13     O     4.17404  4.17404  0.00000 -0.34808

   Total alpha = 24.00000, Total beta = 24.00000, Total charge = -0.00000
