  ==> Input File <==

--------------------------------------------------------------------------
set {
	reference rhf
	basis 6-31G*
}

set_num_threads( 4 )
memory 2 gb

molecule MOL {
0 1

O	 -2.363556	 -0.850313	 -0.699825
C	 -1.880809	 0.109614	 -0.192117
C	 -2.589061	 1.419466	 0.024706
O	 -0.632575	 0.154573	 0.251549
H	 -2.058385	 2.212310	 -0.489812
H	 -3.600785	 1.350292	 -0.346058
H	 -2.596313	 1.661235	 1.081234
C	 0.160891	 -1.019931	 0.106212
C	 1.589627	 -0.672828	 0.480843
H	 0.089836	 -1.367806	 -0.916050
H	 -0.238459	 -1.792301	 0.749618
C	 2.246377	 0.346236	 -0.452210
H	 2.163194	 -1.597435	 0.473358
H	 1.604769	 -0.303424	 1.502885
C	 3.691736	 0.652107	 -0.061850
H	 2.219579	 -0.032311	 -1.472055
H	 1.666466	 1.263317	 -0.447249
H	 4.134505	 1.377213	 -0.737283
H	 4.305508	 -0.243868	 -0.089969
H	 3.748266	 1.059562	 0.943567

	symmetry c1
}
set optking {
	frozen_dihedral = ("
		2 4 8 10
	")
}

ee = optimize('scf')
oeprop('DIPOLE', 'QUADRUPOLE', 'MULLIKEN_CHARGES')
f=open( 'psi4out.xyz', 'w' )
f.write( "20  " )
f.write( str(ee) + "\n" )
f.write( MOL.save_string_xyz() )
f.close()
--------------------------------------------------------------------------

    Molecular point group: c1
  Charge       = 0
  Multiplicity = 1
  Basis Set: 6-31G*
  Basis Set:
  @DF-RHF Final Energy:  -383.94557966486332
    Total Energy =                       -383.9455796648629757
    Molecular point group: c1
  Basis Set: 6-31G*
  Basis Set:
  Basis Set: 6-31G*
  Basis Set:
  @DF-RHF Final Energy:  -383.94543241438936
    Total Energy =                       -383.9454324143890744
  Basis Set: 6-31G*
  Basis Set:
  Basis Set: 6-31G*
  Basis Set:
  @DF-RHF Final Energy:  -383.94557014748790
    Total Energy =                       -383.9455701474877287
  Basis Set: 6-31G*
  Basis Set:
  Basis Set: 6-31G*
  Basis Set:
  @DF-RHF Final Energy:  -383.94559717989711
    Total Energy =                       -383.9455971798968221
  Basis Set: 6-31G*
  Basis Set:
  Charge       = 0
  Multiplicity = 1
  Basis Set: 6-31G*
  Basis Set:

    Orbital Energies (a.u.)
    -----------------------

    Doubly Occupied:

       1A    -20.601811     2A    -20.544058     3A    -11.374607
       4A    -11.282290     5A    -11.233412     6A    -11.225579
       7A    -11.220792     8A    -11.213544     9A     -1.467867
      10A     -1.362267    11A     -1.086101    12A     -1.028339
      13A     -0.981479    14A     -0.880535    15A     -0.810936
      16A     -0.775762    17A     -0.689822    18A     -0.682487
      19A     -0.667375    20A     -0.631853    21A     -0.601319
      22A     -0.592876    23A     -0.572509    24A     -0.549972
      25A     -0.544192    26A     -0.532289    27A     -0.510978
      28A     -0.482704    29A     -0.474892    30A     -0.474779
      31A     -0.448045    32A     -0.438602

  @DF-RHF Final Energy:  -383.94559694005488

   => Energetics <=

    Nuclear Repulsion Energy =            385.4867378421113244
    One-Electron Energy =               -1286.8965175310399900
    Two-Electron Energy =                 517.4641827488740091
    DFT Exchange-Correlation Energy =       0.0000000000000000
    Empirical Dispersion Energy =           0.0000000000000000
    PCM Polarization Energy =               0.0000000000000000
    EFP Energy =                            0.0000000000000000
    Total Energy =                       -383.9455969400546564
    Molecular point group: c1
  Basis Set: 6-31G*
  Basis Set:

  -Total Gradient:
     Atom            X                  Y                   Z
    ------   -----------------  -----------------  -----------------
       1        0.000025060925     0.000013497145    -0.000001371909
       2        0.000160968168     0.000171933279    -0.000551877348
       3        0.000008670189    -0.000000647132    -0.000000139957
       4       -0.000382842138    -0.000378725012     0.000831120823
       5        0.000000255997    -0.000000690366     0.000001517668
       6       -0.000000146969    -0.000001627999     0.000000987406
       7       -0.000001075410     0.000000139411     0.000000625916
       8        0.000735815409     0.000559497330    -0.000434270840
       9        0.000004272368     0.000023436447     0.000003642176
      10       -0.000560841534    -0.000395922743     0.000152044770
      11        0.000010870557    -0.000000541020    -0.000009203915
      12       -0.000003084804     0.000025382149     0.000004322605
      13        0.000001800376     0.000009215407     0.000009688808
      14       -0.000015588140     0.000006711408    -0.000000949141
      15        0.000010021182    -0.000022362255    -0.000018157019
      16       -0.000009054537     0.000002952880    -0.000002194378
      17        0.000013163994    -0.000006064336     0.000019398630
      18        0.000003124046    -0.000006634717    -0.000005355935
      19        0.000007238107    -0.000002087705     0.000006604045
      20       -0.000008627777     0.000002537834    -0.000006432407

  **** Optimization is complete! (in 5 steps) ****
    Final optimized geometry and variables:
    Molecular point group: c1

    Geometry (in Angstrom), charge = 0, multiplicity = 1:

    O           -2.392382156802    -0.877255746500    -0.614983080398
    C           -1.902931506783     0.086293008614    -0.120672967176
    C           -2.607558631386     1.398908599491     0.091895069149
    O           -0.652775758928     0.131857525333     0.317280214827
    H           -2.079415144984     2.187212514185    -0.432063825522
    H           -3.622038736872     1.328539837541    -0.271048410073
    H           -2.606811579505     1.648011120340     1.146774887406
    C            0.144939320060    -1.039180168994     0.166094978793
    C            1.571917925801    -0.691759016464     0.546631953602
    H            0.072907936545    -1.386470632953    -0.855516773633
    H           -0.254607476245    -1.814010070556     0.807665733637
    C            2.231507625159     0.327551926915    -0.383987481632
    H            2.145772184965    -1.616209467170     0.541488846602
    H            1.583357802808    -0.322291014655     1.568631670053
    C            3.676917440363     0.630624830500     0.008484364214
    H            2.205432947141    -0.049718779140    -1.404278233556
    H            1.653059573904     1.245651216466    -0.378533228861
    H            4.122472439829     1.353981093047    -0.666995149805
    H            4.288867433320    -0.266693560432    -0.017492997394
    H            3.732571766598     1.039117170844     1.013515304090

  Mulliken Charges: (a.u.)
   Center  Symbol    Alpha    Beta     Spin     Total
       1     O     4.28329  4.28329  0.00000 -0.56659
       2     C     2.61919  2.61919  0.00000  0.76161
       3     C     3.28172  3.28172  0.00000 -0.56343
       4     O     4.30866  4.30866  0.00000 -0.61733
       5     H     0.40090  0.40090  0.00000  0.19820
       6     H     0.39687  0.39687  0.00000  0.20625
       7     H     0.40049  0.40049  0.00000  0.19901
       8     C     3.00311  3.00311  0.00000 -0.00623
       9     C     3.16463  3.16463  0.00000 -0.32925
      10     H     0.40818  0.40818  0.00000  0.18364
      11     H     0.41020  0.41020  0.00000  0.17961
      12     C     3.15516  3.15516  0.00000 -0.31031
      13     H     0.41827  0.41827  0.00000  0.16347
      14     H     0.41435  0.41435  0.00000  0.17130
      15     C     3.24037  3.24037  0.00000 -0.48073
      16     H     0.42255  0.42255  0.00000  0.15489
      17     H     0.41240  0.41240  0.00000  0.17521
      18     H     0.41752  0.41752  0.00000  0.16495
      19     H     0.42160  0.42160  0.00000  0.15680
      20     H     0.42053  0.42053  0.00000  0.15893

   Total alpha = 32.00000, Total beta = 32.00000, Total charge =  0.00000
