  ==> Input File <==

--------------------------------------------------------------------------
set {
	reference rhf
	basis 6-31G*
}

set_num_threads( 4 )
memory 2 gb

molecule MOL {
0 1

H	 -2.698709	 -0.000305	 0.034435
C	 -1.693833	 0.000034	 0.434417
O	 -0.828952	 -0.000968	 -0.659236
H	 -1.574200	 0.882896	 1.055746
H	 -1.574147	 -0.881698	 1.057355
C	 0.559449	 -0.000018	 -0.420814
C	 1.301867	 1.012792	 -1.290268
C	 0.898914	 0.147765	 1.061037
H	 0.863713	 -0.991812	 -0.733542
H	 0.999024	 0.912137	 -2.326947
H	 2.371789	 0.840054	 -1.229737
H	 1.118587	 2.035783	 -0.977119
H	 0.316667	 -0.551067	 1.651865
H	 1.951309	 -0.063289	 1.223480
H	 0.707126	 1.150743	 1.428586

	symmetry c1
}
set optking {
	frozen_dihedral = ("
		9 6 3 2
	")
}

ee = optimize('scf')
oeprop('DIPOLE', 'QUADRUPOLE', 'MULLIKEN_CHARGES')
f=open( 'psi4out.xyz', 'w' )
f.write( "15  " )
f.write( str(ee) + "\n" )
f.write( MOL.save_string_xyz() )
f.close()
--------------------------------------------------------------------------

    Molecular point group: c1
  Charge       = 0
  Multiplicity = 1
  Basis Set: 6-31G*
  Basis Set:
  @DF-RHF Final Energy:  -232.12880217865228
    Total Energy =                       -232.1288021786522791
    Molecular point group: c1
  Basis Set: 6-31G*
  Basis Set:
  Basis Set: 6-31G*
  Basis Set:
  @DF-RHF Final Energy:  -232.12987889910701
    Total Energy =                       -232.1298788991069273
  Basis Set: 6-31G*
  Basis Set:
  Basis Set: 6-31G*
  Basis Set:
  @DF-RHF Final Energy:  -232.13338436808968
    Total Energy =                       -232.1333843680898781
  Basis Set: 6-31G*
  Basis Set:
  Basis Set: 6-31G*
  Basis Set:
  @DF-RHF Final Energy:  -232.13379344840064
    Total Energy =                       -232.1337934484008656
  Basis Set: 6-31G*
  Basis Set:
  Basis Set: 6-31G*
  Basis Set:
  @DF-RHF Final Energy:  -232.13388142463234
    Total Energy =                       -232.1338814246324773
  Basis Set: 6-31G*
  Basis Set:
  Basis Set: 6-31G*
  Basis Set:
  @DF-RHF Final Energy:  -232.13391540732218
    Total Energy =                       -232.1339154073222630
  Basis Set: 6-31G*
  Basis Set:
  Charge       = 0
  Multiplicity = 1
  Basis Set: 6-31G*
  Basis Set:

    Orbital Energies (a.u.)
    -----------------------

    Doubly Occupied:

       1A    -20.545525     2A    -11.274834     3A    -11.262566
       4A    -11.215889     5A    -11.204521     6A     -1.366852
       7A     -1.053218     8A     -0.949660     9A     -0.914858
      10A     -0.783049    11A     -0.675684    12A     -0.642110
      13A     -0.629535    14A     -0.588294    15A     -0.553048
      16A     -0.541748    17A     -0.529544    18A     -0.506408
      19A     -0.492955    20A     -0.447816    21A     -0.398717

  @DF-RHF Final Energy:  -232.13391571006585

   => Energetics <=

    Nuclear Repulsion Energy =            197.8337323053558237
    One-Electron Energy =                -706.7816333835224896
    Two-Electron Energy =                 276.8139853681009299
    DFT Exchange-Correlation Energy =       0.0000000000000000
    Empirical Dispersion Energy =           0.0000000000000000
    PCM Polarization Energy =               0.0000000000000000
    EFP Energy =                            0.0000000000000000
    Total Energy =                       -232.1339157100657076
    Molecular point group: c1
  Basis Set: 6-31G*
  Basis Set:

  -Total Gradient:
     Atom            X                  Y                   Z
    ------   -----------------  -----------------  -----------------
       1        0.000001022241    -0.000011059086    -0.000001230106
       2        0.000118342838     0.002579290421     0.000105317849
       3       -0.000043453335    -0.003512307192    -0.000668283657
       4       -0.000016276806     0.000005632009    -0.000003418052
       5        0.000004219678    -0.000001972842    -0.000007649412
       6       -0.000615351278    -0.000259058954     0.003164406154
       7       -0.000078501302     0.000089555819     0.000073998901
       8       -0.000001181594     0.000025176882    -0.000053249539
       9        0.000658046115     0.001047464417    -0.002624299600
      10        0.000002640557    -0.000053348360     0.000028492474
      11       -0.000045992843    -0.000012306680     0.000056655723
      12        0.000020100396     0.000084333625    -0.000037974910
      13       -0.000022456920     0.000007615383    -0.000018442322
      14       -0.000008544778    -0.000007738678    -0.000021143694
      15        0.000027387029     0.000018723236     0.000006820190

  **** Optimization is complete! (in 7 steps) ****
    Final optimized geometry and variables:
    Molecular point group: c1

    Geometry (in Angstrom), charge = 0, multiplicity = 1:

    H           -2.745477023757    -0.105142946875     0.067461148268
    C           -1.775374714445    -0.192170499185     0.538304696978
    O           -0.839360581607    -0.199514775541    -0.492632559903
    H           -1.647424032360     0.647930925311     1.213790666193
    H           -1.761374270767    -1.110962456776     1.119746660126
    C            0.546683199801    -0.281847835437    -0.223926063786
    C            1.222508413605     0.752496206330    -1.115899956154
    C            0.949360637522    -0.099642255882     1.236834799806
    H            0.873752919646    -1.266182926758    -0.552186543777
    H            0.921010157506     0.606858292291    -2.146612829934
    H            2.303894530113     0.670572807756    -1.058160683353
    H            0.935093373711     1.756376658106    -0.818562953639
    H            0.489688856251    -0.834665725940     1.887344800847
    H            2.024616823422    -0.218131773952     1.319954848555
    H            0.697226860089     0.890426378804     1.602458114539

  Mulliken Charges: (a.u.)
   Center  Symbol    Alpha    Beta     Spin     Total
       1     H     0.41229  0.41229  0.00000  0.17542
       2     C     3.07590  3.07590  0.00000 -0.15180
       3     O     4.32007  4.32007  0.00000 -0.64013
       4     H     0.42950  0.42950  0.00000  0.14101
       5     H     0.43110  0.43110  0.00000  0.13780
       6     C     2.89978  2.89978  0.00000  0.20044
       7     C     3.23866  3.23866  0.00000 -0.47732
       8     C     3.26446  3.26446  0.00000 -0.52893
       9     H     0.42576  0.42576  0.00000  0.14849
      10     H     0.41105  0.41105  0.00000  0.17791
      11     H     0.42592  0.42592  0.00000  0.14815
      12     H     0.42061  0.42061  0.00000  0.15878
      13     H     0.41452  0.41452  0.00000  0.17096
      14     H     0.41393  0.41393  0.00000  0.17214
      15     H     0.41646  0.41646  0.00000  0.16709

   Total alpha = 21.00000, Total beta = 21.00000, Total charge = -0.00000
