  ==> Input File <==

--------------------------------------------------------------------------
set {
	reference rhf
	basis 6-31G*
}

set_num_threads( 1 )
memory 2 gb

molecule MOL {
0 1

H	 -3.420663	 1.227371	 -1.044276
O	 -3.452007	 0.283848	 -0.965577
C	 -3.181085	 -0.079926	 0.364119
C	 -1.765924	 0.277073	 0.805136
H	 -3.327791	 -1.152017	 0.410903
H	 -3.905698	 0.375695	 1.036898
C	 -0.677594	 -0.417312	 -0.014550
H	 -1.637766	 1.358238	 0.744969
H	 -1.659588	 0.017670	 1.857098
C	 0.344783	 -1.157763	 0.850120
H	 -0.171349	 0.318968	 -0.631249
H	 -1.145780	 -1.120458	 -0.701413
C	 1.427594	 -1.855211	 0.022368
H	 0.801403	 -0.452224	 1.540143
H	 -0.168013	 -1.897015	 1.464246
C	 2.425038	 -2.684607	 0.839291
H	 1.970952	 -1.111563	 -0.558534
H	 0.945144	 -2.509983	 -0.700358
C	 3.315052	 -1.866340	 1.776691
H	 3.059896	 -3.236153	 0.150057
H	 1.883827	 -3.431935	 1.416173
H	 3.859659	 -1.101924	 1.228778
H	 4.044976	 -2.502442	 2.268040
H	 2.741073	 -1.371344	 2.553023

	symmetry c1
}
set optking {
	frozen_dihedral = ("
		20 16 13 17,
		17 13 10 7,
		13 10 7 11,
		1 2 3 5,
		7 4 3 2
	")
}

ee = energy('scf')
oeprop('DIPOLE', 'QUADRUPOLE', 'MULLIKEN_CHARGES')
f=open( 'psi4out.xyz', 'w' )
f.write( "24  " )
f.write( str(ee) + "\n" )
f.write( MOL.save_string_xyz() )
f.close()
--------------------------------------------------------------------------

    Molecular point group: c1

    Geometry (in Angstrom), charge = 0, multiplicity = 1:

       Center              X                  Y                   Z               Mass
    ------------   -----------------  -----------------  -----------------  -----------------
           H         -3.173852857609     2.136669390887    -1.486874782893     1.007825032070
           O         -3.205196857609     1.193146390887    -1.408175782893    15.994914619560
           C         -2.934274857609     0.829372390887    -0.078479782893    12.000000000000
           C         -1.519113857609     1.186371390887     0.362537217107    12.000000000000
           H         -3.080980857609    -0.242718609113    -0.031695782893     1.007825032070
           H         -3.658887857609     1.284993390887     0.594299217107     1.007825032070
           C         -0.430783857609     0.491986390887    -0.457148782893    12.000000000000
           H         -1.390955857609     2.267536390887     0.302370217107     1.007825032070
           H         -1.412777857609     0.926968390887     1.414499217107     1.007825032070
           C          0.591593142391    -0.248464609113     0.407521217107    12.000000000000
           H          0.075461142391     1.228266390887    -1.073847782893     1.007825032070
           H         -0.898969857609    -0.211159609113    -1.144011782893     1.007825032070
           C          1.674404142391    -0.945912609113    -0.420230782893    12.000000000000
           H          1.048213142391     0.457074390887     1.097544217107     1.007825032070
           H          0.078797142391    -0.987716609113     1.021647217107     1.007825032070
           C          2.671848142391    -1.775308609113     0.396692217107    12.000000000000
           H          2.217762142391    -0.202264609113    -1.001132782893     1.007825032070
           H          1.191954142391    -1.600684609113    -1.142956782893     1.007825032070
           C          3.561862142391    -0.957041609113     1.334092217107    12.000000000000
           H          3.306706142391    -2.326854609113    -0.292541782893     1.007825032070
           H          2.130637142391    -2.522636609113     0.973574217107     1.007825032070
           H          4.106469142391    -0.192625609113     0.786179217107     1.007825032070
           H          4.291786142391    -1.593143609113     1.825441217107     1.007825032070
           H          2.987883142391    -0.462045609113     2.110424217107     1.007825032070

  Charge       = 0
  Multiplicity = 1
  Basis Set: 6-31G*
  Basis Set:

    Orbital Energies (a.u.)
    -----------------------

    Doubly Occupied:

       1A    -20.553329     2A    -11.267669     3A    -11.215972
       4A    -11.213828     5A    -11.212604     6A    -11.211105
       7A    -11.210184     8A    -11.207210     9A     -1.359890
      10A     -1.088653    11A     -1.048123    12A     -0.984741
      13A     -0.914616    14A     -0.852276    15A     -0.799604
      16A     -0.776707    17A     -0.678385    18A     -0.649265
      19A     -0.632300    20A     -0.613730    21A     -0.604827
      22A     -0.577682    23A     -0.551323    24A     -0.548600
      25A     -0.519545    26A     -0.505976    27A     -0.494845
      28A     -0.476401    29A     -0.468948    30A     -0.460127
      31A     -0.452600    32A     -0.445320    33A     -0.419846

  @DF-RHF Final Energy:  -349.24253622257129

   => Energetics <=

    Nuclear Repulsion Energy =            385.0226446921321894
    One-Electron Energy =               -1236.4977529441207480
    Two-Electron Energy =                 502.2325720294168718
    DFT Exchange-Correlation Energy =       0.0000000000000000
    Empirical Dispersion Energy =           0.0000000000000000
    PCM Polarization Energy =               0.0000000000000000
    EFP Energy =                            0.0000000000000000
    Total Energy =                       -349.2425362225716867

  Mulliken Charges: (a.u.)
   Center  Symbol    Alpha    Beta     Spin     Total
       1     H     0.28334  0.28334  0.00000  0.43331
       2     O     4.36840  4.36840  0.00000 -0.73679
       3     C     2.99922  2.99922  0.00000  0.00156
       4     C     3.17048  3.17048  0.00000 -0.34097
       5     H     0.41642  0.41642  0.00000  0.16717
       6     H     0.42901  0.42901  0.00000  0.14197
       7     C     3.15207  3.15207  0.00000 -0.30414
       8     H     0.42566  0.42566  0.00000  0.14868
       9     H     0.41963  0.41963  0.00000  0.16075
      10     C     3.15722  3.15722  0.00000 -0.31445
      11     H     0.42079  0.42079  0.00000  0.15842
      12     H     0.41141  0.41141  0.00000  0.17717
      13     C     3.15288  3.15288  0.00000 -0.30575
      14     H     0.42227  0.42227  0.00000  0.15545
      15     H     0.42505  0.42505  0.00000  0.14989
      16     C     3.15227  3.15227  0.00000 -0.30455
      17     H     0.42431  0.42431  0.00000  0.15138
      18     H     0.42120  0.42120  0.00000  0.15759
      19     C     3.24095  3.24095  0.00000 -0.48191
      20     H     0.42109  0.42109  0.00000  0.15783
      21     H     0.42373  0.42373  0.00000  0.15255
      22     H     0.42248  0.42248  0.00000  0.15505
      23     H     0.41955  0.41955  0.00000  0.16091
      24     H     0.42056  0.42056  0.00000  0.15887

   Total alpha = 33.00000, Total beta = 33.00000, Total charge =  0.00000
