  ==> Input File <==

--------------------------------------------------------------------------
set {
	reference rhf
	basis cc-pvtz
}

set_num_threads( 4 )
memory 2 gb

molecule MOL {
0 1

H	 3.889604	 0.356866	 -0.089510
N	 3.091268	 -0.241216	 -0.065538
C	 1.860978	 0.530248	 0.016256
H	 3.192566	 -0.835836	 0.730398
C	 0.644130	 -0.381765	 -0.031064
H	 1.835721	 1.204666	 -0.833114
H	 1.808789	 1.151975	 0.911067
C	 -0.678115	 0.376691	 0.025731
H	 0.693998	 -0.977147	 -0.936845
H	 0.693309	 -1.082142	 0.800523
C	 -1.837914	 -0.468558	 0.544983
H	 -0.923480	 0.746318	 -0.967307
H	 -0.566622	 1.255046	 0.657344
C	 -3.159208	 0.291336	 0.594182
H	 -1.950672	 -1.346878	 -0.084407
H	 -1.596863	 -0.836033	 1.538778
H	 -3.445784	 0.642330	 -0.391676
H	 -3.960309	 -0.336760	 0.966657
H	 -3.088967	 1.157438	 1.244005

	symmetry c1
}
set optking {
	frozen_dihedral = ("
		12 8 5 9
	")
}

ee = optimize('scf')
oeprop('DIPOLE', 'QUADRUPOLE', 'MULLIKEN_CHARGES')
f=open( 'psi4out.xyz', 'w' )
f.write( "19  " )
f.write( str(ee) + "\n" )
f.write( MOL.save_string_xyz() )
f.close()
--------------------------------------------------------------------------

    Molecular point group: c1
  Charge       = 0
  Multiplicity = 1
  Basis Set: CC-PVTZ
  Basis Set:
  @DF-RHF Final Energy:  -251.44641923000617
    Total Energy =                       -251.4464192300061995
    Molecular point group: c1
  Basis Set: CC-PVTZ
  Basis Set:
  Basis Set: CC-PVTZ
  Basis Set:
  @DF-RHF Final Energy:  -251.44661454309880
    Total Energy =                       -251.4466145430987467
  Basis Set: CC-PVTZ
  Basis Set:
  Basis Set: CC-PVTZ
  Basis Set:
  @DF-RHF Final Energy:  -251.44665292831246
    Total Energy =                       -251.4466529283126306
  Basis Set: CC-PVTZ
  Basis Set:
  Charge       = 0
  Multiplicity = 1
  Basis Set: CC-PVTZ
  Basis Set:

    Orbital Energies (a.u.)
    -----------------------

    Doubly Occupied:

       1A    -15.526319     2A    -11.237865     3A    -11.211998
       4A    -11.210452     5A    -11.207623     6A    -11.205422
       7A     -1.178116     8A     -1.073825     9A     -0.999291
      10A     -0.900834    11A     -0.813350    12A     -0.789428
      13A     -0.665448    14A     -0.643902    15A     -0.615950
      16A     -0.593212    17A     -0.562881    18A     -0.548200
      19A     -0.535360    20A     -0.493969    21A     -0.484783
      22A     -0.464849    23A     -0.460861    24A     -0.449215
      25A     -0.383824

  @DF-RHF Final Energy:  -251.44665490192537

   => Energetics <=

    Nuclear Repulsion Energy =            246.0943615929825512
    One-Electron Energy =                -826.5680773763178877
    Two-Electron Energy =                 329.0270608814100228
    DFT Exchange-Correlation Energy =       0.0000000000000000
    Empirical Dispersion Energy =           0.0000000000000000
    PCM Polarization Energy =               0.0000000000000000
    EFP Energy =                            0.0000000000000000
    Total Energy =                       -251.4466549019253421
    Molecular point group: c1
  Basis Set: CC-PVTZ
  Basis Set:

  -Total Gradient:
     Atom            X                  Y                   Z
    ------   -----------------  -----------------  -----------------
       1       -0.000000719796    -0.000004797477    -0.000001976665
       2        0.000017847627    -0.000008182602     0.000016374525
       3       -0.000031936518    -0.000000023738    -0.000015948231
       4        0.000016341407     0.000004030511    -0.000000120346
       5       -0.002295205079    -0.003987048633     0.001836554529
       6       -0.000001928275     0.000008880365     0.000014380820
       7        0.000024337091     0.000027737810     0.000013816963
       8        0.002508630083     0.004198884517     0.000417129638
       9        0.001469663982     0.002634185088    -0.001677852516
      10       -0.000018682201     0.000056296370     0.000002045281
      11        0.000027950887     0.000027891351     0.000104310772
      12       -0.001662564724    -0.002901280177    -0.000689009862
      13       -0.000012289561    -0.000027854610     0.000017812852
      14       -0.000019336490    -0.000007406004    -0.000031188875
      15       -0.000000565653     0.000019381290    -0.000008841646
      16       -0.000016639661    -0.000041239438     0.000015442471
      17       -0.000015970551     0.000009670126    -0.000005740817
      18        0.000001911433     0.000000024867    -0.000003338699
      19        0.000009155995    -0.000009149615    -0.000003850195

  **** Optimization is complete! (in 4 steps) ****
    Final optimized geometry and variables:
    Molecular point group: c1

    Geometry (in Angstrom), charge = 0, multiplicity = 1:

    H            3.868683991598     0.335266137193    -0.367727016154
    N            3.071728945043    -0.263542615055    -0.323473478915
    C            1.847257534665     0.503965839800    -0.161877401282
    H            3.210030345598    -0.880757856824     0.449462893851
    C            0.627264562538    -0.407937567618    -0.168105560872
    H            1.778338452933     1.198285484753    -0.993058588120
    H            1.839954414455     1.104832087312     0.748506999491
    C           -0.691321737065     0.365020568318    -0.111538168606
    H            0.670879932259    -1.002276790252    -1.074009042482
    H            0.693298835926    -1.093478400573     0.673240283126
    C           -1.865750990216    -0.484705868479     0.370692953772
    H           -0.928611817575     0.735476138311    -1.105138877555
    H           -0.590333367512     1.231488762486     0.536667261011
    C           -3.193758767992     0.264573294841     0.359347058250
    H           -1.946345572450    -1.370333227804    -0.253994640431
    H           -1.661272592321    -0.840561670973     1.376779438093
    H           -3.447221437949     0.597501447980    -0.641705420925
    H           -4.003129777068    -0.363868449790     0.713018540642
    H           -3.153494582120     1.141631025743     0.997067096806

  Mulliken Charges: (a.u.)
   Center  Symbol    Alpha    Beta     Spin     Total
       1     H     0.43019  0.43019  0.00000  0.13963
       2     N     3.68962  3.68962  0.00000 -0.37925
       3     C     3.02506  3.02506  0.00000 -0.05012
       4     H     0.43111  0.43111  0.00000  0.13779
       5     C     3.08315  3.08315  0.00000 -0.16631
       6     H     0.45715  0.45715  0.00000  0.08570
       7     H     0.46889  0.46889  0.00000  0.06222
       8     C     3.09382  3.09382  0.00000 -0.18763
       9     H     0.44818  0.44818  0.00000  0.10364
      10     H     0.46017  0.46017  0.00000  0.07967
      11     C     3.08371  3.08371  0.00000 -0.16742
      12     H     0.45339  0.45339  0.00000  0.09321
      13     H     0.45706  0.45706  0.00000  0.08589
      14     C     3.14987  3.14987  0.00000 -0.29973
      15     H     0.45372  0.45372  0.00000  0.09257
      16     H     0.45556  0.45556  0.00000  0.08888
      17     H     0.45508  0.45508  0.00000  0.08984
      18     H     0.44864  0.44864  0.00000  0.10271
      19     H     0.45564  0.45564  0.00000  0.08872

   Total alpha = 25.00000, Total beta = 25.00000, Total charge = -0.00000
