                              Psi4 1.0.54 Driver

  ==> Input File <==

--------------------------------------------------------------------------
set {
	reference rhf
	basis cc-pvtz
}

set_num_threads( 4 )
memory 2 gb

molecule MOL {
0 1

O	 -2.817697	 1.304178	 0.001046
C	 -2.664672	 0.129869	 0.003507
C	 -3.797908	 -0.860100	 -0.001145
O	 -1.481217	 -0.452708	 0.001092
H	 -4.408836	 -0.679689	 -0.875387
H	 -3.443486	 -1.878443	 -0.002770
H	 -4.412123	 -0.683688	 0.871605
C	 -0.332055	 0.384012	 -0.000250
C	 0.892252	 -0.506059	 -0.000295
H	 -0.360822	 1.020205	 -0.874146
H	 -0.359817	 1.021310	 0.872861
C	 2.188199	 0.299473	 -0.001416
H	 0.857046	 -1.152781	 -0.871031
H	 0.857910	 -1.151798	 0.871202
C	 2.909702	 0.272842	 1.343147
H	 2.853140	 -0.084543	 -0.771067
H	 1.973882	 1.330616	 -0.271206
C	 4.204177	 1.078659	 1.342797
H	 3.125974	 -0.756946	 1.612998
H	 2.246257	 0.656516	 2.113032
H	 4.902706	 0.696907	 0.605797
H	 4.690662	 1.039344	 2.310419
H	 4.016201	 2.121268	 1.109379

	symmetry c1
}
set optking {
	frozen_dihedral = ("
		16 12 9 13
	")
}

ee,wfn = optimize('scf', return_wfn=True)
oeprop( wfn, 'DIPOLE', 'QUADRUPOLE', 'MULLIKEN_CHARGES')
f=open( 'psi4out.xyz', 'w' )
f.write( "23  " )
f.write( str(ee) + "\n" )
f.write( MOL.save_string_xyz() )
f.close()
--------------------------------------------------------------------------

    Molecular point group: c1
  Charge       = 0
  Multiplicity = 1
  Basis Set: CC-PVTZ
  Basis Set:
  @DF-RHF Final Energy:  -423.13012771439958
    Total Energy =                       -423.1301277143994639
    Molecular point group: c1
  Basis Set: CC-PVTZ
  Basis Set:
  Basis Set: CC-PVTZ
  Basis Set:
  @DF-RHF Final Energy:  -423.13023556737465
    Total Energy =                       -423.1302355673740294
  Basis Set: CC-PVTZ
  Basis Set:
  Basis Set: CC-PVTZ
  Basis Set:
  @DF-RHF Final Energy:  -423.13031380909115
    Total Energy =                       -423.1303138090919447
  Basis Set: CC-PVTZ
  Basis Set:
  Basis Set: CC-PVTZ
  Basis Set:
  @DF-RHF Final Energy:  -423.13043792347315
    Total Energy =                       -423.1304379234729822
  Basis Set: CC-PVTZ
  Basis Set:
  Basis Set: CC-PVTZ
  Basis Set:
  @DF-RHF Final Energy:  -423.13046070219542
    Total Energy =                       -423.1304607021954780
  Basis Set: CC-PVTZ
  Basis Set:
  Basis Set: CC-PVTZ
  Basis Set:
  @DF-RHF Final Energy:  -423.13046267197404
    Total Energy =                       -423.1304626719744419
  Basis Set: CC-PVTZ
  Basis Set:
  Basis Set: CC-PVTZ
  Basis Set:
  @DF-RHF Final Energy:  -423.13046455233928
    Total Energy =                       -423.1304645523396175
  Basis Set: CC-PVTZ
  Basis Set:
  Charge       = 0
  Multiplicity = 1
  Basis Set: CC-PVTZ
  Basis Set:

    Orbital Energies (a.u.)
    -----------------------

    Doubly Occupied:

       1A    -20.596019     2A    -20.529722     3A    -11.366611
       4A    -11.279984     5A    -11.230773     6A    -11.221987
       7A    -11.221232     8A    -11.219736     9A    -11.210655
      10A     -1.471390    11A     -1.364222    12A     -1.093907
      13A     -1.042590    14A     -1.003614    15A     -0.931205
      16A     -0.845799    17A     -0.800178    18A     -0.779782
      19A     -0.691405    20A     -0.688287    21A     -0.675416
      22A     -0.635503    23A     -0.615681    24A     -0.587155
      25A     -0.581254    26A     -0.572227    27A     -0.561071
      28A     -0.533086    29A     -0.527159    30A     -0.503220
      31A     -0.497808    32A     -0.478512    33A     -0.468519
      34A     -0.464781    35A     -0.452454    36A     -0.439271

  @DF-RHF Final Energy:  -423.13046459110751

   => Energetics <=

    Nuclear Repulsion Energy =            453.7145614868340999
    One-Electron Energy =               -1475.3256072162957935
    Two-Electron Energy =                 598.4805811383541823
    DFT Exchange-Correlation Energy =       0.0000000000000000
    Empirical Dispersion Energy =           0.0000000000000000
    PCM Polarization Energy =               0.0000000000000000
    EFP Energy =                            0.0000000000000000
    Total Energy =                       -423.1304645911075113
    Molecular point group: c1
  Basis Set: CC-PVTZ
  Basis Set:

  -Total Gradient:
     Atom            X                  Y                   Z
    ------   -----------------  -----------------  -----------------
       1       -0.000001528247     0.000003601707     0.000000358296
       2        0.000005197279    -0.000008519801     0.000002193649
       3       -0.000002292794     0.000001282264    -0.000001788504
       4       -0.000008573955     0.000003018382     0.000002280498
       5        0.000000423007    -0.000000483510     0.000000733767
       6        0.000000100657     0.000000315271    -0.000000044023
       7        0.000000236532     0.000000122859    -0.000000365019
       8        0.000002716913     0.000000752786    -0.000008839480
       9       -0.001405510697     0.002476735242    -0.001774377918
      10       -0.000000198274     0.000000112180     0.000001649383
      11       -0.000001222027    -0.000001344162     0.000000248119
      12        0.001277807198    -0.002267246598     0.002091333375
      13        0.000967744505    -0.001690854659     0.001145175654
      14        0.000000343861    -0.000002397304    -0.000000007632
      15        0.000004895760    -0.000009891888    -0.000004220428
      16       -0.000837168510     0.001488406555    -0.001451051609
      17       -0.000000452997     0.000000700751    -0.000001861828
      18        0.000000430515     0.000007923710     0.000001249384
      19       -0.000002950467    -0.000002491126     0.000002704453
      20        0.000002798451     0.000000512650    -0.000004875792
      21       -0.000003626614    -0.000000866775     0.000001446124
      22       -0.000001570607    -0.000000393803    -0.000001494333
      23        0.000002400518     0.000001005269    -0.000000446137

  **** Optimization is complete! (in 8 steps) ****
    Final optimized geometry and variables:
    Molecular point group: c1

    Geometry (in Angstrom), charge = 0, multiplicity = 1:

    O           -2.668200058663     1.166394401815    -0.251844382874
    C           -2.543188271707    -0.011237151805    -0.260333635061
    C           -3.699044786205    -0.974302376485    -0.227461701420
    O           -1.374158895182    -0.621126608269    -0.299427397582
    H           -4.334792440518    -0.777760792098    -1.080331812652
    H           -3.368956703011    -2.000714995137    -0.242358146002
    H           -4.278974757492    -0.785178327655     0.665914906590
    C           -0.207061433918     0.188072812829    -0.335107673855
    C            0.997968486151    -0.727392874685    -0.373061820069
    H           -0.246147183327     0.825806853352    -1.207397907797
    H           -0.192231627651     0.825689420420     0.538601717029
    C            2.322663008560     0.055672730690    -0.337998212274
    H            0.944298267780    -1.354776856120    -1.254713706694
    H            0.944374224342    -1.402497729709     0.474352358436
    C            3.025425206807     0.016578127301     1.016649169168
    H            2.990497712218    -0.318350494117    -1.106364948046
    H            2.136975353883     1.093404146910    -0.605551195040
    C            4.307022065853     0.841295381002     1.049828142382
    H            3.252312673230    -1.015126811493     1.269628518801
    H            2.345373908004     0.375088867870     1.784873031118
    H            5.018502066268     0.487597973350     0.310995789017
    H            4.784168512360     0.785402433068     2.021308413037
    H            4.106030866962     1.886424080931     0.839570015045

  Mulliken Charges: (a.u.)
   Center  Symbol    Alpha    Beta     Spin     Total
       1     O     4.20235  4.20235  0.00000 -0.40471
       2     C     2.81472  2.81472  0.00000  0.37056
       3     C     3.13970  3.13970  0.00000 -0.27941
       4     O     4.14558  4.14558  0.00000 -0.29116
       5     H     0.44210  0.44210  0.00000  0.11580
       6     H     0.44180  0.44180  0.00000  0.11640
       7     H     0.44216  0.44216  0.00000  0.11568
       8     C     2.97625  2.97625  0.00000  0.04749
       9     C     3.09081  3.09081  0.00000 -0.18162
      10     H     0.45330  0.45330  0.00000  0.09340
      11     H     0.45377  0.45377  0.00000  0.09247
      12     C     3.10667  3.10667  0.00000 -0.21333
      13     H     0.44450  0.44450  0.00000  0.11100
      14     H     0.45163  0.45163  0.00000  0.09674
      15     C     3.08211  3.08211  0.00000 -0.16422
      16     H     0.44492  0.44492  0.00000  0.11017
      17     H     0.45482  0.45482  0.00000  0.09036
      18     C     3.15013  3.15013  0.00000 -0.30025
      19     H     0.45282  0.45282  0.00000  0.09436
      20     H     0.45347  0.45347  0.00000  0.09307
      21     H     0.45472  0.45472  0.00000  0.09056
      22     H     0.44766  0.44766  0.00000  0.10468
      23     H     0.45402  0.45402  0.00000  0.09196

   Total alpha = 36.00000, Total beta = 36.00000, Total charge = -0.00000

*** Psi4 exiting successfully. Buy a developer a beer!
