  ==> Input File <==

--------------------------------------------------------------------------
set {
	reference rhf
	basis 6-31G*
}

set_num_threads( 1 )
memory 2 gb

molecule MOL {
0 1

O	 2.992787	 1.137993	 0.354411
C	 2.701189	 0.057885	 -0.047330
C	 1.574967	 -0.251049	 -1.003873
O	 3.347903	 -1.046386	 0.304773
C	 0.807443	 0.992103	 -1.448392
H	 2.008058	 -0.783801	 -1.843990
H	 0.916867	 -0.961118	 -0.509501
C	 -0.403425	 0.685201	 -2.336145
H	 1.483618	 1.664279	 -1.968089
H	 0.474150	 1.526707	 -0.565479
C	 -0.064813	 0.094723	 -3.707928
H	 -0.956415	 1.610059	 -2.482991
H	 -1.077646	 0.011387	 -1.809446
C	 -1.296616	 -0.090687	 -4.596345
H	 0.647165	 0.746486	 -4.212023
H	 0.430940	 -0.866184	 -3.590206
C	 -0.970905	 -0.685004	 -5.967779
H	 -1.791489	 0.869740	 -4.730197
H	 -2.013592	 -0.733687	 -4.088215
C	 -2.205904	 -0.863366	 -6.850200
H	 -0.253793	 -0.044228	 -6.476502
H	 -0.480105	 -1.647066	 -5.836129
H	 -1.942853	 -1.286260	 -7.814861
H	 -2.700113	 0.087297	 -7.029619
H	 -2.928358	 -1.527404	 -6.383952
C	 4.728119	 -1.109107	 -0.004993
H	 4.882018	 -1.033965	 -1.071845
H	 5.068212	 -2.067527	 0.355250
H	 5.265056	 -0.311663	 0.488280

	symmetry c1
}
set optking {
	frozen_dihedral = ("
		21 17 14 11,
		17 14 11 15,
		15 11 8 5,
		6 3 5 9,
		11 8 5 9,
		2 4 26 27,
		6 3 2 1
	")
}

ee = energy('scf')
oeprop('DIPOLE', 'QUADRUPOLE', 'MULLIKEN_CHARGES')
f=open( 'psi4out.xyz', 'w' )
f.write( "29  " )
f.write( str(ee) + "\n" )
f.write( MOL.save_string_xyz() )
f.close()
--------------------------------------------------------------------------

    Molecular point group: c1

    Geometry (in Angstrom), charge = 0, multiplicity = 1:

       Center              X                  Y                   Z               Mass
    ------------   -----------------  -----------------  -----------------  -----------------
           O          1.937038685963     1.247715280945     2.637635716329    15.994914619560
           C          1.645440685963     0.167607280945     2.235894716329    12.000000000000
           C          0.519218685963    -0.141326719055     1.279351716329    12.000000000000
           O          2.292154685963    -0.936663719055     2.587997716329    15.994914619560
           C         -0.248305314037     1.101825280945     0.834832716329    12.000000000000
           H          0.952309685963    -0.674078719055     0.439234716329     1.007825032070
           H         -0.138881314037    -0.851395719055     1.773723716329     1.007825032070
           C         -1.459173314037     0.794923280945    -0.052920283671    12.000000000000
           H          0.427869685963     1.774001280945     0.315135716329     1.007825032070
           H         -0.581598314037     1.636429280945     1.717745716329     1.007825032070
           C         -1.120561314037     0.204445280945    -1.424703283671    12.000000000000
           H         -2.012163314037     1.719781280945    -0.199766283671     1.007825032070
           H         -2.133394314037     0.121109280945     0.473778716329     1.007825032070
           C         -2.352364314037     0.019035280945    -2.313120283671    12.000000000000
           H         -0.408583314037     0.856208280945    -1.928798283671     1.007825032070
           H         -0.624808314037    -0.756461719055    -1.306981283671     1.007825032070
           C         -2.026653314037    -0.575281719055    -3.684554283671    12.000000000000
           H         -2.847237314037     0.979462280945    -2.446972283671     1.007825032070
           H         -3.069340314037    -0.623964719055    -1.804990283671     1.007825032070
           C         -3.261652314037    -0.753643719055    -4.566975283671    12.000000000000
           H         -1.309541314037     0.065494280945    -4.193277283671     1.007825032070
           H         -1.535853314037    -1.537343719055    -3.552904283671     1.007825032070
           H         -2.998601314037    -1.176537719055    -5.531636283671     1.007825032070
           H         -3.755861314037     0.197019280945    -4.746394283671     1.007825032070
           H         -3.984106314037    -1.417681719055    -4.100727283671     1.007825032070
           C          3.672370685963    -0.999384719055     2.278231716329    12.000000000000
           H          3.826269685963    -0.924242719055     1.211379716329     1.007825032070
           H          4.012463685963    -1.957804719055     2.638474716329     1.007825032070
           H          4.209307685963    -0.201940719055     2.771504716329     1.007825032070

  Charge       = 0
  Multiplicity = 1
  Basis Set: 6-31G*
  Basis Set:

    Orbital Energies (a.u.)
    -----------------------

    Doubly Occupied:

       1A    -20.589988     2A    -20.551521     3A    -11.372947
       4A    -11.289410     5A    -11.235341     6A    -11.219183
       7A    -11.218088     8A    -11.217128     9A    -11.216917
      10A    -11.215410    11A    -11.209923    12A     -1.464986
      13A     -1.364552    14A     -1.098571    15A     -1.066768
      16A     -1.017768    17A     -0.978891    18A     -0.933547
      19A     -0.864198    20A     -0.800893    21A     -0.791791
      22A     -0.764435    23A     -0.699903    24A     -0.680674
      25A     -0.671637    26A     -0.652453    27A     -0.627140
      28A     -0.613551    29A     -0.596713    30A     -0.586001
      31A     -0.569058    32A     -0.547707    33A     -0.541944
      34A     -0.530392    35A     -0.516534    36A     -0.501038
      37A     -0.500385    38A     -0.479051    39A     -0.471888
      40A     -0.463332    41A     -0.463170    42A     -0.450753
      43A     -0.441499    44A     -0.431978

  @DF-RHF Final Energy:  -501.02899620573339

   => Energetics <=

    Nuclear Repulsion Energy =            612.0828023843912433
    One-Electron Energy =               -1895.1855589321041862
    Two-Electron Energy =                 782.0737603419795505
    DFT Exchange-Correlation Energy =       0.0000000000000000
    Empirical Dispersion Energy =           0.0000000000000000
    PCM Polarization Energy =               0.0000000000000000
    EFP Energy =                            0.0000000000000000
    Total Energy =                       -501.0289962057333923

  Mulliken Charges: (a.u.)
   Center  Symbol    Alpha    Beta     Spin     Total
       1     O     4.26866  4.26866  0.00000 -0.53732
       2     C     2.60828  2.60828  0.00000  0.78345
       3     C     3.21161  3.21161  0.00000 -0.42322
       4     O     4.31127  4.31127  0.00000 -0.62255
       5     C     3.15497  3.15497  0.00000 -0.30994
       6     H     0.40429  0.40429  0.00000  0.19143
       7     H     0.39958  0.39958  0.00000  0.20084
       8     C     3.15634  3.15634  0.00000 -0.31268
       9     H     0.41430  0.41430  0.00000  0.17141
      10     H     0.40786  0.40786  0.00000  0.18428
      11     C     3.15493  3.15493  0.00000 -0.30987
      12     H     0.41827  0.41827  0.00000  0.16346
      13     H     0.42355  0.42355  0.00000  0.15289
      14     C     3.15027  3.15027  0.00000 -0.30054
      15     H     0.42311  0.42311  0.00000  0.15378
      16     H     0.42435  0.42435  0.00000  0.15131
      17     C     3.15144  3.15144  0.00000 -0.30289
      18     H     0.42308  0.42308  0.00000  0.15383
      19     H     0.42372  0.42372  0.00000  0.15256
      20     C     3.23937  3.23937  0.00000 -0.47874
      21     H     0.42298  0.42298  0.00000  0.15404
      22     H     0.42372  0.42372  0.00000  0.15256
      23     H     0.41923  0.41923  0.00000  0.16153
      24     H     0.42140  0.42140  0.00000  0.15720
      25     H     0.42167  0.42167  0.00000  0.15665
      26     C     3.09454  3.09454  0.00000 -0.18909
      27     H     0.41946  0.41946  0.00000  0.16109
      28     H     0.40439  0.40439  0.00000  0.19121
      29     H     0.40334  0.40334  0.00000  0.19331

   Total alpha = 44.00000, Total beta = 44.00000, Total charge =  0.00000
