  ==> Input File <==

--------------------------------------------------------------------------
set {
	reference rhf
	basis 6-31G*
}

set_num_threads( 4 )
memory 2 gb

molecule MOL {
0 1

O	 -2.439739	 -0.935931	 -0.423848
C	 -1.921153	 0.064240	 -0.045697
C	 -2.624470	 1.379923	 0.150949
O	 -0.632575	 0.154573	 0.251549
H	 -2.168117	 2.136577	 -0.476876
H	 -3.669540	 1.273223	 -0.098610
H	 -2.519365	 1.700893	 1.180846
C	 0.160891	 -1.019931	 0.106212
C	 1.589627	 -0.672828	 0.480843
H	 0.089836	 -1.367806	 -0.916050
H	 -0.238459	 -1.792301	 0.749618
C	 2.366621	 0.040322	 -0.627353
H	 2.093933	 -1.601225	 0.741010
H	 1.578313	 -0.060565	 1.378765
C	 3.808090	 0.350565	 -0.226207
H	 2.365545	 -0.579556	 -1.521696
H	 1.855580	 0.961178	 -0.888540
H	 4.337117	 0.856523	 -1.027561
H	 4.355601	 -0.557649	 0.009713
H	 3.841636	 0.993051	 0.649102

	symmetry c1
}
set optking {
	frozen_dihedral = ("
		12 9 8 10
	")
}

ee = optimize('scf')
oeprop('DIPOLE', 'QUADRUPOLE', 'MULLIKEN_CHARGES')
f=open( 'psi4out.xyz', 'w' )
f.write( "20  " )
f.write( str(ee) + "\n" )
f.write( MOL.save_string_xyz() )
f.close()
--------------------------------------------------------------------------

    Molecular point group: c1
  Charge       = 0
  Multiplicity = 1
  Basis Set: 6-31G*
  Basis Set:
  @DF-RHF Final Energy:  -383.94455748410792
    Total Energy =                       -383.9445574841080315
    Molecular point group: c1
  Basis Set: 6-31G*
  Basis Set:
  Basis Set: 6-31G*
  Basis Set:
  @DF-RHF Final Energy:  -383.94454421408108
    Total Energy =                       -383.9445442140811338
  Basis Set: 6-31G*
  Basis Set:
  Basis Set: 6-31G*
  Basis Set:
  @DF-RHF Final Energy:  -383.94401400112974
    Total Energy =                       -383.9440140011292897
  Basis Set: 6-31G*
  Basis Set:
  Basis Set: 6-31G*
  Basis Set:
  @DF-RHF Final Energy:  -383.94471041093465
    Total Energy =                       -383.9447104109348174
  Basis Set: 6-31G*
  Basis Set:
  Basis Set: 6-31G*
  Basis Set:
  @DF-RHF Final Energy:  -383.94470679946352
    Total Energy =                       -383.9447067994635745
  Basis Set: 6-31G*
  Basis Set:
  Basis Set: 6-31G*
  Basis Set:
  @DF-RHF Final Energy:  -383.94472712778622
    Total Energy =                       -383.9447271277857681
  Basis Set: 6-31G*
  Basis Set:
  Charge       = 0
  Multiplicity = 1
  Basis Set: 6-31G*
  Basis Set:

    Orbital Energies (a.u.)
    -----------------------

    Doubly Occupied:

       1A    -20.600923     2A    -20.543409     3A    -11.373819
       4A    -11.282491     5A    -11.233000     6A    -11.225286
       7A    -11.222021     8A    -11.213997     9A     -1.466984
      10A     -1.361219    11A     -1.086330    12A     -1.028189
      13A     -0.981033    14A     -0.880519    15A     -0.809166
      16A     -0.777968    17A     -0.688992    18A     -0.682116
      19A     -0.666462    20A     -0.630889    21A     -0.603062
      22A     -0.592388    23A     -0.571724    24A     -0.551463
      25A     -0.543877    26A     -0.529280    27A     -0.512753
      28A     -0.482351    29A     -0.477531    30A     -0.473784
      31A     -0.448363    32A     -0.437796

  @DF-RHF Final Energy:  -383.94472776734403

   => Energetics <=

    Nuclear Repulsion Energy =            384.1504653693003775
    One-Electron Energy =               -1284.2320164551488233
    Two-Electron Energy =                 516.1368233185044119
    DFT Exchange-Correlation Energy =       0.0000000000000000
    Empirical Dispersion Energy =           0.0000000000000000
    PCM Polarization Energy =               0.0000000000000000
    EFP Energy =                            0.0000000000000000
    Total Energy =                       -383.9447277673440340
    Molecular point group: c1
  Basis Set: 6-31G*
  Basis Set:

  -Total Gradient:
     Atom            X                  Y                   Z
    ------   -----------------  -----------------  -----------------
       1        0.000033344297     0.000020257606    -0.000031028140
       2       -0.000042233116    -0.000031486904     0.000059257871
       3        0.000006820849     0.000004182162    -0.000011719226
       4        0.000002258133     0.000044567494     0.000017576475
       5       -0.000002882668     0.000002508252    -0.000001008205
       6       -0.000001509391     0.000003324161    -0.000000573935
       7        0.000003005134    -0.000003704611    -0.000002653334
       8        0.000974249992    -0.005141329238     0.000962249030
       9       -0.001231916406     0.003973785089     0.001031948016
      10       -0.000528683171     0.003313104918    -0.001057193818
      11        0.000043809262     0.000012098554    -0.000029373066
      12        0.000752041739    -0.002155735277    -0.000943550595
      13       -0.000014505184    -0.000021057169     0.000020190046
      14       -0.000009077130     0.000015069323    -0.000016372083
      15        0.000009394725    -0.000032968322    -0.000006383831
      16        0.000000859205     0.000003185864     0.000001588325
      17        0.000004965303    -0.000009467757     0.000004361451
      18       -0.000000454146    -0.000014238227    -0.000004288055
      19        0.000003710407     0.000002934348     0.000018474243
      20       -0.000003197828     0.000014969734    -0.000011501168

  **** Optimization is complete! (in 7 steps) ****
    Final optimized geometry and variables:
    Molecular point group: c1

    Geometry (in Angstrom), charge = 0, multiplicity = 1:

    O           -2.468171746306    -0.842202687047    -0.395127121654
    C           -1.936022166235     0.148409834589    -0.009798175296
    C           -2.620314407445     1.474487842956     0.185701805528
    O           -0.650524903157     0.215542490073     0.303556437151
    H           -2.144825613712     2.226628221370    -0.433242033191
    H           -3.664130155399     1.385843123269    -0.075976644348
    H           -2.521520012162     1.788691278690     1.218335373065
    C            0.126370639531    -0.974719037708     0.162521688067
    C            1.560109930715    -0.628830752813     0.527394196392
    H            0.043368124714    -1.305585902860    -0.863938694738
    H           -0.285297536225    -1.737265851941     0.808610162308
    C            2.314927539871     0.105095719263    -0.582571432455
    H            2.080609856916    -1.556781551673     0.755691432149
    H            1.555552681549    -0.040797941494     1.440258378977
    C            3.745348945198     0.465385779805    -0.184755302705
    H            2.333171128298    -0.520339614046    -1.472274368453
    H            1.773817389509     1.008439185179    -0.850293408218
    H            4.261383792938     0.971837571998    -0.994185580529
    H            4.318436318504    -0.422182778304     0.068728037012
    H            3.757622930640     1.124068889077     0.678843907758

  Mulliken Charges: (a.u.)
   Center  Symbol    Alpha    Beta     Spin     Total
       1     O     4.28390  4.28390  0.00000 -0.56781
       2     C     2.61949  2.61949  0.00000  0.76103
       3     C     3.28152  3.28152  0.00000 -0.56304
       4     O     4.30976  4.30976  0.00000 -0.61952
       5     H     0.40092  0.40092  0.00000  0.19815
       6     H     0.39700  0.39700  0.00000  0.20601
       7     H     0.40070  0.40070  0.00000  0.19860
       8     C     3.00302  3.00302  0.00000 -0.00604
       9     C     3.16441  3.16441  0.00000 -0.32882
      10     H     0.40968  0.40968  0.00000  0.18064
      11     H     0.40785  0.40785  0.00000  0.18429
      12     C     3.15587  3.15587  0.00000 -0.31174
      13     H     0.41849  0.41849  0.00000  0.16301
      14     H     0.41164  0.41164  0.00000  0.17672
      15     C     3.24040  3.24040  0.00000 -0.48080
      16     H     0.42184  0.42184  0.00000  0.15631
      17     H     0.41455  0.41455  0.00000  0.17090
      18     H     0.41739  0.41739  0.00000  0.16521
      19     H     0.42143  0.42143  0.00000  0.15713
      20     H     0.42011  0.42011  0.00000  0.15978

   Total alpha = 32.00000, Total beta = 32.00000, Total charge =  0.00000
