  ==> Input File <==

--------------------------------------------------------------------------
set {
	reference rhf
	basis 6-31G*
}

set_num_threads( 4 )
memory 2 gb

molecule MOL {
0 1

H	 -4.031818	 -0.453427	 -0.000094
C	 -2.967712	 -0.297022	 -0.000064
C	 -2.458620	 0.992929	 0.000032
C	 -2.109895	 -1.385637	 -0.000122
H	 -3.124998	 1.836319	 0.000077
C	 -1.090278	 1.193236	 0.000070
H	 -2.506361	 -2.384847	 -0.000198
C	 -0.739812	 -1.187531	 -0.000085
H	 -0.678594	 2.184290	 0.000146
C	 -0.226438	 0.104061	 0.000012
H	 -0.072310	 -2.027032	 -0.000131
C	 1.239129	 0.373821	 0.000060
O	 1.558639	 1.505785	 -0.609181
O	 2.048547	 -0.347125	 0.493961
C	 2.934134	 1.841226	 -0.655694
H	 3.331604	 1.947456	 0.343069
H	 2.989727	 2.780467	 -1.183508
H	 3.491484	 1.080529	 -1.182591

	symmetry c1
}
set optking {
	frozen_dihedral = ("
		13 12 10 6
	")
}

ee = optimize('scf')
oeprop('DIPOLE', 'QUADRUPOLE', 'MULLIKEN_CHARGES')
f=open( 'psi4out.xyz', 'w' )
f.write( "18  " )
f.write( str(ee) + "\n" )
f.write( MOL.save_string_xyz() )
f.close()
--------------------------------------------------------------------------

    Molecular point group: c1
  Charge       = 0
  Multiplicity = 1
  Basis Set: 6-31G*
  Basis Set:
  @DF-RHF Final Energy:  -457.34705446994121
    Total Energy =                       -457.3470544699416678
    Molecular point group: c1
  Basis Set: 6-31G*
  Basis Set:
  Basis Set: 6-31G*
  Basis Set:
  @DF-RHF Final Energy:  -457.34776546518674
    Total Energy =                       -457.3477654651868534
  Basis Set: 6-31G*
  Basis Set:
  Basis Set: 6-31G*
  Basis Set:
  @DF-RHF Final Energy:  -457.34632972347691
    Total Energy =                       -457.3463297234770835
  Basis Set: 6-31G*
  Basis Set:
  Basis Set: 6-31G*
  Basis Set:
  @DF-RHF Final Energy:  -457.34848363490829
    Total Energy =                       -457.3484836349078932
  Basis Set: 6-31G*
  Basis Set:
  Basis Set: 6-31G*
  Basis Set:
  @DF-RHF Final Energy:  -457.34849693069089
    Total Energy =                       -457.3484969306905441
  Basis Set: 6-31G*
  Basis Set:
  Charge       = 0
  Multiplicity = 1
  Basis Set: 6-31G*
  Basis Set:

    Orbital Energies (a.u.)
    -----------------------

    Doubly Occupied:

       1A    -20.608217     2A    -20.545705     3A    -11.378123
       4A    -11.283060     5A    -11.246588     6A    -11.244645
       7A    -11.244351     8A    -11.242316     9A    -11.238106
      10A    -11.237376    11A     -1.473118    12A     -1.364733
      13A     -1.165745    14A     -1.048410    15A     -1.025189
      16A     -0.978533    17A     -0.860155    18A     -0.835475
      19A     -0.778307    20A     -0.738995    21A     -0.683698
      22A     -0.677580    23A     -0.673377    24A     -0.630685
      25A     -0.625657    26A     -0.597569    27A     -0.586927
      28A     -0.557906    29A     -0.531173    30A     -0.516432
      31A     -0.504447    32A     -0.500392    33A     -0.458648
      34A     -0.444885    35A     -0.344331    36A     -0.341376

  @DF-RHF Final Energy:  -457.34849814601768

   => Energetics <=

    Nuclear Repulsion Energy =            492.7577631248536250
    One-Electron Energy =               -1599.7880602609789094
    Two-Electron Energy =                 649.6817989901080637
    DFT Exchange-Correlation Energy =       0.0000000000000000
    Empirical Dispersion Energy =           0.0000000000000000
    PCM Polarization Energy =               0.0000000000000000
    EFP Energy =                            0.0000000000000000
    Total Energy =                       -457.3484981460171639
    Molecular point group: c1
  Basis Set: 6-31G*
  Basis Set:

  -Total Gradient:
     Atom            X                  Y                   Z
    ------   -----------------  -----------------  -----------------
       1       -0.000000076100     0.000006863423     0.000013213330
       2        0.000024177028    -0.000188482152    -0.000033596324
       3        0.000149738334     0.000102531555     0.000025666777
       4       -0.000196050977     0.000057986507    -0.000019970172
       5       -0.000005648505    -0.000003797688    -0.000005625256
       6       -0.000210633964    -0.000071147428     0.003730851805
       7        0.000008556627    -0.000004233069     0.000005400172
       8        0.000142909421     0.000128000314     0.000024599508
       9        0.000015116432     0.000000571581     0.000014880427
      10        0.000192420294    -0.000574837903    -0.006654558527
      11       -0.000013939261    -0.000004191403    -0.000000725838
      12       -0.000480319087     0.002239086577     0.006074399665
      13        0.000322039193    -0.001786724842    -0.003149460935
      14        0.000013434634     0.000070517276    -0.000017862020
      15        0.000017272509     0.000032836990     0.000000421434
      16        0.000002084963     0.000000561967    -0.000004838663
      17        0.000019455617    -0.000000418026     0.000000306022
      18       -0.000000537164    -0.000005123679    -0.000003101402

  **** Optimization is complete! (in 6 steps) ****
    Final optimized geometry and variables:
    Molecular point group: c1

    Geometry (in Angstrom), charge = 0, multiplicity = 1:

    H           -3.969144217203    -0.822036904199     0.157450220084
    C           -2.910255231710    -0.636492647101     0.127630343662
    C           -2.437802676994     0.666428078706     0.105872924511
    C           -2.021740378077    -1.700865158935     0.117949984592
    H           -3.127531326712     1.490746755924     0.124642686670
    C           -1.075519984957     0.907663805311     0.059544027196
    H           -2.388891744072    -2.710892459386     0.140830301153
    C           -0.659414984553    -1.461680611315     0.090813213233
    H           -0.704735423379     1.914623649268     0.034036945200
    C           -0.183758761841    -0.157457050838     0.040372800004
    H            0.041362526045    -2.274765281630     0.107909020769
    C            1.290996281134     0.058006717912     0.063924045062
    O            1.651984968032     1.195400857098    -0.510985554558
    O            2.070963003911    -0.720177436509     0.515007931950
    C            3.036783266962     1.494534336383    -0.524190532053
    H            3.423025152628     1.551653262696     0.483210959117
    H            3.126083956411     2.450824983067    -1.015320129389
    H            3.580298614555     0.738736422609    -1.071967429603

  Mulliken Charges: (a.u.)
   Center  Symbol    Alpha    Beta     Spin     Total
       1     H     0.39559  0.39559  0.00000  0.20881
       2     C     3.09131  3.09131  0.00000 -0.18261
       3     C     3.10590  3.10590  0.00000 -0.21181
       4     C     3.10606  3.10606  0.00000 -0.21211
       5     H     0.39618  0.39618  0.00000  0.20764
       6     C     3.09018  3.09018  0.00000 -0.18037
       7     H     0.39537  0.39537  0.00000  0.20926
       8     C     3.08876  3.08876  0.00000 -0.17752
       9     H     0.38357  0.38357  0.00000  0.23286
      10     C     3.05497  3.05497  0.00000 -0.10993
      11     H     0.37921  0.37921  0.00000  0.24159
      12     C     2.60073  2.60073  0.00000  0.79854
      13     O     4.30772  4.30772  0.00000 -0.61544
      14     O     4.28841  4.28841  0.00000 -0.57681
      15     C     3.09329  3.09329  0.00000 -0.18658
      16     H     0.40811  0.40811  0.00000  0.18378
      17     H     0.40755  0.40755  0.00000  0.18491
      18     H     0.40710  0.40710  0.00000  0.18580

   Total alpha = 36.00000, Total beta = 36.00000, Total charge = -0.00000
