  ==> Input File <==

--------------------------------------------------------------------------
set {
	reference rhf
	basis 6-31G*
}

set_num_threads( 4 )
memory 2 gb

molecule MOL {
0 1

O	 1.437049	 2.009477	 0.358665
C	 0.491211	 2.228871	 1.044504
C	 -0.807751	 1.460740	 1.021284
O	 0.458028	 3.202112	 1.946079
C	 -0.823008	 0.326187	 0.001381
H	 -0.982822	 1.088492	 2.027015
H	 -1.603721	 2.174726	 0.827955
C	 -2.149452	 -0.435131	 -0.000098
H	 -0.006083	 -0.356323	 0.213516
H	 -0.628763	 0.731058	 -0.986878
C	 -3.368779	 0.488503	 -0.000883
H	 -2.193746	 -1.087250	 -0.871175
H	 -2.195311	 -1.087803	 0.870418
C	 -4.693822	 -0.272754	 -0.001129
H	 -3.325798	 1.139422	 -0.871284
H	 -3.326423	 1.139959	 0.869145
H	 -4.781274	 -0.907928	 -0.878124
H	 -5.538651	 0.408946	 -0.001420
H	 -4.781694	 -0.907783	 0.875984
C	 1.619943	 4.001549	 2.071808
H	 2.468455	 3.396512	 2.357266
H	 1.399364	 4.723664	 2.842374
H	 1.838847	 4.503119	 1.140135

	symmetry c1
}
set optking {
	frozen_dihedral = ("
		9 5 8 12
	")
}

ee = optimize('scf')
oeprop('DIPOLE', 'QUADRUPOLE', 'MULLIKEN_CHARGES')
f=open( 'psi4out.xyz', 'w' )
f.write( "23  " )
f.write( str(ee) + "\n" )
f.write( MOL.save_string_xyz() )
f.close()
--------------------------------------------------------------------------

    Molecular point group: c1
  Charge       = 0
  Multiplicity = 1
  Basis Set: 6-31G*
  Basis Set:
  @DF-RHF Final Energy:  -422.97130088402923
    Total Energy =                       -422.9713008840287785
    Molecular point group: c1
  Basis Set: 6-31G*
  Basis Set:
  Basis Set: 6-31G*
  Basis Set:
  @DF-RHF Final Energy:  -422.97202732911956
    Total Energy =                       -422.9720273291193280
  Basis Set: 6-31G*
  Basis Set:
  Basis Set: 6-31G*
  Basis Set:
  @DF-RHF Final Energy:  -422.97329242082685
    Total Energy =                       -422.9732924208266240
  Basis Set: 6-31G*
  Basis Set:
  Basis Set: 6-31G*
  Basis Set:
  @DF-RHF Final Energy:  -422.97267403684020
    Total Energy =                       -422.9726740368398623
  Basis Set: 6-31G*
  Basis Set:
  @DF-RHF Final Energy:  -422.97336694168109
    Total Energy =                       -422.9733669416812063
  Basis Set: 6-31G*
  Basis Set:
  @DF-RHF Final Energy:  -422.97343539450623
    Total Energy =                       -422.9734353945061684
  Basis Set: 6-31G*
  Basis Set:
  Basis Set: 6-31G*
  Basis Set:
  @DF-RHF Final Energy:  -422.97344215152577
    Total Energy =                       -422.9734421515252052
  Basis Set: 6-31G*
  Basis Set:
  Basis Set: 6-31G*
  Basis Set:
  @DF-RHF Final Energy:  -422.97344902482831
    Total Energy =                       -422.9734490248282555
  Basis Set: 6-31G*
  Basis Set:
  Charge       = 0
  Multiplicity = 1
  Basis Set: 6-31G*
  Basis Set:

    Orbital Energies (a.u.)
    -----------------------

    Doubly Occupied:

       1A    -20.603401     2A    -20.545297     3A    -11.372027
       4A    -11.280703     5A    -11.234738     6A    -11.219608
       7A    -11.218842     8A    -11.218012     9A    -11.211135
      10A     -1.469128    11A     -1.362574    12A     -1.093487
      13A     -1.041623    14A     -0.986949    15A     -0.932924
      16A     -0.851647    17A     -0.792086    18A     -0.761616
      19A     -0.700419    20A     -0.682774    21A     -0.671605
      22A     -0.644322    23A     -0.615482    24A     -0.600423
      25A     -0.576910    26A     -0.558903    27A     -0.553200
      28A     -0.527172    29A     -0.520501    30A     -0.510178
      31A     -0.492300    32A     -0.466414    33A     -0.464697
      34A     -0.457402    35A     -0.452449    36A     -0.437467

  @DF-RHF Final Energy:  -422.97344919069553

   => Energetics <=

    Nuclear Repulsion Energy =            458.1257511521197330
    One-Electron Energy =               -1483.9415673388189134
    Two-Electron Energy =                 602.8423669960036477
    DFT Exchange-Correlation Energy =       0.0000000000000000
    Empirical Dispersion Energy =           0.0000000000000000
    PCM Polarization Energy =               0.0000000000000000
    EFP Energy =                            0.0000000000000000
    Total Energy =                       -422.9734491906954190
    Molecular point group: c1
  Basis Set: 6-31G*
  Basis Set:

  -Total Gradient:
     Atom            X                  Y                   Z
    ------   -----------------  -----------------  -----------------
       1       -0.000004765134     0.000010796681    -0.000004944090
       2        0.000001093134    -0.000006470657     0.000002374723
       3        0.000015139956    -0.000030507140     0.000013810944
       4        0.000010247850     0.000000774268     0.000008125800
       5        0.000013936152    -0.000377172604    -0.005229358047
       6       -0.000012682948     0.000008735525    -0.000008551715
       7       -0.000004261052    -0.000001033062    -0.000016754294
       8        0.002141328106    -0.003209725841     0.003443089631
       9       -0.000318020639     0.000810780948     0.003895721684
      10       -0.000007929368     0.000001020908     0.000007150143
      11        0.000004529576    -0.000010372470     0.000004427393
      12       -0.001831165771     0.002784660270    -0.002121489099
      13       -0.000000199963     0.000009880788     0.000002426552
      14       -0.000010167347     0.000006822029    -0.000005765218
      15       -0.000003013577     0.000001821181     0.000004665220
      16        0.000009635857    -0.000003954750     0.000004310654
      17        0.000006296247    -0.000001802373     0.000005289078
      18       -0.000007971664    -0.000002504174    -0.000005564073
      19       -0.000000917980     0.000005361274     0.000002721718
      20       -0.000001637060     0.000002333144    -0.000001686825
      21       -0.000000424082    -0.000000364228     0.000000044617
      22        0.000000273461     0.000000276722     0.000000043063
      23        0.000000676238     0.000000643562    -0.000000087860

  **** Optimization is complete! (in 9 steps) ****
    Final optimized geometry and variables:
    Molecular point group: c1

    Geometry (in Angstrom), charge = 0, multiplicity = 1:

    O            2.312155155914     0.480607004926    -0.342826665204
    C            1.370190521728     0.771959962074     0.321228469250
    C            0.023066749203     0.091129350511     0.286560821989
    O            1.383248907019     1.763654256234     1.203307186200
    C           -0.041690641318    -1.053100443183    -0.725134318248
    H           -0.186271198423    -0.261716119342     1.293353315776
    H           -0.715057019866     0.859311629983     0.082345696528
    C           -1.345143723092    -1.861556605187    -0.669699121962
    H            0.790358046078    -1.716531576719    -0.516402809387
    H            0.111154889483    -0.656659770583    -1.723426174046
    C           -2.633202472260    -1.031426671733    -0.710841425915
    H           -1.360596276292    -2.525310267193    -1.531077797975
    H           -1.351910688949    -2.490066129114     0.218355111248
    C           -3.884806664523    -1.902039966726    -0.821166155689
    H           -2.594910071011    -0.347259416553    -1.556752298521
    H           -2.712211944880    -0.414062739777     0.179740038580
    H           -3.868854256320    -2.499525545834    -1.728133159364
    H           -4.785281649436    -1.296012116849    -0.839673188573
    H           -3.962506959438    -2.583839898559     0.021166590803
    C            2.591897389065     2.489065656398     1.336781539094
    H            3.394119240345     1.836756251782     1.650585068584
    H            2.404229683879     3.239416306459     2.088946664649
    H            2.860057562932     2.956516480684     0.400245529224

  Mulliken Charges: (a.u.)
   Center  Symbol    Alpha    Beta     Spin     Total
       1     O     4.28597  4.28597  0.00000 -0.57194
       2     C     2.60477  2.60477  0.00000  0.79046
       3     C     3.21163  3.21163  0.00000 -0.42326
       4     O     4.30739  4.30739  0.00000 -0.61478
       5     C     3.15321  3.15321  0.00000 -0.30643
       6     H     0.40139  0.40139  0.00000  0.19722
       7     H     0.39841  0.39841  0.00000  0.20319
       8     C     3.15424  3.15424  0.00000 -0.30847
       9     H     0.40841  0.40841  0.00000  0.18318
      10     H     0.41279  0.41279  0.00000  0.17442
      11     C     3.15695  3.15695  0.00000 -0.31390
      12     H     0.41886  0.41886  0.00000  0.16228
      13     H     0.42245  0.42245  0.00000  0.15511
      14     C     3.23892  3.23892  0.00000 -0.47785
      15     H     0.42257  0.42257  0.00000  0.15487
      16     H     0.42184  0.42184  0.00000  0.15631
      17     H     0.42094  0.42094  0.00000  0.15813
      18     H     0.41873  0.41873  0.00000  0.16254
      19     H     0.42142  0.42142  0.00000  0.15716
      20     C     3.09238  3.09238  0.00000 -0.18476
      21     H     0.40914  0.40914  0.00000  0.18172
      22     H     0.40850  0.40850  0.00000  0.18299
      23     H     0.40910  0.40910  0.00000  0.18181

   Total alpha = 36.00000, Total beta = 36.00000, Total charge = -0.00000
