  ==> Input File <==

--------------------------------------------------------------------------
set {
	reference rhf
	basis cc-pvtz
}

set_num_threads( 4 )
memory 2 gb

molecule MOL {
0 1

H	 -0.855998	 -1.120848	 -0.692237
O	 -1.432053	 -0.565244	 -0.200812
C	 -0.727158	 0.534527	 0.310686
C	 0.680222	 0.664433	 -0.252229
H	 -1.306802	 1.408001	 0.044211
H	 -0.690821	 0.490158	 1.397609
C	 1.605391	 -0.489360	 0.123098
H	 0.615089	 0.745647	 -1.332226
H	 1.101414	 1.597893	 0.110950
H	 1.247627	 -1.432485	 -0.275204
H	 2.601435	 -0.332816	 -0.273062
H	 1.691776	 -0.589902	 1.200774

	symmetry c1
}
set optking {
	frozen_dihedral = ("
		1 2 3 4
	")
}

ee = optimize('scf')
oeprop('DIPOLE', 'QUADRUPOLE', 'MULLIKEN_CHARGES')
f=open( 'psi4out.xyz', 'w' )
f.write( "12  " )
f.write( str(ee) + "\n" )
f.write( MOL.save_string_xyz() )
f.close()
--------------------------------------------------------------------------

    Molecular point group: c1
  Charge       = 0
  Multiplicity = 1
  Basis Set: CC-PVTZ
  Basis Set:
  @DF-RHF Final Energy:  -193.18775521444158
    Total Energy =                       -193.1877552144414949
    Molecular point group: c1
  Basis Set: CC-PVTZ
  Basis Set:
  Basis Set: CC-PVTZ
  Basis Set:
  @DF-RHF Final Energy:  -193.18802922649238
    Total Energy =                       -193.1880292264923469
  Basis Set: CC-PVTZ
  Basis Set:
  Basis Set: CC-PVTZ
  Basis Set:
  @DF-RHF Final Energy:  -193.18812220917621
    Total Energy =                       -193.1881222091762424
  Basis Set: CC-PVTZ
  Basis Set:
  Charge       = 0
  Multiplicity = 1
  Basis Set: CC-PVTZ
  Basis Set:

    Orbital Energies (a.u.)
    -----------------------

    Doubly Occupied:

       1A    -20.543107     2A    -11.265342     3A    -11.225019
       4A    -11.219364     5A     -1.361762     6A     -1.056028
       7A     -0.930230     8A     -0.819941     9A     -0.674531
      10A     -0.644609    11A     -0.628807    12A     -0.579843
      13A     -0.551880    14A     -0.511612    15A     -0.494286
      16A     -0.466720    17A     -0.434486

  @DF-RHF Final Energy:  -193.18812249034957

   => Energetics <=

    Nuclear Repulsion Energy =            133.2461443153808034
    One-Electron Energy =                -526.0533960097820909
    Two-Electron Energy =                 199.6191292040516316
    DFT Exchange-Correlation Energy =       0.0000000000000000
    Empirical Dispersion Energy =           0.0000000000000000
    PCM Polarization Energy =               0.0000000000000000
    EFP Energy =                            0.0000000000000000
    Total Energy =                       -193.1881224903496843
    Molecular point group: c1
  Basis Set: CC-PVTZ
  Basis Set:

  -Total Gradient:
     Atom            X                  Y                   Z
    ------   -----------------  -----------------  -----------------
       1       -0.000081694504     0.000270378908    -0.000505445463
       2        0.000332272717    -0.000598142397     0.000872373217
       3       -0.000340049902     0.000601715165    -0.000741403399
       4        0.000144666215    -0.000255692111     0.000526920742
       5        0.000006287829     0.000087505322     0.000024396537
       6        0.000027488227    -0.000084776958    -0.000063419554
       7        0.000009093475    -0.000055818915    -0.000040402151
       8       -0.000020691022     0.000043764990    -0.000009661490
       9       -0.000021011349    -0.000022875532    -0.000011771784
      10       -0.000085721554    -0.000017554457     0.000023281848
      11        0.000054068937     0.000005745003    -0.000028529277
      12       -0.000024709069     0.000025750982    -0.000046339226

  **** Optimization is complete! (in 4 steps) ****
    Final optimized geometry and variables:
    Molecular point group: c1

    Geometry (in Angstrom), charge = 0, multiplicity = 1:

    H           -0.888932783463    -1.130746026248    -0.689712360534
    O           -1.449158800862    -0.564910254040    -0.193908653626
    C           -0.729701290615     0.527380077066     0.319277111387
    C            0.679146607661     0.656243646621    -0.238072625489
    H           -1.292266149387     1.425030558535     0.091269898183
    H           -0.684862114364     0.437204040022     1.401304645894
    C            1.611135912053    -0.490416988706     0.147765782370
    H            0.624049193322     0.743099373444    -1.320167058014
    H            1.095405558446     1.590773068323     0.124110104136
    H            1.256225912235    -1.449664414860    -0.214359036421
    H            2.600621858745    -0.338483636874    -0.266417896573
    H            1.707386980910    -0.565571121265     1.225132994486

  Mulliken Charges: (a.u.)
   Center  Symbol    Alpha    Beta     Spin     Total
       1     H     0.39161  0.39161  0.00000  0.21678
       2     O     4.20834  4.20834  0.00000 -0.41668
       3     C     2.95148  2.95148  0.00000  0.09704
       4     C     3.10528  3.10528  0.00000 -0.21056
       5     H     0.46200  0.46200  0.00000  0.07601
       6     H     0.47564  0.47564  0.00000  0.04872
       7     C     3.14322  3.14322  0.00000 -0.28643
       8     H     0.45027  0.45027  0.00000  0.09946
       9     H     0.45193  0.45193  0.00000  0.09614
      10     H     0.46173  0.46173  0.00000  0.07654
      11     H     0.44664  0.44664  0.00000  0.10671
      12     H     0.45186  0.45186  0.00000  0.09629

   Total alpha = 17.00000, Total beta = 17.00000, Total charge = -0.00000
