                              Psi4 1.0.54 Driver

  ==> Input File <==

--------------------------------------------------------------------------
set {
	reference rhf
	basis cc-pvtz
}

set_num_threads( 4 )
memory 2 gb

molecule MOL {
0 1

H	 2.614283	 2.028610	 0.296620
O	 3.358864	 1.662087	 -0.142800
C	 3.565468	 0.338079	 0.273842
C	 2.533667	 -0.637565	 -0.272227
H	 4.548038	 0.064914	 -0.086598
H	 3.593945	 0.282242	 1.360360
C	 1.912612	 -0.214758	 -1.601653
H	 3.002299	 -1.611114	 -0.380601
H	 1.749177	 -0.745936	 0.472911
C	 0.858404	 -1.201290	 -2.101889
H	 2.694729	 -0.113161	 -2.346618
H	 1.457084	 0.767752	 -1.490053
C	 0.149826	 -0.790059	 -3.393811
H	 1.319186	 -2.176376	 -2.240144
H	 0.109326	 -1.328929	 -1.325320
C	 1.034733	 -0.771682	 -4.638939
H	 -0.673111	 -1.478487	 -3.565190
H	 -0.301255	 0.190474	 -3.258774
C	 0.261984	 -0.452807	 -5.916275
H	 1.520274	 -1.739155	 -4.747170
H	 1.831126	 -0.043140	 -4.520675
C	 1.143152	 -0.429957	 -7.160828
H	 -0.529316	 -1.185452	 -6.049147
H	 -0.230647	 0.509656	 -5.806543
H	 1.625394	 -1.389344	 -7.316570
H	 0.563729	 -0.203643	 -8.048610
H	 1.922725	 0.319903	 -7.075221

	symmetry c1
}
set optking {
	frozen_dihedral = ("
		8 4 3 2
	")
}

ee,wfn = optimize('scf', return_wfn=True)
oeprop( wfn, 'DIPOLE', 'QUADRUPOLE', 'MULLIKEN_CHARGES')
f=open( 'psi4out.xyz', 'w' )
f.write( "27  " )
f.write( str(ee) + "\n" )
f.write( MOL.save_string_xyz() )
f.close()
--------------------------------------------------------------------------

    Molecular point group: c1
  Charge       = 0
  Multiplicity = 1
  Basis Set: CC-PVTZ
  Basis Set:
  @DF-RHF Final Energy:  -388.42266119314405
    Total Energy =                       -388.4226611931439948
    Molecular point group: c1
  Basis Set: CC-PVTZ
  Basis Set:
  Basis Set: CC-PVTZ
  Basis Set:
  @DF-RHF Final Energy:  -388.42343314710740
    Total Energy =                       -388.4234331471075166
  Basis Set: CC-PVTZ
  Basis Set:
  Basis Set: CC-PVTZ
  Basis Set:
  @DF-RHF Final Energy:  -388.42376400893522
    Total Energy =                       -388.4237640089352226
  Basis Set: CC-PVTZ
  Basis Set:
  Basis Set: CC-PVTZ
  Basis Set:
  @DF-RHF Final Energy:  -388.42377791289243
    Total Energy =                       -388.4237779128928878
  Basis Set: CC-PVTZ
  Basis Set:
  Basis Set: CC-PVTZ
  Basis Set:
  @DF-RHF Final Energy:  -388.42377951949197
    Total Energy =                       -388.4237795194923137
  Basis Set: CC-PVTZ
  Basis Set:
  Basis Set: CC-PVTZ
  Basis Set:
  @DF-RHF Final Energy:  -388.42378239529268
    Total Energy =                       -388.4237823952923918
  Basis Set: CC-PVTZ
  Basis Set:
  Charge       = 0
  Multiplicity = 1
  Basis Set: CC-PVTZ
  Basis Set:

    Orbital Energies (a.u.)
    -----------------------

    Doubly Occupied:

       1A    -20.546755     2A    -11.265753     3A    -11.213896
       4A    -11.210299     5A    -11.210063     6A    -11.209003
       7A    -11.208370     8A    -11.207370     9A    -11.204035
      10A     -1.364086    11A     -1.091506    12A     -1.058155
      13A     -1.008744    14A     -0.945729    15A     -0.885402
      16A     -0.819116    17A     -0.799325    18A     -0.773855
      19A     -0.686896    20A     -0.648615    21A     -0.641139
      22A     -0.614404    23A     -0.604142    24A     -0.585325
      25A     -0.570319    26A     -0.558019    27A     -0.539917
      28A     -0.520811    29A     -0.502454    30A     -0.493702
      31A     -0.477629    32A     -0.467067    33A     -0.463991
      34A     -0.456169    35A     -0.454627    36A     -0.439988
      37A     -0.423740

  @DF-RHF Final Energy:  -388.42378262378651

   => Energetics <=

    Nuclear Repulsion Energy =            460.9169103959914651
    One-Electron Energy =               -1440.3405544375787031
    Two-Electron Energy =                 590.9998614178008438
    DFT Exchange-Correlation Energy =       0.0000000000000000
    Empirical Dispersion Energy =           0.0000000000000000
    PCM Polarization Energy =               0.0000000000000000
    EFP Energy =                            0.0000000000000000
    Total Energy =                       -388.4237826237864510
    Molecular point group: c1
  Basis Set: CC-PVTZ
  Basis Set:

  -Total Gradient:
     Atom            X                  Y                   Z
    ------   -----------------  -----------------  -----------------
       1       -0.000009859753     0.000015074090     0.000002448232
       2        0.002668681911    -0.000869974731    -0.004208878982
       3       -0.003400102637     0.001514085399     0.004542669070
       4       -0.000654308085    -0.001979241479     0.005534713761
       5        0.000007586869    -0.000013909633     0.000000245079
       6       -0.000000323469    -0.000023627807     0.000013442949
       7        0.000006681454     0.000001599020    -0.000014904586
       8        0.001387983254     0.001364349157    -0.005894684390
       9       -0.000013672467    -0.000005978620     0.000025226279
      10        0.000010297007    -0.000009481398     0.000003150801
      11       -0.000007830294     0.000003924834    -0.000003922737
      12        0.000001904951    -0.000017630018     0.000004532784
      13       -0.000000405373     0.000014856421     0.000004134070
      14        0.000000717075     0.000005095268     0.000007179426
      15        0.000005627391     0.000001381723    -0.000003649322
      16       -0.000001496263    -0.000003404806    -0.000006417732
      17        0.000002999563     0.000004550035     0.000003076613
      18       -0.000003098541     0.000003479227    -0.000004262438
      19        0.000004738198    -0.000000844698    -0.000000591686
      20        0.000000824325    -0.000001320194    -0.000002476141
      21       -0.000004508471    -0.000001155601    -0.000002215868
      22       -0.000001715137    -0.000001282512     0.000002045529
      23        0.000001060338    -0.000001034684    -0.000002126352
      24       -0.000001191400     0.000001385648     0.000001932114
      25        0.000002149441    -0.000002240682     0.000000053712
      26       -0.000002205418     0.000001056932    -0.000002405766
      27       -0.000000534466     0.000000289108     0.000001685588

  **** Optimization is complete! (in 7 steps) ****
    Final optimized geometry and variables:
    Molecular point group: c1

    Geometry (in Angstrom), charge = 0, multiplicity = 1:

    H            0.947459437633     2.384217137802     3.014158674521
    O            1.684307396779     2.006680771401     2.568971251947
    C            1.875136990385     0.678446777640     2.978834982447
    C            0.798087793988    -0.302349338829     2.499878745738
    H            2.827452432751     0.394097528555     2.550706952321
    H            1.981703070321     0.619794976362     4.058222722947
    C            0.184412579851     0.056572471444     1.145644967429
    H            1.271510882830    -1.273539478425     2.387687087759
    H            0.010694475153    -0.403030056217     3.241485833597
    C           -0.780281722710    -1.017820230836     0.646172993440
    H            0.982497087629     0.209846962436     0.427654925642
    H           -0.340490991742     1.002994373098     1.215633923214
    C           -1.511145720436    -0.671650652048    -0.652457238496
    H           -0.242539386820    -1.954161580841     0.514835136376
    H           -1.523247532079    -1.203974294044     1.417521835271
    C           -0.618396331539    -0.571662099603    -1.887906020415
    H           -2.267688282308    -1.430632178823    -0.832671655989
    H           -2.048680654218     0.264769174008    -0.521654299315
    C           -1.402469697566    -0.318075909737    -3.172837442204
    H           -0.049018953230    -1.492821393599    -1.993173854594
    H            0.109188886455     0.223327061816    -1.758210800768
    C           -0.513500162880    -0.214000522594    -4.407633803521
    H           -2.125372264096    -1.116607763771    -3.316248867877
    H           -1.978265034601     0.597386229047    -3.066359551431
    H            0.051734393790    -1.127429809976    -4.560956632971
    H           -1.100745430960    -0.035267479100    -5.301177522951
    H            0.197126745266     0.600090019117    -4.310824608864

  Mulliken Charges: (a.u.)
   Center  Symbol    Alpha    Beta     Spin     Total
       1     H     0.39571  0.39571  0.00000  0.20857
       2     O     4.20145  4.20145  0.00000 -0.40290
       3     C     2.97833  2.97833  0.00000  0.04334
       4     C     3.11808  3.11808  0.00000 -0.23615
       5     H     0.45607  0.45607  0.00000  0.08787
       6     H     0.45975  0.45975  0.00000  0.08049
       7     C     3.07901  3.07901  0.00000 -0.15802
       8     H     0.45379  0.45379  0.00000  0.09243
       9     H     0.45113  0.45113  0.00000  0.09774
      10     C     3.09891  3.09891  0.00000 -0.19782
      11     H     0.44941  0.44941  0.00000  0.10118
      12     H     0.45541  0.45541  0.00000  0.08917
      13     C     3.09743  3.09743  0.00000 -0.19486
      14     H     0.45418  0.45418  0.00000  0.09163
      15     H     0.44984  0.44984  0.00000  0.10032
      16     C     3.08827  3.08827  0.00000 -0.17654
      17     H     0.44909  0.44909  0.00000  0.10183
      18     H     0.45436  0.45436  0.00000  0.09127
      19     C     3.08392  3.08392  0.00000 -0.16783
      20     H     0.45589  0.45589  0.00000  0.08822
      21     H     0.45142  0.45142  0.00000  0.09716
      22     C     3.14978  3.14978  0.00000 -0.29956
      23     H     0.45460  0.45460  0.00000  0.09080
      24     H     0.45482  0.45482  0.00000  0.09037
      25     H     0.45557  0.45557  0.00000  0.08885
      26     H     0.44889  0.44889  0.00000  0.10223
      27     H     0.45488  0.45488  0.00000  0.09023

   Total alpha = 37.00000, Total beta = 37.00000, Total charge =  0.00000

*** Psi4 exiting successfully. Buy a developer a beer!
