                              Psi4 1.0.54 Driver

  ==> Input File <==

--------------------------------------------------------------------------
set {
	reference rhf
	basis cc-pvtz
}

set_num_threads( 4 )
memory 2 gb

molecule MOL {
0 1

O	 1.569620	 0.715356	 -0.922910
C	 1.121787	 0.124983	 0.000110
C	 -0.170912	 -0.649867	 -0.000147
O	 1.715510	 0.068893	 1.181094
C	 -1.413045	 0.229353	 0.001137
H	 -0.152877	 -1.303435	 -0.866175
H	 -0.152278	 -1.305116	 0.864586
C	 -2.702562	 -0.586401	 0.000228
H	 -1.390744	 0.882001	 -0.864365
H	 -1.390549	 0.879837	 0.868264
C	 -3.953810	 0.284959	 -0.000782
H	 -2.717793	 -1.238567	 -0.869075
H	 -2.719108	 -1.238472	 0.869576
H	 -3.983727	 0.924403	 -0.876454
H	 -4.852989	 -0.320147	 -0.001515
H	 -3.985140	 0.924399	 0.874841
C	 2.942861	 0.754914	 1.323588
H	 3.679174	 0.366016	 0.635962
H	 3.259704	 0.589933	 2.340573
H	 2.812843	 1.811195	 1.140314

	symmetry c1
}
set optking {
	frozen_dihedral = ("
		1 2 3 6
	")
}

ee,wfn = optimize('scf', return_wfn=True)
oeprop( wfn, 'DIPOLE', 'QUADRUPOLE', 'MULLIKEN_CHARGES')
f=open( 'psi4out.xyz', 'w' )
f.write( "20  " )
f.write( str(ee) + "\n" )
f.write( MOL.save_string_xyz() )
f.close()
--------------------------------------------------------------------------

    Molecular point group: c1
  Charge       = 0
  Multiplicity = 1
  Basis Set: CC-PVTZ
  Basis Set:
  @DF-RHF Final Energy:  -384.08112928037332
    Total Energy =                       -384.0811292803728065
    Molecular point group: c1
  Basis Set: CC-PVTZ
  Basis Set:
  Basis Set: CC-PVTZ
  Basis Set:
  @DF-RHF Final Energy:  -384.08152287136562
    Total Energy =                       -384.0815228713655642
  Basis Set: CC-PVTZ
  Basis Set:
  Basis Set: CC-PVTZ
  Basis Set:
  @DF-RHF Final Energy:  -384.08187114010809
    Total Energy =                       -384.0818711401082055
  Basis Set: CC-PVTZ
  Basis Set:
  Basis Set: CC-PVTZ
  Basis Set:
  @DF-RHF Final Energy:  -384.08190684837615
    Total Energy =                       -384.0819068483760930
  Basis Set: CC-PVTZ
  Basis Set:
  Basis Set: CC-PVTZ
  Basis Set:
  @DF-RHF Final Energy:  -384.08190852326857
    Total Energy =                       -384.0819085232691350
  Basis Set: CC-PVTZ
  Basis Set:
  Charge       = 0
  Multiplicity = 1
  Basis Set: CC-PVTZ
  Basis Set:

    Orbital Energies (a.u.)
    -----------------------

    Doubly Occupied:

       1A    -20.598533     2A    -20.531113     3A    -11.363701
       4A    -11.278499     5A    -11.232063     6A    -11.225867
       7A    -11.221256     8A    -11.211457     9A     -1.472308
      10A     -1.364372    11A     -1.092597    12A     -1.025518
      13A     -0.969891    14A     -0.888980    15A     -0.806507
      16A     -0.774818    17A     -0.697168    18A     -0.683427
      19A     -0.676181    20A     -0.648504    21A     -0.599835
      22A     -0.593272    23A     -0.575122    24A     -0.554038
      25A     -0.535438    26A     -0.523555    27A     -0.507476
      28A     -0.481791    29A     -0.478833    30A     -0.475271
      31A     -0.457434    32A     -0.434674

  @DF-RHF Final Energy:  -384.08190903879881

   => Energetics <=

    Nuclear Repulsion Energy =            382.8822605971824942
    One-Electron Energy =               -1281.9693420363082623
    Two-Electron Energy =                 515.0051724003275240
    DFT Exchange-Correlation Energy =       0.0000000000000000
    Empirical Dispersion Energy =           0.0000000000000000
    PCM Polarization Energy =               0.0000000000000000
    EFP Energy =                            0.0000000000000000
    Total Energy =                       -384.0819090387982442
    Molecular point group: c1
  Basis Set: CC-PVTZ
  Basis Set:

  -Total Gradient:
     Atom            X                  Y                   Z
    ------   -----------------  -----------------  -----------------
       1       -0.000096905539     0.000109405346     0.000129840525
       2        0.000125017900    -0.000200560136    -0.000168195529
       3       -0.000142202303     0.000194666485    -0.000087914671
       4        0.000061012234     0.000013854702     0.000019716120
       5       -0.000035175184     0.000017676912     0.000005535399
       6        0.000079672128    -0.000143587346     0.000093901521
       7        0.000012770347     0.000015552634    -0.000014387111
       8        0.000005875838    -0.000000859545    -0.000005422296
       9       -0.000002062939    -0.000008127842     0.000003331943
      10       -0.000012485052     0.000005874366    -0.000002843268
      11        0.000014527014     0.000011998407     0.000008865476
      12        0.000006675606    -0.000001884421    -0.000004418025
      13        0.000002786870    -0.000005971294     0.000000504495
      14       -0.000001583412     0.000000062435    -0.000001217356
      15        0.000003707141    -0.000003675896     0.000002303299
      16       -0.000004161395     0.000005446220     0.000000334218
      17       -0.000036800967    -0.000007871542     0.000023151928
      18        0.000005128797    -0.000007282172    -0.000011221890
      19        0.000012575802     0.000003798661     0.000007100676
      20        0.000001627115     0.000001484025     0.000001034543

  **** Optimization is complete! (in 6 steps) ****
    Final optimized geometry and variables:
    Molecular point group: c1

    Geometry (in Angstrom), charge = 0, multiplicity = 1:

    O            1.557944808364     0.605899195037    -1.126720727678
    C            1.188182625488    -0.025425433580    -0.194967531502
    C           -0.081991115736    -0.836768275135    -0.174091966964
    O            1.843284818118    -0.074100392766     0.951903892033
    C           -1.317083052135     0.069017183877    -0.174651825548
    H           -0.080408995093    -1.452932389453    -1.064887912180
    H           -0.085093404515    -1.484502724299     0.691227241038
    C           -2.620621327490    -0.722807750766    -0.200486574112
    H           -1.269036107985     0.727399845474    -1.034323836035
    H           -1.297552915535     0.702828061654     0.707701962667
    C           -3.855879816750     0.171137971836    -0.198138174073
    H           -2.635790079318    -1.357423116688    -1.082104573006
    H           -2.655493611167    -1.389128280249     0.656912325181
    H           -3.865658171342     0.826436832327    -1.062379466110
    H           -4.764998956664    -0.418341885124    -0.219133500162
    H           -3.886146463376     0.794598910199     0.689114563447
    C            3.037953931320     0.675874094523     1.046768667554
    H            3.756323488844     0.341096998556     0.313384677476
    H            3.415911104564     0.508796683292     2.042317858636
    H            2.841203778828     1.726475645021     0.893179680296

  Mulliken Charges: (a.u.)
   Center  Symbol    Alpha    Beta     Spin     Total
       1     O     4.20554  4.20554  0.00000 -0.41108
       2     C     2.80998  2.80998  0.00000  0.38004
       3     C     3.07853  3.07853  0.00000 -0.15706
       4     O     4.14628  4.14628  0.00000 -0.29256
       5     C     3.09477  3.09477  0.00000 -0.18955
       6     H     0.44277  0.44277  0.00000  0.11446
       7     H     0.44151  0.44151  0.00000  0.11697
       8     C     3.08867  3.08867  0.00000 -0.17733
       9     H     0.44067  0.44067  0.00000  0.11867
      10     H     0.45106  0.45106  0.00000  0.09788
      11     C     3.14930  3.14930  0.00000 -0.29860
      12     H     0.45276  0.45276  0.00000  0.09449
      13     H     0.45390  0.45390  0.00000  0.09219
      14     H     0.45313  0.45313  0.00000  0.09373
      15     H     0.44768  0.44768  0.00000  0.10464
      16     H     0.45457  0.45457  0.00000  0.09085
      17     C     3.03556  3.03556  0.00000 -0.07113
      18     H     0.45381  0.45381  0.00000  0.09237
      19     H     0.44533  0.44533  0.00000  0.10933
      20     H     0.45416  0.45416  0.00000  0.09168

   Total alpha = 32.00000, Total beta = 32.00000, Total charge =  0.00000

*** Psi4 exiting successfully. Buy a developer a beer!
