  ==> Input File <==

--------------------------------------------------------------------------
set {
	reference rhf
	basis 6-31G*
}

set_num_threads( 1 )
memory 2 gb

molecule MOL {
0 1

H	 -3.161837	 0.500524	 -0.000234
C	 -2.367097	 -0.232926	 -0.000000
O	 -1.158440	 0.455814	 -0.000122
H	 -2.468853	 -0.861886	 -0.882833
H	 -2.468942	 -0.861421	 0.883154
C	 -0.029776	 -0.365156	 0.000148
C	 -0.478787	 -1.815808	 -0.025513
H	 0.574990	 -0.171609	 0.887107
H	 0.593741	 -0.146393	 -0.867767
C	 0.697097	 -2.791603	 -0.026640
H	 -1.113762	 -1.994903	 0.836690
H	 -1.095098	 -1.969940	 -0.905912
H	 1.313796	 -2.670267	 0.859579
H	 0.348028	 -3.818559	 -0.045605
H	 1.333103	 -2.644666	 -0.895149

	symmetry c1
}
set optking {
	frozen_dihedral = ("
		6 3 2 4,
		11 7 6 8
	")
}

ee = energy('scf')
oeprop('DIPOLE', 'QUADRUPOLE', 'MULLIKEN_CHARGES')
f=open( 'psi4out.xyz', 'w' )
f.write( "15  " )
f.write( str(ee) + "\n" )
f.write( MOL.save_string_xyz() )
f.close()
--------------------------------------------------------------------------

    Molecular point group: c1

    Geometry (in Angstrom), charge = 0, multiplicity = 1:

       Center              X                  Y                   Z               Mass
    ------------   -----------------  -----------------  -----------------  -----------------
           H         -2.475153469520     1.444575487843     0.009999209620     1.007825032070
           C         -1.680413469520     0.711125487843     0.010233209620    12.000000000000
           O         -0.471756469520     1.399865487843     0.010111209620    15.994914619560
           H         -1.782169469520     0.082165487843    -0.872599790380     1.007825032070
           H         -1.782258469520     0.082630487843     0.893387209620     1.007825032070
           C          0.656907530480     0.578895487843     0.010381209620    12.000000000000
           C          0.207896530480    -0.871756512157    -0.015279790380    12.000000000000
           H          1.261673530480     0.772442487843     0.897340209620     1.007825032070
           H          1.280424530480     0.797658487843    -0.857533790380     1.007825032070
           C          1.383780530480    -1.847551512157    -0.016406790380    12.000000000000
           H         -0.427078469520    -1.050851512157     0.846923209620     1.007825032070
           H         -0.408414469520    -1.025888512157    -0.895678790380     1.007825032070
           H          2.000479530480    -1.726215512157     0.869812209620     1.007825032070
           H          1.034711530480    -2.874507512157    -0.035371790380     1.007825032070
           H          2.019786530480    -1.700614512157    -0.884915790380     1.007825032070

  Charge       = 0
  Multiplicity = 1
  Basis Set: 6-31G*
  Basis Set:

    Orbital Energies (a.u.)
    -----------------------

    Doubly Occupied:

       1A    -20.549413     2A    -11.266350     3A    -11.260254
       4A    -11.218711     5A    -11.215670     6A     -1.379100
       7A     -1.057487     8A     -0.962911     9A     -0.899619
      10A     -0.790261    11A     -0.684845    12A     -0.667725
      13A     -0.627406    14A     -0.596841    15A     -0.557182
      16A     -0.553614    17A     -0.523966    18A     -0.498820
      19A     -0.496917    20A     -0.440789    21A     -0.398531

  @DF-RHF Final Energy:  -232.10883305925680

   => Energetics <=

    Nuclear Repulsion Energy =            196.5244302037109208
    One-Electron Energy =                -703.9736996623576033
    Two-Electron Energy =                 275.3404363993906827
    DFT Exchange-Correlation Energy =       0.0000000000000000
    Empirical Dispersion Energy =           0.0000000000000000
    PCM Polarization Energy =               0.0000000000000000
    EFP Energy =                            0.0000000000000000
    Total Energy =                       -232.1088330592559714

  Mulliken Charges: (a.u.)
   Center  Symbol    Alpha    Beta     Spin     Total
       1     H     0.40889  0.40889  0.00000  0.18221
       2     C     3.08490  3.08490  0.00000 -0.16980
       3     O     4.31291  4.31291  0.00000 -0.62581
       4     H     0.42810  0.42810  0.00000  0.14380
       5     H     0.42809  0.42809  0.00000  0.14383
       6     C     2.96643  2.96643  0.00000  0.06713
       7     C     3.19300  3.19300  0.00000 -0.38600
       8     H     0.42643  0.42643  0.00000  0.14713
       9     H     0.42594  0.42594  0.00000  0.14812
      10     C     3.23996  3.23996  0.00000 -0.47992
      11     H     0.41426  0.41426  0.00000  0.17149
      12     H     0.41407  0.41407  0.00000  0.17187
      13     H     0.42003  0.42003  0.00000  0.15994
      14     H     0.41696  0.41696  0.00000  0.16608
      15     H     0.42003  0.42003  0.00000  0.15994

   Total alpha = 21.00000, Total beta = 21.00000, Total charge =  0.00000
