  ==> Input File <==

--------------------------------------------------------------------------
set {
	reference rhf
	basis cc-pvtz
}

set_num_threads( 4 )
memory 2 gb

molecule MOL {
0 1

O	 2.640053	 1.706200	 0.470900
C	 2.135523	 1.256464	 1.447269
C	 0.861081	 0.438440	 1.397589
C	 2.738368	 1.473128	 2.816889
C	 0.288398	 0.247429	 0.000314
H	 1.070314	 -0.522108	 1.863031
H	 0.136128	 0.921947	 2.048490
C	 -0.993089	 -0.581367	 -0.000217
H	 1.034038	 -0.226594	 -0.627729
H	 0.099156	 1.218796	 -0.442141
C	 -2.258482	 0.271340	 0.000669
H	 -1.002280	 -1.233920	 -0.870484
H	 -1.002061	 -1.235367	 0.868958
C	 -3.544441	 -0.550271	 -0.000253
H	 -2.250545	 0.925250	 -0.867923
H	 -2.250598	 0.923423	 0.870642
C	 -4.804551	 0.308747	 0.000556
H	 -3.553737	 -1.201524	 -0.870151
H	 -3.553831	 -1.203282	 0.868313
H	 -4.842050	 0.949078	 -0.874436
H	 -5.698404	 -0.304480	 -0.000254
H	 -4.842277	 0.947103	 0.876982
H	 2.970226	 0.519677	 3.278648
H	 3.637329	 2.063931	 2.731963
H	 2.028540	 1.979184	 3.461941

	symmetry c1
}
set optking {
	frozen_dihedral = ("
		9 5 8 12
	")
}

ee = optimize('scf')
oeprop('DIPOLE', 'QUADRUPOLE', 'MULLIKEN_CHARGES')
f=open( 'psi4out.xyz', 'w' )
f.write( "25  " )
f.write( str(ee) + "\n" )
f.write( MOL.save_string_xyz() )
f.close()
--------------------------------------------------------------------------

    Molecular point group: c1
  Charge       = 0
  Multiplicity = 1
  Basis Set: CC-PVTZ
  Basis Set:
  @DF-RHF Final Energy:  -387.27046078260878
    Total Energy =                       -387.2704607826082110
    Molecular point group: c1
  Basis Set: CC-PVTZ
  Basis Set:
  Basis Set: CC-PVTZ
  Basis Set:
  @DF-RHF Final Energy:  -387.27075385372962
    Total Energy =                       -387.2707538537298433
  Basis Set: CC-PVTZ
  Basis Set:
  Basis Set: CC-PVTZ
  Basis Set:
  @DF-RHF Final Energy:  -387.27062913974135
    Total Energy =                       -387.2706291397415725
  Basis Set: CC-PVTZ
  Basis Set:
  Basis Set: CC-PVTZ
  Basis Set:
  @DF-RHF Final Energy:  -387.27081558405297
    Total Energy =                       -387.2708155840534801
  Basis Set: CC-PVTZ
  Basis Set:
  Basis Set: CC-PVTZ
  Basis Set:
  @DF-RHF Final Energy:  -387.27081703552795
    Total Energy =                       -387.2708170355275570
  Basis Set: CC-PVTZ
  Basis Set:
  Charge       = 0
  Multiplicity = 1
  Basis Set: CC-PVTZ
  Basis Set:

    Orbital Energies (a.u.)
    -----------------------

    Doubly Occupied:

       1A    -20.538965     2A    -11.320483     3A    -11.230532
       4A    -11.226642     5A    -11.215035     6A    -11.214764
       7A    -11.214424     8A    -11.213628     9A    -11.207934
      10A     -1.398956    11A     -1.095035    12A     -1.057467
      13A     -1.015247    14A     -0.969695    15A     -0.894868
      16A     -0.816414    17A     -0.790949    18A     -0.733514
      19A     -0.660873    20A     -0.645772    21A     -0.642168
      22A     -0.623842    23A     -0.599243    24A     -0.575941
      25A     -0.571593    26A     -0.567229    27A     -0.542374
      28A     -0.524966    29A     -0.519172    30A     -0.495211
      31A     -0.486270    32A     -0.479283    33A     -0.464445
      34A     -0.460765    35A     -0.447226    36A     -0.402141

  @DF-RHF Final Energy:  -387.27081740704574

   => Energetics <=

    Nuclear Repulsion Energy =            443.4366223747762774
    One-Electron Energy =               -1403.6887454537038593
    Two-Electron Energy =                 572.9813056718816142
    DFT Exchange-Correlation Energy =       0.0000000000000000
    Empirical Dispersion Energy =           0.0000000000000000
    PCM Polarization Energy =               0.0000000000000000
    EFP Energy =                            0.0000000000000000
    Total Energy =                       -387.2708174070459108
    Molecular point group: c1
  Basis Set: CC-PVTZ
  Basis Set:

  -Total Gradient:
     Atom            X                  Y                   Z
    ------   -----------------  -----------------  -----------------
       1        0.000000881169     0.000008193579     0.000002972640
       2        0.000001185753    -0.000015730458    -0.000012357067
       3       -0.000033473932     0.000007913021    -0.000003184341
       4        0.000016442662    -0.000018560367    -0.000002050134
       5        0.001659005344    -0.002806648864     0.003739726454
       6        0.000004040849     0.000000509341    -0.000005360029
       7       -0.000002895881    -0.000014822291    -0.000011789996
       8       -0.002097388638     0.003467630573    -0.002846296549
       9       -0.001060374293     0.001798355070    -0.002642942581
      10        0.000002645515     0.000009963039    -0.000029234756
      11        0.000024577225    -0.000004153638     0.000023637968
      12        0.001470141101    -0.002424220425     0.001778427985
      13        0.000012343273    -0.000026257098     0.000009998509
      14        0.000014606285    -0.000001608416     0.000007057325
      15        0.000012906490     0.000006121904     0.000008147340
      16        0.000004300406    -0.000005653402    -0.000002872673
      17       -0.000011262394    -0.000003955107    -0.000020464847
      18       -0.000005362627    -0.000004283422     0.000003643363
      19        0.000003892292     0.000005742122    -0.000001572459
      20       -0.000002050894     0.000003494837     0.000003145886
      21       -0.000005960983     0.000003098207    -0.000002915341
      22        0.000003320089    -0.000005097517     0.000001052576
      23       -0.000008173056     0.000006911412     0.000003015213
      24       -0.000000304958     0.000002997057     0.000001824075
      25       -0.000003040788     0.000010060848    -0.000001608562

  **** Optimization is complete! (in 6 steps) ****
    Final optimized geometry and variables:
    Molecular point group: c1

    Geometry (in Angstrom), charge = 0, multiplicity = 1:

    O            2.954325810575     1.222596620661    -0.200007529970
    C            2.456008173659     0.749906770734     0.768635648715
    C            1.203802129972    -0.100917796813     0.703489096770
    C            3.045380472781     0.967793192181     2.144053460887
    C            0.652906763298    -0.306224448727    -0.700643095519
    H            1.432920802012    -1.056556674976     1.168999687343
    H            0.460501581905     0.362790018920     1.347890487393
    C           -0.655654210074    -1.111613483329    -0.728720559249
    H            1.401926373928    -0.782049924158    -1.320705945204
    H            0.491678115558     0.663532108898    -1.157616511685
    C           -1.914945973223    -0.249732732867    -0.702423737824
    H           -0.667425854435    -1.752506041460    -1.604361871585
    H           -0.677692906173    -1.794873253644     0.117804918625
    C           -3.206227017781    -1.061686669224    -0.666897348951
    H           -1.920958062320     0.396230558249    -1.576583181277
    H           -1.886061550455     0.411510420248     0.161029861718
    C           -4.460628232498    -0.194322510387    -0.660523269783
    H           -3.233561668511    -1.727623883602    -1.525100088160
    H           -3.205360098641    -1.699889863050     0.212636195832
    H           -4.508731984132     0.430607006408    -1.546018451036
    H           -5.358232205967    -0.801475017031    -0.635605340592
    H           -4.480067191959     0.459743836050     0.205024566872
    H            3.301675225730     0.015995831425     2.596131074535
    H            3.927856359553     1.584519778215     2.070862675559
    H            2.318259709963     1.446365594440     2.790859343328

  Mulliken Charges: (a.u.)
   Center  Symbol    Alpha    Beta     Spin     Total
       1     O     4.17078  4.17078  0.00000 -0.34155
       2     C     2.86248  2.86248  0.00000  0.27504
       3     C     3.10926  3.10926  0.00000 -0.21851
       4     C     3.15087  3.15087  0.00000 -0.30173
       5     C     3.09504  3.09504  0.00000 -0.19008
       6     H     0.44439  0.44439  0.00000  0.11122
       7     H     0.44563  0.44563  0.00000  0.10874
       8     C     3.10135  3.10135  0.00000 -0.20270
       9     H     0.43971  0.43971  0.00000  0.12057
      10     H     0.44659  0.44659  0.00000  0.10681
      11     C     3.08429  3.08429  0.00000 -0.16857
      12     H     0.44444  0.44444  0.00000  0.11112
      13     H     0.45795  0.45795  0.00000  0.08410
      14     C     3.08528  3.08528  0.00000 -0.17056
      15     H     0.45204  0.45204  0.00000  0.09591
      16     H     0.45686  0.45686  0.00000  0.08628
      17     C     3.14970  3.14970  0.00000 -0.29940
      18     H     0.45387  0.45387  0.00000  0.09226
      19     H     0.45476  0.45476  0.00000  0.09049
      20     H     0.45443  0.45443  0.00000  0.09114
      21     H     0.44827  0.44827  0.00000  0.10347
      22     H     0.45576  0.45576  0.00000  0.08848
      23     H     0.45031  0.45031  0.00000  0.09937
      24     H     0.43537  0.43537  0.00000  0.12926
      25     H     0.45058  0.45058  0.00000  0.09884

   Total alpha = 36.00000, Total beta = 36.00000, Total charge = -0.00000
