                              Psi4 1.0.54 Driver

  ==> Input File <==

--------------------------------------------------------------------------
set {
	reference rhf
	basis cc-pvtz
}

set_num_threads( 4 )
memory 2 gb

molecule MOL {
0 1

H	 -3.144994	 -1.202467	 -0.018751
O	 -2.321472	 -0.864941	 -0.318626
C	 -2.021813	 0.336996	 0.342658
C	 -0.669613	 0.837286	 -0.127252
H	 -2.780861	 1.084746	 0.127159
H	 -2.006390	 0.184138	 1.420053
C	 0.490865	 -0.082543	 0.241244
H	 -0.708709	 0.967192	 -1.204587
H	 -0.507562	 1.822272	 0.303070
C	 1.515217	 0.584879	 1.154403
H	 0.979098	 -0.420948	 -0.665490
H	 0.100099	 -0.971895	 0.731627
C	 2.671397	 -0.336189	 1.529459
H	 1.907122	 1.471936	 0.664258
H	 1.022524	 0.930407	 2.059695
H	 3.206057	 -0.670607	 0.646725
H	 3.381660	 0.166817	 2.175846
H	 2.315690	 -1.218011	 2.052247

	symmetry c1
}
set optking {
	frozen_dihedral = ("
		10 7 4 8
	")
}

ee,wfn = optimize('scf', return_wfn=True)
oeprop( wfn, 'DIPOLE', 'QUADRUPOLE', 'MULLIKEN_CHARGES')
f=open( 'psi4out.xyz', 'w' )
f.write( "18  " )
f.write( str(ee) + "\n" )
f.write( MOL.save_string_xyz() )
f.close()
--------------------------------------------------------------------------

    Molecular point group: c1
  Charge       = 0
  Multiplicity = 1
  Basis Set: CC-PVTZ
  Basis Set:
  @DF-RHF Final Energy:  -271.28162751665013
    Total Energy =                       -271.2816275166502464
    Molecular point group: c1
  Basis Set: CC-PVTZ
  Basis Set:
  Basis Set: CC-PVTZ
  Basis Set:
  @DF-RHF Final Energy:  -271.28185482322658
    Total Energy =                       -271.2818548232264675
  Basis Set: CC-PVTZ
  Basis Set:
  Basis Set: CC-PVTZ
  Basis Set:
  @DF-RHF Final Energy:  -271.28191129300058
    Total Energy =                       -271.2819112930004053
  Basis Set: CC-PVTZ
  Basis Set:
  Charge       = 0
  Multiplicity = 1
  Basis Set: CC-PVTZ
  Basis Set:

    Orbital Energies (a.u.)
    -----------------------

    Doubly Occupied:

       1A    -20.546286     2A    -11.266150     3A    -11.210645
       4A    -11.210113     5A    -11.205427     6A    -11.203521
       7A     -1.364332     8A     -1.075265     9A     -1.009794
      10A     -0.914344    11A     -0.822517    12A     -0.783574
      13A     -0.705410    14A     -0.652467    15A     -0.619590
      16A     -0.580223    17A     -0.572939    18A     -0.559529
      19A     -0.525976    20A     -0.507391    21A     -0.484972
      22A     -0.469455    23A     -0.456205    24A     -0.450358
      25A     -0.430985

  @DF-RHF Final Energy:  -271.28191192710062

   => Energetics <=

    Nuclear Repulsion Energy =            249.8407832439118863
    One-Electron Energy =                -862.9904579059314074
    Two-Electron Energy =                 341.8677627349187560
    DFT Exchange-Correlation Energy =       0.0000000000000000
    Empirical Dispersion Energy =           0.0000000000000000
    PCM Polarization Energy =               0.0000000000000000
    EFP Energy =                            0.0000000000000000
    Total Energy =                       -271.2819119271007366
    Molecular point group: c1
  Basis Set: CC-PVTZ
  Basis Set:

  -Total Gradient:
     Atom            X                  Y                   Z
    ------   -----------------  -----------------  -----------------
       1        0.000004658397     0.000025676932     0.000010677474
       2        0.000107778090    -0.000046992867     0.000048973124
       3       -0.000110803284     0.000092162623    -0.000090263092
       4       -0.000201456450    -0.000351358184    -0.000060624540
       5       -0.000006040385     0.000029606436     0.000020493657
       6        0.000022260996    -0.000032502465    -0.000028072277
       7       -0.000128501845    -0.000017787557     0.000239084343
       8        0.000185156149     0.000257332265     0.000053189920
       9        0.000001358807    -0.000008933881     0.000010221104
      10        0.000134069231     0.000080349134    -0.000196322888
      11        0.000016064680    -0.000003854989    -0.000006468315
      12       -0.000010394951    -0.000003294443     0.000002545989
      13       -0.000000540166    -0.000018232134     0.000005941476
      14       -0.000011133481    -0.000005969226    -0.000007476332
      15       -0.000008878006     0.000004054116    -0.000006885212
      16       -0.000002963842     0.000002334577     0.000004320192
      17        0.000001593730    -0.000000242613     0.000003362468
      18        0.000007772332    -0.000002347725    -0.000002697089

  **** Optimization is complete! (in 4 steps) ****
    Final optimized geometry and variables:
    Molecular point group: c1

    Geometry (in Angstrom), charge = 0, multiplicity = 1:

    H           -3.024239013904    -1.267283350653    -0.468051109648
    O           -2.212500291608    -0.914819987842    -0.782412209385
    C           -1.922348864712     0.292042705612    -0.126734667585
    C           -0.571311432664     0.792938582224    -0.597362715914
    H           -2.685494965361     1.034662514122    -0.346078388375
    H           -1.906569400209     0.143593083933     0.951593642238
    C            0.603161377969    -0.131603951117    -0.222103550423
    H           -0.619136606830     0.929126611282    -1.671564779113
    H           -0.418496297845     1.779389541532    -0.169627983393
    C            1.630344329026     0.531280266347     0.693050650088
    H            1.103408028772    -0.472549267409    -1.122007184520
    H            0.221019929072    -1.026495952991     0.256654514671
    C            2.783574055838    -0.392969786996     1.067347390227
    H            2.023686178043     1.420049377677     0.206579739060
    H            1.136028623258     0.875370707542     1.598396962505
    H            3.318966330060    -0.726502562824     0.184587956213
    H            3.494275914118     0.106476451446     1.716043226975
    H            2.424613208250    -1.275519880123     1.586417488297

  Mulliken Charges: (a.u.)
   Center  Symbol    Alpha    Beta     Spin     Total
       1     H     0.39567  0.39567  0.00000  0.20865
       2     O     4.19912  4.19912  0.00000 -0.39824
       3     C     2.97299  2.97299  0.00000  0.05403
       4     C     3.09682  3.09682  0.00000 -0.19365
       5     H     0.46453  0.46453  0.00000  0.07095
       6     H     0.47363  0.47363  0.00000  0.05273
       7     C     3.09231  3.09231  0.00000 -0.18463
       8     H     0.44773  0.44773  0.00000  0.10454
       9     H     0.45464  0.45464  0.00000  0.09073
      10     C     3.08362  3.08362  0.00000 -0.16725
      11     H     0.44910  0.44910  0.00000  0.10180
      12     H     0.44876  0.44876  0.00000  0.10248
      13     C     3.14979  3.14979  0.00000 -0.29959
      14     H     0.45483  0.45483  0.00000  0.09034
      15     H     0.45696  0.45696  0.00000  0.08607
      16     H     0.45480  0.45480  0.00000  0.09039
      17     H     0.44950  0.44950  0.00000  0.10101
      18     H     0.45518  0.45518  0.00000  0.08963

   Total alpha = 25.00000, Total beta = 25.00000, Total charge =  0.00000

*** Psi4 exiting successfully. Buy a developer a beer!
