  ==> Input File <==

--------------------------------------------------------------------------
set {
	reference rhf
	basis 6-31G*
}

set_num_threads( 4 )
memory 2 gb

molecule MOL {
0 1

O	 -2.508518	 -0.960069	 0.944426
C	 -1.808198	 -1.387697	 0.077754
C	 -0.889235	 -0.467034	 -0.705952
C	 -1.774706	 -2.861198	 -0.261430
C	 0.379448	 -0.143569	 0.099626
H	 -1.434207	 0.449090	 -0.906015
H	 -0.620252	 -0.915484	 -1.658090
C	 1.631333	 -0.777471	 -0.511575
H	 0.482768	 0.934507	 0.149241
H	 0.263088	 -0.495696	 1.123449
C	 2.915987	 -0.544314	 0.291766
H	 1.766672	 -0.399098	 -1.523130
H	 1.471257	 -1.849544	 -0.605828
C	 3.373361	 0.914346	 0.347591
H	 3.708709	 -1.142521	 -0.150311
H	 2.780642	 -0.921148	 1.303579
H	 3.506512	 1.320010	 -0.651625
H	 4.322697	 0.999599	 0.867103
H	 2.660624	 1.545032	 0.868198
H	 -2.171845	 -3.014964	 -1.261380
H	 -2.368020	 -3.418492	 0.450038
H	 -0.753945	 -3.232482	 -0.261899

	symmetry c1
}
set optking {
	frozen_dihedral = ("
		6 3 5 8
	")
}

ee = optimize('scf')
oeprop('DIPOLE', 'QUADRUPOLE', 'MULLIKEN_CHARGES')
f=open( 'psi4out.xyz', 'w' )
f.write( "22  " )
f.write( str(ee) + "\n" )
f.write( MOL.save_string_xyz() )
f.close()
--------------------------------------------------------------------------

    Molecular point group: c1
  Charge       = 0
  Multiplicity = 1
  Basis Set: 6-31G*
  Basis Set:
  @DF-RHF Final Energy:  -348.09223286071386
    Total Energy =                       -348.0922328607138638
    Molecular point group: c1
  Basis Set: 6-31G*
  Basis Set:
  Basis Set: 6-31G*
  Basis Set:
  @DF-RHF Final Energy:  -348.09256161272447
    Total Energy =                       -348.0925616127245803
  Basis Set: 6-31G*
  Basis Set:
  Basis Set: 6-31G*
  Basis Set:
  @DF-RHF Final Energy:  -348.09258540894126
    Total Energy =                       -348.0925854089412042
  Basis Set: 6-31G*
  Basis Set:
  Basis Set: 6-31G*
  Basis Set:
  @DF-RHF Final Energy:  -348.09270303832358
    Total Energy =                       -348.0927030383235206
  Basis Set: 6-31G*
  Basis Set:
  @DF-RHF Final Energy:  -348.09273199062841
    Total Energy =                       -348.0927319906280673
  @DF-RHF Final Energy:  -348.09270231751077
    Total Energy =                       -348.0927023175109412
  @DF-RHF Final Energy:  -348.09288575573407
    Total Energy =                       -348.0928857557338461
  @DF-RHF Final Energy:  -348.00299791898306
    Total Energy =                       -348.0029979189828282
  @DF-RHF Final Energy:  -348.07922390748871
    Total Energy =                       -348.0792239074887675
  @DF-RHF Final Energy:  -348.09224514514597
    Total Energy =                       -348.0922451451460802
  @DF-RHF Final Energy:  -348.09298407027313
    Total Energy =                       -348.0929840702733031
  @DF-RHF Final Energy:  -348.09295540160963
    Total Energy =                       -348.0929554016096290
  @DF-RHF Final Energy:  -348.09253880355300
    Total Energy =                       -348.0925388035526566
  @DF-RHF Final Energy:  -348.09300778912478
    Total Energy =                       -348.0930077891247265
  @DF-RHF Final Energy:  -348.09291338215553
    Total Energy =                       -348.0929133821554160
  @DF-RHF Final Energy:  -348.09302700385552
    Total Energy =                       -348.0930270038556955
  Basis Set: 6-31G*
  Basis Set:
  @DF-RHF Final Energy:  -348.09304201680573
    Total Energy =                       -348.0930420168061232
  Basis Set: 6-31G*
  Basis Set:
  Basis Set: 6-31G*
  Basis Set:
  @DF-RHF Final Energy:  -348.09304405348104
    Total Energy =                       -348.0930440534812078
  Basis Set: 6-31G*
  Basis Set:
  Basis Set: 6-31G*
  Basis Set:
  @DF-RHF Final Energy:  -348.09304642614160
    Total Energy =                       -348.0930464261418251
  Basis Set: 6-31G*
  Basis Set:
  Charge       = 0
  Multiplicity = 1
  Basis Set: 6-31G*
  Basis Set:

    Orbital Energies (a.u.)
    -----------------------

    Doubly Occupied:

       1A    -20.547604     2A    -11.324030     3A    -11.232910
       4A    -11.229155     5A    -11.227510     6A    -11.226554
       7A    -11.223993     8A    -11.214953     9A     -1.392893
      10A     -1.097760    11A     -1.044980    12A     -0.996467
      13A     -0.942013    14A     -0.863115    15A     -0.790843
      16A     -0.733945    17A     -0.659205    18A     -0.646797
      19A     -0.627147    20A     -0.620389    21A     -0.596713
      22A     -0.579209    23A     -0.566518    24A     -0.549161
      25A     -0.535772    26A     -0.515735    27A     -0.509540
      28A     -0.489364    29A     -0.473706    30A     -0.465426
      31A     -0.457081    32A     -0.397408

  @DF-RHF Final Energy:  -348.09304683835160

   => Energetics <=

    Nuclear Repulsion Energy =            375.6875636017299485
    One-Electron Energy =               -1216.0054299004702898
    Two-Electron Energy =                 492.2248194603889715
    DFT Exchange-Correlation Energy =       0.0000000000000000
    Empirical Dispersion Energy =           0.0000000000000000
    PCM Polarization Energy =               0.0000000000000000
    EFP Energy =                            0.0000000000000000
    Total Energy =                       -348.0930468383513698
    Molecular point group: c1
  Basis Set: 6-31G*
  Basis Set:

  -Total Gradient:
     Atom            X                  Y                   Z
    ------   -----------------  -----------------  -----------------
       1        0.000024057330     0.000006307389    -0.000014069265
       2       -0.000020420939    -0.000018895148     0.000018998811
       3       -0.000530738031     0.000008542746     0.000871669057
       4       -0.000009509152    -0.000014302692    -0.000015265095
       5       -0.000009460622    -0.000771471654     0.000253710485
       6        0.000457133096     0.000193512694    -0.000807828326
       7       -0.000000753344     0.000002593799     0.000012251750
       8        0.000108450904     0.000597371902    -0.000330706048
       9        0.000010005677     0.000007216469     0.000001293309
      10       -0.000009683794     0.000002983028    -0.000006780969
      11       -0.000022724406     0.000004694208     0.000022299428
      12       -0.000009781688    -0.000004214139    -0.000010186584
      13       -0.000006947574    -0.000005654248     0.000001422717
      14        0.000005972268    -0.000003400353    -0.000008543134
      15       -0.000005652316     0.000004726515    -0.000002527480
      16        0.000011277322    -0.000008489526     0.000003698275
      17        0.000002941000     0.000003028914    -0.000000025920
      18        0.000001428371     0.000002917776     0.000001414229
      19       -0.000005609086    -0.000003931042     0.000000180512
      20        0.000005093789    -0.000001849764     0.000003549553
      21        0.000002198331    -0.000002417149     0.000002285563
      22        0.000002722875     0.000000730280     0.000003159131

  **** Optimization is complete! (in 20 steps) ****
    Final optimized geometry and variables:
    Molecular point group: c1

    Geometry (in Angstrom), charge = 0, multiplicity = 1:

    O           -3.037955050434    -0.203647737434     0.509373988526
    C           -2.025857577245    -0.564153344709    -0.009773645477
    C           -1.085650316915     0.424158325274    -0.675272499376
    C           -1.631536142210    -2.026874759067    -0.027410270572
    C            0.238105879586     0.625621117946     0.108733458592
    H           -1.622981109951     1.358697522012    -0.766888004518
    H           -0.864934795814     0.076704825865    -1.681793389252
    C            1.463437943440     0.032779648798    -0.594165206129
    H            0.385489824065     1.688785368910     0.256698484461
    H            0.151389081684     0.200231654844     1.106254995015
    C            2.768483425377     0.143249673611     0.201728331201
    H            1.587340573244     0.520889420549    -1.559369617457
    H            1.278302173289    -1.017514999416    -0.809590053172
    C            3.257719302836     1.575397538532     0.425604618276
    H            3.539651247927    -0.410193372445    -0.328005605182
    H            2.646741939231    -0.351929478571     1.163018798988
    H            3.373048145449     2.100580806558    -0.518718069684
    H            4.222096655996     1.577907557846     0.923706928983
    H            2.573175753291     2.148279382638     1.042148598829
    H           -1.576925151614    -2.384064825243    -1.051933117921
    H           -2.364103833701    -2.606202517824     0.517084294828
    H           -0.652080779380    -2.172689794168     0.416754096126

  Mulliken Charges: (a.u.)
   Center  Symbol    Alpha    Beta     Spin     Total
       1     O     4.26019  4.26019  0.00000 -0.52039
       2     C     2.73827  2.73827  0.00000  0.52345
       3     C     3.20481  3.20481  0.00000 -0.40962
       4     C     3.28978  3.28978  0.00000 -0.57956
       5     C     3.16692  3.16692  0.00000 -0.33384
       6     H     0.39713  0.39713  0.00000  0.20573
       7     H     0.41237  0.41237  0.00000  0.17525
       8     C     3.15611  3.15611  0.00000 -0.31222
       9     H     0.40843  0.40843  0.00000  0.18315
      10     H     0.41541  0.41541  0.00000  0.16918
      11     C     3.15381  3.15381  0.00000 -0.30761
      12     H     0.42077  0.42077  0.00000  0.15847
      13     H     0.42198  0.42198  0.00000  0.15605
      14     C     3.24220  3.24220  0.00000 -0.48441
      15     H     0.41903  0.41903  0.00000  0.16195
      16     H     0.42220  0.42220  0.00000  0.15560
      17     H     0.42124  0.42124  0.00000  0.15751
      18     H     0.41722  0.41722  0.00000  0.16557
      19     H     0.41908  0.41908  0.00000  0.16185
      20     H     0.40867  0.40867  0.00000  0.18265
      21     H     0.39649  0.39649  0.00000  0.20702
      22     H     0.40788  0.40788  0.00000  0.18423

   Total alpha = 32.00000, Total beta = 32.00000, Total charge =  0.00000
