                              Psi4 1.0.54 Driver

  ==> Input File <==

--------------------------------------------------------------------------
set {
	reference rhf
	basis cc-pvtz
}

set_num_threads( 4 )
memory 2 gb

molecule MOL {
0 1

H	 -2.498963	 -0.741158	 -0.729149
O	 -2.346257	 -0.289210	 0.080372
C	 -1.183935	 0.486039	 -0.009831
C	 0.062853	 -0.375310	 0.027457
H	 -1.178881	 1.094526	 -0.908634
H	 -1.184406	 1.155156	 0.838676
O	 1.172093	 0.457955	 -0.054438
H	 0.052476	 -1.081302	 -0.804627
H	 0.076323	 -0.955658	 0.947560
C	 2.229063	 0.098522	 0.773114
H	 2.601210	 -0.895163	 0.533592
H	 3.024749	 0.813459	 0.623330
H	 1.936480	 0.113282	 1.820348

	symmetry c1
}
set optking {
	frozen_dihedral = ("
		10 7 4 8
	")
}

ee,wfn = optimize('scf', return_wfn=True)
oeprop( wfn, 'DIPOLE', 'QUADRUPOLE', 'MULLIKEN_CHARGES')
f=open( 'psi4out.xyz', 'w' )
f.write( "13  " )
f.write( str(ee) + "\n" )
f.write( MOL.save_string_xyz() )
f.close()
--------------------------------------------------------------------------

    Molecular point group: c1
  Charge       = 0
  Multiplicity = 1
  Basis Set: CC-PVTZ
  Basis Set:
  @DF-RHF Final Energy:  -268.05976672149939
    Total Energy =                       -268.0597667214990452
    Molecular point group: c1
  Basis Set: CC-PVTZ
  Basis Set:
  Basis Set: CC-PVTZ
  Basis Set:
  @DF-RHF Final Energy:  -268.05991377802303
    Total Energy =                       -268.0599137780226329
  Basis Set: CC-PVTZ
  Basis Set:
  Basis Set: CC-PVTZ
  Basis Set:
  @DF-RHF Final Energy:  -268.05997179691263
    Total Energy =                       -268.0599717969124640
  Basis Set: CC-PVTZ
  Basis Set:
  Charge       = 0
  Multiplicity = 1
  Basis Set: CC-PVTZ
  Basis Set:

    Orbital Energies (a.u.)
    -----------------------

    Doubly Occupied:

       1A    -20.553870     2A    -20.552627     3A    -11.269004
       4A    -11.267914     5A    -11.266909     6A     -1.388689
       7A     -1.368607     8A     -1.018814     9A     -0.915993
      10A     -0.841299    11A     -0.710617    12A     -0.677071
      13A     -0.660163    14A     -0.635326    15A     -0.602502
      16A     -0.575877    17A     -0.536500    18A     -0.494271
      19A     -0.484486    20A     -0.449901    21A     -0.414196

  @DF-RHF Final Energy:  -268.05997266440852

   => Energetics <=

    Nuclear Repulsion Energy =            190.5404796407912045
    One-Electron Energy =                -743.8316318193628831
    Two-Electron Energy =                 285.2311795141631592
    DFT Exchange-Correlation Energy =       0.0000000000000000
    Empirical Dispersion Energy =           0.0000000000000000
    PCM Polarization Energy =               0.0000000000000000
    EFP Energy =                            0.0000000000000000
    Total Energy =                       -268.0599726644085194
    Molecular point group: c1
  Basis Set: CC-PVTZ
  Basis Set:

  -Total Gradient:
     Atom            X                  Y                   Z
    ------   -----------------  -----------------  -----------------
       1       -0.000019988747    -0.000003520918     0.000016967954
       2       -0.000082104033    -0.000078299296    -0.000026062353
       3        0.000035872963     0.000023775503    -0.000036180288
       4        0.001245224819    -0.001358748483     0.002083387062
       5        0.000012393695     0.000002558666     0.000028295167
       6        0.000043500951    -0.000002683493    -0.000011731405
       7        0.000619935576    -0.001132546035    -0.002256069178
       8       -0.001231045365     0.001494560201    -0.001158727351
       9        0.000002388632     0.000004143699     0.000000956767
      10       -0.000565706087     0.001033549501     0.001398026990
      11       -0.000032417858     0.000023638400    -0.000004783634
      12       -0.000001621290    -0.000006750327     0.000001325513
      13       -0.000026433253     0.000000322583    -0.000035405245

  **** Optimization is complete! (in 4 steps) ****
    Final optimized geometry and variables:
    Molecular point group: c1

    Geometry (in Angstrom), charge = 0, multiplicity = 1:

    H           -2.454450270619    -0.799985173053    -0.923607105842
    O           -2.320452537856    -0.376164516195    -0.095699931438
    C           -1.164484596880     0.413081375871    -0.137420629120
    C            0.093060984627    -0.436389308481    -0.113393625630
    H           -1.150035332074     1.054584794738    -1.012881281778
    H           -1.187223955969     1.051568139519     0.734607133683
    O            1.201400063237     0.403927533507    -0.211674175800
    H            0.074910575117    -1.126602797613    -0.955779205486
    H            0.115172515917    -1.022489263253     0.799815721322
    C            2.295050142355     0.061879836220     0.576756220646
    H            2.691807572582    -0.915454954059     0.312169889764
    H            3.063400157056     0.802868677120     0.410489004825
    H            2.037082119806     0.055622296443     1.632500832511

  Mulliken Charges: (a.u.)
   Center  Symbol    Alpha    Beta     Spin     Total
       1     H     0.39319  0.39319  0.00000  0.21361
       2     O     4.20304  4.20304  0.00000 -0.40608
       3     C     2.97212  2.97212  0.00000  0.05575
       4     C     2.96993  2.96993  0.00000  0.06013
       5     H     0.46673  0.46673  0.00000  0.06654
       6     H     0.45596  0.45596  0.00000  0.08808
       7     O     4.18021  4.18021  0.00000 -0.36042
       8     H     0.47160  0.47160  0.00000  0.05681
       9     H     0.46936  0.46936  0.00000  0.06129
      10     C     3.02955  3.02955  0.00000 -0.05909
      11     H     0.46959  0.46959  0.00000  0.06082
      12     H     0.44851  0.44851  0.00000  0.10299
      13     H     0.47022  0.47022  0.00000  0.05956

   Total alpha = 21.00000, Total beta = 21.00000, Total charge =  0.00000

*** Psi4 exiting successfully. Buy a developer a beer!
