  ==> Input File <==

--------------------------------------------------------------------------
set {
	reference rhf
	basis 6-31G*
}

set_num_threads( 4 )
memory 2 gb

molecule MOL {
0 1

O	 2.630767	 -0.132622	 -0.701376
C	 1.705091	 0.115954	 0.001797
C	 0.381791	 -0.609817	 0.001258
O	 1.719700	 1.088147	 0.904994
C	 -0.823008	 0.326187	 0.001381
H	 0.371250	 -1.265087	 -0.865474
H	 0.370908	 -1.265746	 0.867490
C	 -2.149452	 -0.435131	 -0.000098
H	 -0.770201	 0.977095	 -0.865636
H	 -0.771220	 0.975655	 0.869608
C	 -3.368779	 0.488503	 -0.000883
H	 -2.193746	 -1.087250	 -0.871175
H	 -2.195311	 -1.087803	 0.870418
C	 -4.693822	 -0.272754	 -0.001129
H	 -3.325798	 1.139422	 -0.871284
H	 -3.326423	 1.139959	 0.869145
H	 -4.781274	 -0.907928	 -0.878124
H	 -5.538651	 0.408946	 -0.001420
H	 -4.781694	 -0.907783	 0.875984
C	 2.908916	 1.849447	 1.010553
H	 3.742477	 1.216834	 1.279821
H	 2.725773	 2.576925	 1.785865
H	 3.126987	 2.345355	 0.075659

	symmetry c1
}
set optking {
	frozen_dihedral = ("
		1 2 3 6
	")
}

ee = optimize('scf')
oeprop('DIPOLE', 'QUADRUPOLE', 'MULLIKEN_CHARGES')
f=open( 'psi4out.xyz', 'w' )
f.write( "23  " )
f.write( str(ee) + "\n" )
f.write( MOL.save_string_xyz() )
f.close()
--------------------------------------------------------------------------

    Molecular point group: c1
  Charge       = 0
  Multiplicity = 1
  Basis Set: 6-31G*
  Basis Set:
  @DF-RHF Final Energy:  -422.97434637819464
    Total Energy =                       -422.9743463781945820
    Molecular point group: c1
  Basis Set: 6-31G*
  Basis Set:
  Basis Set: 6-31G*
  Basis Set:
  @DF-RHF Final Energy:  -422.97353673191435
    Total Energy =                       -422.9735367319137822
  Basis Set: 6-31G*
  Basis Set:
  Basis Set: 6-31G*
  Basis Set:
  @DF-RHF Final Energy:  -422.97448343812164
    Total Energy =                       -422.9744834381216378
  Basis Set: 6-31G*
  Basis Set:
  Basis Set: 6-31G*
  Basis Set:
  @DF-RHF Final Energy:  -422.97476947830984
    Total Energy =                       -422.9747694783102361
  Basis Set: 6-31G*
  Basis Set:
  Basis Set: 6-31G*
  Basis Set:
  @DF-RHF Final Energy:  -422.97477158488482
    Total Energy =                       -422.9747715848847065
  Basis Set: 6-31G*
  Basis Set:
  Charge       = 0
  Multiplicity = 1
  Basis Set: 6-31G*
  Basis Set:

    Orbital Energies (a.u.)
    -----------------------

    Doubly Occupied:

       1A    -20.604580     2A    -20.543224     3A    -11.371283
       4A    -11.281079     5A    -11.234756     6A    -11.226435
       7A    -11.221092     8A    -11.219681     9A    -11.211894
      10A     -1.469132    11A     -1.361236    12A     -1.096627
      13A     -1.045327    14A     -0.983429    15A     -0.935287
      16A     -0.847838    17A     -0.797992    18A     -0.773711
      19A     -0.693162    20A     -0.681389    21A     -0.672218
      22A     -0.653531    23A     -0.609411    24A     -0.592709
      25A     -0.578017    26A     -0.568371    27A     -0.548891
      28A     -0.528421    29A     -0.523701    30A     -0.506496
      31A     -0.489471    32A     -0.478032    33A     -0.470178
      34A     -0.468696    35A     -0.454498    36A     -0.426352

  @DF-RHF Final Energy:  -422.97477210129267

   => Energetics <=

    Nuclear Repulsion Energy =            454.9913546947712462
    One-Electron Energy =               -1477.5959619438594927
    Two-Electron Energy =                 599.6298351477951201
    DFT Exchange-Correlation Energy =       0.0000000000000000
    Empirical Dispersion Energy =           0.0000000000000000
    PCM Polarization Energy =               0.0000000000000000
    EFP Energy =                            0.0000000000000000
    Total Energy =                       -422.9747721012931834
    Molecular point group: c1
  Basis Set: 6-31G*
  Basis Set:

  -Total Gradient:
     Atom            X                  Y                   Z
    ------   -----------------  -----------------  -----------------
       1        0.000280214276    -0.000481144000     0.000617697438
       2       -0.000475097691     0.000806872359    -0.000950535686
       3        0.000504619796    -0.000895056873     0.000779416739
       4        0.000022820444     0.000015163120    -0.000009576966
       5        0.000021727450    -0.000037315977     0.000025711376
       6       -0.000323612664     0.000588418499    -0.000427246357
       7       -0.000006371042    -0.000009780141     0.000008571027
       8       -0.000011225238     0.000007725183    -0.000037624760
       9       -0.000012715793    -0.000020569610    -0.000000846389
      10        0.000010016104     0.000015625688    -0.000004225502
      11       -0.000010296494    -0.000004535960     0.000008416180
      12       -0.000004493600     0.000006088207    -0.000010894800
      13        0.000015165178     0.000002986447    -0.000013266359
      14       -0.000005150848     0.000005176491     0.000013877206
      15       -0.000003330452    -0.000010037471    -0.000002427895
      16        0.000003035292     0.000008669912    -0.000002059390
      17        0.000003347341     0.000002605402     0.000000422033
      18       -0.000002309221    -0.000001403536     0.000002693983
      19       -0.000002992277    -0.000002485964     0.000001446900
      20       -0.000022162826    -0.000003726662    -0.000003914666
      21        0.000004812409    -0.000001119625     0.000002225713
      22        0.000009134130     0.000004135364     0.000001886373
      23        0.000004865717     0.000003709148     0.000000253802

  **** Optimization is complete! (in 6 steps) ****
    Final optimized geometry and variables:
    Molecular point group: c1

    Geometry (in Angstrom), charge = 0, multiplicity = 1:

    O            2.762850194145    -0.425195269372    -0.852307828114
    C            1.856225920621    -0.147788058393    -0.134629417188
    C            0.528343506922    -0.865786572351    -0.112941427347
    O            1.920913118656     0.821234567967     0.769419822628
    C           -0.692202651047     0.061399875638    -0.119585851911
    H            0.516844430934    -1.524895953838    -0.971432698765
    H            0.513636511377    -1.485669793601     0.780334351455
    C           -2.007272345409    -0.719054246521    -0.146211866995
    H           -0.642828526348     0.714547632243    -0.988067046201
    H           -0.662853776944     0.703125551994     0.753892861844
    C           -3.240375915254     0.186120541658    -0.150387133236
    H           -2.030509790724    -1.361766307016    -1.024412717288
    H           -2.050810744866    -1.380755700724     0.717430201948
    C           -4.553278429397    -0.595705349936    -0.170823789819
    H           -3.199506403269     0.845469766485    -1.014627356093
    H           -3.216902610589     0.829870525749     0.726146733699
    H           -4.621700219567    -1.224300195280    -1.054139187743
    H           -5.408509027550     0.072789567595    -0.173866718258
    H           -4.639953028904    -1.239621372681     0.699804655548
    C            3.137248029223     1.541698738639     0.852537805139
    H            3.952631690013     0.880957789010     1.109346673975
    H            2.992345597739     2.276829162400     1.628793631931
    H            3.355952141328     2.027139054678    -0.087537212173

  Mulliken Charges: (a.u.)
   Center  Symbol    Alpha    Beta     Spin     Total
       1     O     4.28696  4.28696  0.00000 -0.57391
       2     C     2.61061  2.61061  0.00000  0.77877
       3     C     3.20191  3.20191  0.00000 -0.40382
       4     O     4.30261  4.30261  0.00000 -0.60523
       5     C     3.16087  3.16087  0.00000 -0.32175
       6     H     0.39814  0.39814  0.00000  0.20371
       7     H     0.40304  0.40304  0.00000  0.19392
       8     C     3.15285  3.15285  0.00000 -0.30571
       9     H     0.41703  0.41703  0.00000  0.16594
      10     H     0.40747  0.40747  0.00000  0.18507
      11     C     3.15200  3.15200  0.00000 -0.30400
      12     H     0.42147  0.42147  0.00000  0.15705
      13     H     0.42261  0.42261  0.00000  0.15478
      14     C     3.23974  3.23974  0.00000 -0.47948
      15     H     0.42172  0.42172  0.00000  0.15656
      16     H     0.42182  0.42182  0.00000  0.15637
      17     H     0.42101  0.42101  0.00000  0.15798
      18     H     0.41830  0.41830  0.00000  0.16341
      19     H     0.42132  0.42132  0.00000  0.15735
      20     C     3.09225  3.09225  0.00000 -0.18451
      21     H     0.40876  0.40876  0.00000  0.18247
      22     H     0.40886  0.40886  0.00000  0.18228
      23     H     0.40863  0.40863  0.00000  0.18274

   Total alpha = 36.00000, Total beta = 36.00000, Total charge = -0.00000
