  ==> Input File <==

--------------------------------------------------------------------------
set {
	reference rhf
	basis 6-31G*
}

set_num_threads( 4 )
memory 2 gb

molecule MOL {
0 1

H	 -4.389451	 0.341375	 -1.089276
O	 -3.452007	 0.283848	 -0.965577
C	 -3.181085	 -0.079926	 0.364119
C	 -1.765924	 0.277073	 0.805136
H	 -3.327791	 -1.152017	 0.410903
H	 -3.905698	 0.375695	 1.036898
C	 -0.677594	 -0.417312	 -0.014550
H	 -1.637766	 1.358238	 0.744969
H	 -1.659588	 0.017670	 1.857098
C	 0.738335	 -0.034840	 0.421385
H	 -0.814977	 -0.178223	 -1.064632
H	 -0.802730	 -1.495410	 0.071702
C	 1.822265	 -0.738362	 -0.399735
H	 0.853533	 1.043532	 0.342250
H	 0.871597	 -0.279636	 1.474438
C	 3.258060	 -0.455774	 0.057203
H	 1.718003	 -0.459167	 -1.447053
H	 1.651028	 -1.811884	 -0.354513
C	 3.709143	 0.994797	 -0.123830
H	 3.930637	 -1.101717	 -0.501982
H	 3.365259	 -0.739518	 1.102287
H	 3.601178	 1.310569	 -1.158127
H	 4.753787	 1.110486	 0.148516
H	 3.135362	 1.678896	 0.492569

	symmetry c1
}
set optking {
	frozen_dihedral = ("
		1 2 3 5
	")
}

ee = optimize('scf')
oeprop('DIPOLE', 'QUADRUPOLE', 'MULLIKEN_CHARGES')
f=open( 'psi4out.xyz', 'w' )
f.write( "24  " )
f.write( str(ee) + "\n" )
f.write( MOL.save_string_xyz() )
f.close()
--------------------------------------------------------------------------

    Molecular point group: c1
  Charge       = 0
  Multiplicity = 1
  Basis Set: 6-31G*
  Basis Set:
  @DF-RHF Final Energy:  -349.24540496720221
    Total Energy =                       -349.2454049672020915
    Molecular point group: c1
  Basis Set: 6-31G*
  Basis Set:
  Basis Set: 6-31G*
  Basis Set:
  @DF-RHF Final Energy:  -349.24679810609456
    Total Energy =                       -349.2467981060947295
  Basis Set: 6-31G*
  Basis Set:
  Basis Set: 6-31G*
  Basis Set:
  @DF-RHF Final Energy:  -349.24708072976478
    Total Energy =                       -349.2470807297650026
  Basis Set: 6-31G*
  Basis Set:
  Basis Set: 6-31G*
  Basis Set:
  @DF-RHF Final Energy:  -349.24708480836301
    Total Energy =                       -349.2470848083628994
  Basis Set: 6-31G*
  Basis Set:
  Basis Set: 6-31G*
  Basis Set:
  @DF-RHF Final Energy:  -349.24709257980447
    Total Energy =                       -349.2470925798044163
  Basis Set: 6-31G*
  Basis Set:
  Basis Set: 6-31G*
  Basis Set:
  @DF-RHF Final Energy:  -349.24709372722037
    Total Energy =                       -349.2470937272204310
  Basis Set: 6-31G*
  Basis Set:
  Charge       = 0
  Multiplicity = 1
  Basis Set: 6-31G*
  Basis Set:

    Orbital Energies (a.u.)
    -----------------------

    Doubly Occupied:

       1A    -20.552408     2A    -11.267884     3A    -11.211405
       4A    -11.211142     5A    -11.208300     6A    -11.207558
       7A    -11.205632     8A    -11.204367     9A     -1.359047
      10A     -1.084558    11A     -1.045459    12A     -0.983496
      13A     -0.911523    14A     -0.843013    15A     -0.788438
      16A     -0.772603    17A     -0.703143    18A     -0.647037
      19A     -0.629596    20A     -0.609739    21A     -0.585043
      22A     -0.574995    23A     -0.555629    24A     -0.528932
      25A     -0.523897    26A     -0.502921    27A     -0.487906
      28A     -0.482575    29A     -0.465909    30A     -0.453962
      31A     -0.449259    32A     -0.431626    33A     -0.428593

  @DF-RHF Final Energy:  -349.24709403933247

   => Energetics <=

    Nuclear Repulsion Energy =            384.7566495072213115
    One-Electron Energy =               -1236.1722899780377247
    Two-Electron Energy =                 502.1685464314837191
    DFT Exchange-Correlation Energy =       0.0000000000000000
    Empirical Dispersion Energy =           0.0000000000000000
    PCM Polarization Energy =               0.0000000000000000
    EFP Energy =                            0.0000000000000000
    Total Energy =                       -349.2470940393327510
    Molecular point group: c1
  Basis Set: 6-31G*
  Basis Set:

  -Total Gradient:
     Atom            X                  Y                   Z
    ------   -----------------  -----------------  -----------------
       1        0.000030430371     0.001635147729     0.000500671024
       2        0.000359602385    -0.002058314969    -0.000734770585
       3       -0.001833034684     0.000646958682     0.000485376182
       4       -0.000008273505    -0.000017324693     0.000004439253
       5        0.001457721519    -0.000200375887    -0.000262499075
       6        0.000006641972    -0.000010799585     0.000019881744
       7        0.000001426521     0.000009147108    -0.000014956862
       8       -0.000013091029    -0.000000355326    -0.000000278964
       9       -0.000005653990     0.000003363706    -0.000001594182
      10       -0.000004273825    -0.000009665854     0.000000965938
      11        0.000005263652     0.000005073885     0.000000033900
      12       -0.000000594332    -0.000000244476     0.000000239706
      13        0.000000868191     0.000000711795     0.000001652889
      14       -0.000006627964    -0.000007991980    -0.000004273401
      15        0.000003078665     0.000002700959     0.000005024325
      16       -0.000000393051    -0.000001439170     0.000002656921
      17       -0.000000566928     0.000003928589     0.000001301377
      18        0.000002022627    -0.000000213388    -0.000002713701
      19        0.000002042446     0.000000688122    -0.000001337361
      20       -0.000000015757    -0.000002372979     0.000001445186
      21       -0.000000735640     0.000002121846     0.000000791024
      22       -0.000000103078     0.000000975153    -0.000000639812
      23       -0.000000117246    -0.000000595989    -0.000000504533
      24        0.000004382692    -0.000001123278    -0.000000910992

  **** Optimization is complete! (in 7 steps) ****
    Final optimized geometry and variables:
    Molecular point group: c1

    Geometry (in Angstrom), charge = 0, multiplicity = 1:

    H           -4.302447810753     0.380950641084    -1.134614072020
    O           -3.376460917239     0.313356197891    -0.953662547273
    C           -3.178962375524    -0.090916412751     0.378978954300
    C           -1.767420954315     0.280736236778     0.803049838830
    H           -3.315436983870    -1.167559870461     0.469689823502
    H           -3.897863479169     0.392938419370     1.036523720651
    C           -0.681712688759    -0.416507463897    -0.018393893444
    H           -1.657109170033     1.358832523831     0.720608100146
    H           -1.651092957218     0.028300324242     1.855668750303
    C            0.733502408310    -0.032772773740     0.418761887139
    H           -0.818879005965    -0.173510842730    -1.067089295673
    H           -0.805559325063    -1.495142370268     0.068085777215
    C            1.818907553193    -0.731029851559    -0.404861569377
    H            0.845452056378     1.045856184247     0.342434181329
    H            0.867827162010    -0.280723414990     1.471145098102
    C            3.254304300612    -0.445884051291     0.051808492279
    H            1.713132751083    -0.449014603161    -1.451190594445
    H            1.650868408758    -1.805347253491    -0.362713578079
    C            3.701701122404     1.006084525358    -0.127096658932
    H            3.928384903326    -1.089316270484    -0.508582644169
    H            3.362589102105    -0.730914651562     1.096499341408
    H            3.592560774458     1.323136031857    -1.160831155742
    H            4.746176264427     1.124073192604     0.145245766123
    H            3.125984375385     1.687638529388     0.490170661518

  Mulliken Charges: (a.u.)
   Center  Symbol    Alpha    Beta     Spin     Total
       1     H     0.28016  0.28016  0.00000  0.43968
       2     O     4.37061  4.37061  0.00000 -0.74121
       3     C     2.99763  2.99763  0.00000  0.00473
       4     C     3.15877  3.15877  0.00000 -0.31754
       5     H     0.43077  0.43077  0.00000  0.13846
       6     H     0.42989  0.42989  0.00000  0.14021
       7     C     3.15425  3.15425  0.00000 -0.30850
       8     H     0.41713  0.41713  0.00000  0.16575
       9     H     0.42493  0.42493  0.00000  0.15014
      10     C     3.15397  3.15397  0.00000 -0.30795
      11     H     0.40712  0.40712  0.00000  0.18576
      12     H     0.42663  0.42663  0.00000  0.14675
      13     C     3.15210  3.15210  0.00000 -0.30420
      14     H     0.42144  0.42144  0.00000  0.15713
      15     H     0.42665  0.42665  0.00000  0.14670
      16     C     3.15210  3.15210  0.00000 -0.30420
      17     H     0.42339  0.42339  0.00000  0.15323
      18     H     0.42309  0.42309  0.00000  0.15381
      19     C     3.24090  3.24090  0.00000 -0.48180
      20     H     0.42176  0.42176  0.00000  0.15648
      21     H     0.42424  0.42424  0.00000  0.15151
      22     H     0.42211  0.42211  0.00000  0.15577
      23     H     0.42022  0.42022  0.00000  0.15956
      24     H     0.42013  0.42013  0.00000  0.15975

   Total alpha = 33.00000, Total beta = 33.00000, Total charge = -0.00000
