  ==> Input File <==

--------------------------------------------------------------------------
set {
	reference rhf
	basis 6-31G*
}

set_num_threads( 4 )
memory 2 gb

molecule MOL {
0 1

H	 -2.812782	 0.051825	 0.708381
C	 -2.530163	 0.917018	 0.111968
O	 -1.155080	 0.966623	 -0.093029
H	 -3.002010	 0.842700	 -0.858073
H	 -2.893433	 1.814079	 0.611711
C	 -0.407488	 1.070910	 1.077219
C	 1.063144	 1.005668	 0.737823
H	 -0.618280	 2.016945	 1.577499
H	 -0.652557	 0.265155	 1.766207
O	 1.392611	 -0.295398	 0.366430
H	 1.276314	 1.704201	 -0.068786
H	 1.645760	 1.309365	 1.608466
C	 2.706965	 -0.449871	 -0.062409
H	 2.756559	 -0.644779	 -1.131878
H	 3.305899	 0.433456	 0.155466
H	 3.125548	 -1.294566	 0.467107

	symmetry c1
}
set optking {
	frozen_dihedral = ("
		7 10 13 14
	")
}

ee = optimize('scf')
oeprop('DIPOLE', 'QUADRUPOLE', 'MULLIKEN_CHARGES')
f=open( 'psi4out.xyz', 'w' )
f.write( "16  " )
f.write( str(ee) + "\n" )
f.write( MOL.save_string_xyz() )
f.close()
--------------------------------------------------------------------------

    Molecular point group: c1
  Charge       = 0
  Multiplicity = 1
  Basis Set: 6-31G*
  Basis Set:
  @DF-RHF Final Energy:  -306.97369653792691
    Total Energy =                       -306.9736965379270828
    Molecular point group: c1
  Basis Set: 6-31G*
  Basis Set:
  Basis Set: 6-31G*
  Basis Set:
  @DF-RHF Final Energy:  -306.97398234367193
    Total Energy =                       -306.9739823436720485
  Basis Set: 6-31G*
  Basis Set:
  Basis Set: 6-31G*
  Basis Set:
  @DF-RHF Final Energy:  -306.97405663653706
    Total Energy =                       -306.9740566365369432
  Basis Set: 6-31G*
  Basis Set:
  Charge       = 0
  Multiplicity = 1
  Basis Set: 6-31G*
  Basis Set:

    Orbital Energies (a.u.)
    -----------------------

    Doubly Occupied:

       1A    -20.553128     2A    -20.549712     3A    -11.269257
       4A    -11.268040     5A    -11.263208     6A    -11.262973
       7A     -1.385884     8A     -1.367445     9A     -1.030410
      10A     -0.936102    11A     -0.891929    12A     -0.823490
      13A     -0.682552    14A     -0.678712    15A     -0.656087
      16A     -0.633464    17A     -0.627932    18A     -0.596133
      19A     -0.553713    20A     -0.537702    21A     -0.508110
      22A     -0.476902    23A     -0.461648    24A     -0.417211
      25A     -0.406861

  @DF-RHF Final Energy:  -306.97405725233745

   => Energetics <=

    Nuclear Repulsion Energy =            258.5242943751341613
    One-Electron Energy =                -931.3194921662336583
    Two-Electron Energy =                 365.8211405387619948
    DFT Exchange-Correlation Energy =       0.0000000000000000
    Empirical Dispersion Energy =           0.0000000000000000
    PCM Polarization Energy =               0.0000000000000000
    EFP Energy =                            0.0000000000000000
    Total Energy =                       -306.9740572523375590
    Molecular point group: c1
  Basis Set: 6-31G*
  Basis Set:

  -Total Gradient:
     Atom            X                  Y                   Z
    ------   -----------------  -----------------  -----------------
       1       -0.000002282049     0.000000237621    -0.000000495735
       2        0.000002921489    -0.000000207410     0.000014863974
       3        0.000019087805    -0.000017181113     0.000017167749
       4        0.000005292100    -0.000000809685    -0.000001110611
       5        0.000002449840    -0.000001100269    -0.000000459325
       6       -0.000024407800     0.000074030562     0.000011282836
       7        0.000324866932    -0.000274754635     0.001300799261
       8       -0.000046831331     0.000022335523     0.000020841071
       9        0.000009398836     0.000008444479    -0.000032019962
      10       -0.000458876393    -0.000084776322    -0.001805934231
      11        0.000001736869    -0.000008850148     0.000008085086
      12       -0.000001052079    -0.000026888122    -0.000023712471
      13        0.000280078056     0.001963603368     0.000190620195
      14       -0.000129292204    -0.001654796858     0.000304205638
      15        0.000008585703     0.000005436349    -0.000002541656
      16        0.000008324231    -0.000004723339    -0.000001591819

  **** Optimization is complete! (in 4 steps) ****
    Final optimized geometry and variables:
    Molecular point group: c1

    Geometry (in Angstrom), charge = 0, multiplicity = 1:

    H           -2.983887429556    -0.496919492357     0.348034156442
    C           -2.707352693302     0.373272070254    -0.243948792614
    O           -1.332253472921     0.436145648231    -0.445037076016
    H           -3.176127720790     0.299006544074    -1.215485831000
    H           -3.079559056333     1.264912880021     0.258827292783
    C           -0.588784718700     0.542277348800     0.727695564638
    C            0.883430781624     0.489414742220     0.393133351124
    H           -0.808583920976     1.484990771162     1.230652614412
    H           -0.829670199682    -0.267740422048     1.412988729728
    O            1.219686665447    -0.809875181029     0.017408598804
    H            1.091206185227     1.194880459731    -0.408061432114
    H            1.458696344040     0.792522835834     1.268022569199
    C            2.534275102768    -0.997851957513    -0.416159120155
    H            2.552701969997    -1.196322539761    -1.483090564581
    H            3.160865795876    -0.135607144912    -0.208224271598
    H            2.953379980441    -1.855780262621     0.097384938794

  Mulliken Charges: (a.u.)
   Center  Symbol    Alpha    Beta     Spin     Total
       1     H     0.42808  0.42808  0.00000  0.14383
       2     C     3.07942  3.07942  0.00000 -0.15885
       3     O     4.30084  4.30084  0.00000 -0.60168
       4     H     0.41139  0.41139  0.00000  0.17721
       5     H     0.43199  0.43199  0.00000  0.13603
       6     C     2.99352  2.99352  0.00000  0.01296
       7     C     2.99325  2.99325  0.00000  0.01351
       8     H     0.43250  0.43250  0.00000  0.13501
       9     H     0.42282  0.42282  0.00000  0.15435
      10     O     4.30558  4.30558  0.00000 -0.61115
      11     H     0.42253  0.42253  0.00000  0.15493
      12     H     0.43212  0.43212  0.00000  0.13576
      13     C     3.07616  3.07616  0.00000 -0.15232
      14     H     0.42027  0.42027  0.00000  0.15946
      15     H     0.43051  0.43051  0.00000  0.13898
      16     H     0.41901  0.41901  0.00000  0.16197

   Total alpha = 25.00000, Total beta = 25.00000, Total charge =  0.00000
