  ==> Input File <==

--------------------------------------------------------------------------
set {
	reference rhf
	basis 6-31G*
}

set_num_threads( 4 )
memory 2 gb

molecule MOL {
0 1

H	 -3.161837	 0.500524	 -0.000234
C	 -2.367097	 -0.232926	 -0.000000
O	 -1.158440	 0.455814	 -0.000122
H	 -2.468853	 -0.861886	 -0.882833
H	 -2.468942	 -0.861421	 0.883154
C	 -0.249078	 0.019864	 0.964700
C	 1.017829	 0.850261	 0.854926
H	 -0.023041	 -1.037032	 0.817126
H	 -0.682077	 0.119677	 1.960921
C	 2.075760	 0.440389	 1.878482
H	 1.410642	 0.747425	 -0.151943
H	 0.756291	 1.896045	 0.983897
H	 2.369693	 -0.597746	 1.750796
H	 2.968126	 1.049003	 1.777899
H	 1.710430	 0.558366	 2.894858

	symmetry c1
}
set optking {
	frozen_dihedral = ("
		6 3 2 4
	")
}

ee = optimize('scf')
oeprop('DIPOLE', 'QUADRUPOLE', 'MULLIKEN_CHARGES')
f=open( 'psi4out.xyz', 'w' )
f.write( "15  " )
f.write( str(ee) + "\n" )
f.write( MOL.save_string_xyz() )
f.close()
--------------------------------------------------------------------------

    Molecular point group: c1
  Charge       = 0
  Multiplicity = 1
  Basis Set: 6-31G*
  Basis Set:
  @DF-RHF Final Energy:  -232.13543987535289
    Total Energy =                       -232.1354398753528585
    Molecular point group: c1
  Basis Set: 6-31G*
  Basis Set:
  Basis Set: 6-31G*
  Basis Set:
  @DF-RHF Final Energy:  -232.13572299379007
    Total Energy =                       -232.1357229937902389
  Basis Set: 6-31G*
  Basis Set:
  Basis Set: 6-31G*
  Basis Set:
  @DF-RHF Final Energy:  -232.13579688442360
    Total Energy =                       -232.1357968844235984
  Basis Set: 6-31G*
  Basis Set:
  Charge       = 0
  Multiplicity = 1
  Basis Set: 6-31G*
  Basis Set:

    Orbital Energies (a.u.)
    -----------------------

    Doubly Occupied:

       1A    -20.549644     2A    -11.266716     3A    -11.263430
       4A    -11.213711     5A    -11.212663     6A     -1.373187
       7A     -1.056844     8A     -0.955347     9A     -0.877281
      10A     -0.808706    11A     -0.670946    12A     -0.651751
      13A     -0.629715    14A     -0.607262    15A     -0.564133
      16A     -0.545525    17A     -0.501948    18A     -0.488591
      19A     -0.478785    20A     -0.460349    21A     -0.408028

  @DF-RHF Final Energy:  -232.13579740753295

   => Energetics <=

    Nuclear Repulsion Energy =            189.3961384024500489
    One-Electron Energy =                -689.8947480729931385
    Two-Electron Energy =                 268.3628122630100279
    DFT Exchange-Correlation Energy =       0.0000000000000000
    Empirical Dispersion Energy =           0.0000000000000000
    PCM Polarization Energy =               0.0000000000000000
    EFP Energy =                            0.0000000000000000
    Total Energy =                       -232.1357974075330617
    Molecular point group: c1
  Basis Set: 6-31G*
  Basis Set:

  -Total Gradient:
     Atom            X                  Y                   Z
    ------   -----------------  -----------------  -----------------
       1       -0.000007590022    -0.000004345050     0.000001724884
       2        0.000682917109    -0.001192364292     0.001404146692
       3        0.000418225796    -0.000970188743    -0.001477511921
       4       -0.000684780095     0.001278678205    -0.000812805256
       5       -0.000005755539    -0.000007497755     0.000006121848
       6       -0.000437311387     0.000881146880     0.000823640483
       7       -0.000008941554    -0.000011458329     0.000022616295
       8       -0.000006828220     0.000007645105     0.000017356425
       9       -0.000009314475     0.000008830775    -0.000033090598
      10        0.000048651184     0.000028003486     0.000019609253
      11       -0.000021964551    -0.000011023490     0.000012577863
      12        0.000007496679    -0.000003438683    -0.000001788382
      13       -0.000001680937     0.000005593929    -0.000002885173
      14        0.000023737590    -0.000005489661     0.000022235130
      15        0.000003138425    -0.000004092376    -0.000001947541

  **** Optimization is complete! (in 4 steps) ****
    Final optimized geometry and variables:
    Molecular point group: c1

    Geometry (in Angstrom), charge = 0, multiplicity = 1:

    H           -3.016735690161     0.214362730343    -0.761468423229
    C           -2.217188009975    -0.517706033753    -0.745083179127
    O           -0.991158724701     0.151082195375    -0.723596442451
    H           -2.297776319597    -1.128841102126    -1.639081418873
    H           -2.351726413627    -1.151919410532     0.125949809218
    C           -0.074467102163    -0.282354915247     0.237493174411
    C            1.186320850833     0.555543242572     0.116897724252
    H            0.159996642084    -1.337195943104     0.091655141190
    H           -0.500191532323    -0.180864860802     1.235801766258
    C            2.252524743409     0.157649235529     1.136866169368
    H            1.574192691116     0.450681241754    -0.891643620051
    H            0.918157539246     1.600090441758     0.242184862334
    H            2.552746399870    -0.879094862145     1.012490632082
    H            3.140458194041     0.771520414916     1.028853953931
    H            1.891886178530     0.277805272696     2.154693276420

  Mulliken Charges: (a.u.)
   Center  Symbol    Alpha    Beta     Spin     Total
       1     H     0.41864  0.41864  0.00000  0.16272
       2     C     3.07612  3.07612  0.00000 -0.15224
       3     O     4.31048  4.31048  0.00000 -0.62095
       4     H     0.42306  0.42306  0.00000  0.15387
       5     H     0.42988  0.42988  0.00000  0.14024
       6     C     2.98134  2.98134  0.00000  0.03732
       7     C     3.15996  3.15996  0.00000 -0.31991
       8     H     0.43341  0.43341  0.00000  0.13318
       9     H     0.43303  0.43303  0.00000  0.13393
      10     C     3.24793  3.24793  0.00000 -0.49587
      11     H     0.41437  0.41437  0.00000  0.17126
      12     H     0.41439  0.41439  0.00000  0.17122
      13     H     0.42094  0.42094  0.00000  0.15812
      14     H     0.41544  0.41544  0.00000  0.16912
      15     H     0.42100  0.42100  0.00000  0.15799

   Total alpha = 21.00000, Total beta = 21.00000, Total charge =  0.00000
