  ==> Input File <==

--------------------------------------------------------------------------
set {
	reference rhf
	basis 6-31G*
}

set_num_threads( 1 )
memory 2 gb

molecule MOL {
0 1

H	 -3.161837	 0.500524	 -0.000234
C	 -2.367097	 -0.232926	 -0.000000
O	 -1.158440	 0.455814	 -0.000122
H	 -2.468853	 -0.861886	 -0.882833
H	 -2.468942	 -0.861421	 0.883154
C	 -0.029776	 -0.365156	 0.000148
C	 1.212217	 0.508981	 0.000007
H	 -0.036772	 -1.013236	 -0.877259
H	 -0.036869	 -1.012778	 0.877897
C	 1.787712	 0.706914	 1.401616
H	 1.953812	 0.053267	 -0.648856
H	 0.957989	 1.468330	 -0.440127
H	 2.071671	 -0.240620	 1.851028
H	 2.672184	 1.334351	 1.371976
H	 1.068449	 1.183922	 2.061561

	symmetry c1
}
set optking {
	frozen_dihedral = ("
		6 3 2 4,
		8 6 3 2
	")
}

ee = energy('scf')
oeprop('DIPOLE', 'QUADRUPOLE', 'MULLIKEN_CHARGES')
f=open( 'psi4out.xyz', 'w' )
f.write( "15  " )
f.write( str(ee) + "\n" )
f.write( MOL.save_string_xyz() )
f.close()
--------------------------------------------------------------------------

    Molecular point group: c1

    Geometry (in Angstrom), charge = 0, multiplicity = 1:

       Center              X                  Y                   Z               Mass
    ------------   -----------------  -----------------  -----------------  -----------------
           H         -3.016881203627     0.294521970289    -0.284391479625     1.007825032070
           C         -2.222141203627    -0.438928029711    -0.284157479625    12.000000000000
           O         -1.013484203627     0.249811970289    -0.284279479625    15.994914619560
           H         -2.323897203627    -1.067888029711    -1.166990479625     1.007825032070
           H         -2.323986203627    -1.067423029711     0.598996520375     1.007825032070
           C          0.115179796373    -0.571158029711    -0.284009479625    12.000000000000
           C          1.357172796373     0.302978970289    -0.284150479625    12.000000000000
           H          0.108183796373    -1.219238029711    -1.161416479625     1.007825032070
           H          0.108086796373    -1.218780029711     0.593739520375     1.007825032070
           C          1.932667796373     0.500911970289     1.117458520375    12.000000000000
           H          2.098767796373    -0.152735029711    -0.933013479625     1.007825032070
           H          1.102944796373     1.262327970289    -0.724284479625     1.007825032070
           H          2.216626796373    -0.446622029711     1.566870520375     1.007825032070
           H          2.817139796373     1.128348970289     1.087818520375     1.007825032070
           H          1.213404796373     0.977919970289     1.777403520375     1.007825032070

  Charge       = 0
  Multiplicity = 1
  Basis Set: 6-31G*
  Basis Set:

    Orbital Energies (a.u.)
    -----------------------

    Doubly Occupied:

       1A    -20.553459     2A    -11.265224     3A    -11.263661
       4A    -11.213092     5A    -11.207886     6A     -1.378483
       7A     -1.055450     8A     -0.952296     9A     -0.881633
      10A     -0.805333    11A     -0.667901    12A     -0.662384
      13A     -0.631938    14A     -0.582777    15A     -0.579724
      16A     -0.546277    17A     -0.491652    18A     -0.488192
      19A     -0.481700    20A     -0.460641    21A     -0.411241

  @DF-RHF Final Energy:  -232.13525720590238

   => Energetics <=

    Nuclear Repulsion Energy =            191.5211668408665844
    One-Electron Energy =                -694.1509585775652340
    Two-Electron Energy =                 270.4945345307963862
    DFT Exchange-Correlation Energy =       0.0000000000000000
    Empirical Dispersion Energy =           0.0000000000000000
    PCM Polarization Energy =               0.0000000000000000
    EFP Energy =                            0.0000000000000000
    Total Energy =                       -232.1352572059022350

  Mulliken Charges: (a.u.)
   Center  Symbol    Alpha    Beta     Spin     Total
       1     H     0.41239  0.41239  0.00000  0.17523
       2     C     3.07946  3.07946  0.00000 -0.15892
       3     O     4.30425  4.30425  0.00000 -0.60850
       4     H     0.43039  0.43039  0.00000  0.13922
       5     H     0.43049  0.43049  0.00000  0.13902
       6     C     2.98853  2.98853  0.00000  0.02293
       7     C     3.16288  3.16288  0.00000 -0.32576
       8     H     0.43117  0.43117  0.00000  0.13766
       9     H     0.43140  0.43140  0.00000  0.13720
      10     C     3.24422  3.24422  0.00000 -0.48844
      11     H     0.42167  0.42167  0.00000  0.15665
      12     H     0.40583  0.40583  0.00000  0.18834
      13     H     0.42334  0.42334  0.00000  0.15332
      14     H     0.41942  0.41942  0.00000  0.16117
      15     H     0.41456  0.41456  0.00000  0.17088

   Total alpha = 21.00000, Total beta = 21.00000, Total charge =  0.00000
