  ==> Input File <==

--------------------------------------------------------------------------
set {
	reference rhf
	basis 6-31G*
}

set_num_threads( 1 )
memory 2 gb

molecule MOL {
0 1

O	 -2.821601	 1.309235	 -0.001213
C	 -2.668563	 0.129746	 -0.000350
C	 -3.801572	 -0.864014	 -0.000442
O	 -1.481751	 -0.454642	 0.000584
H	 -4.417280	 -0.689587	 -0.874708
H	 -3.443784	 -1.883046	 -0.000565
H	 -4.417179	 -0.689832	 0.873954
C	 -0.334255	 0.388708	 0.000906
C	 0.891947	 -0.504646	 0.000751
H	 -0.365390	 1.025305	 -0.873475
H	 -0.365484	 1.024911	 0.875569
C	 2.191998	 0.301789	 0.000897
H	 0.855148	 -1.151283	 -0.871571
H	 0.855132	 -1.151660	 0.872805
C	 3.441114	 -0.581407	 0.000108
H	 2.215074	 0.954890	 -0.869742
H	 2.215465	 0.953923	 0.872248
C	 3.196222	 -1.959224	 0.613716
H	 4.236676	 -0.078949	 0.545720
H	 3.797591	 -0.698554	 -1.020808
H	 2.870682	 -1.876320	 1.646753
H	 4.099203	 -2.561424	 0.599008
H	 2.428566	 -2.500706	 0.068270

	symmetry c1
}
set optking {
	frozen_dihedral = ("
		13 9 8 10,
		2 4 8 10,
		16 12 9 13,
		1 2 4 8
	")
}

ee = energy('scf')
oeprop('DIPOLE', 'QUADRUPOLE', 'MULLIKEN_CHARGES')
f=open( 'psi4out.xyz', 'w' )
f.write( "23  " )
f.write( str(ee) + "\n" )
f.write( MOL.save_string_xyz() )
f.close()
--------------------------------------------------------------------------

    Molecular point group: c1

    Geometry (in Angstrom), charge = 0, multiplicity = 1:

       Center              X                  Y                   Z               Mass
    ------------   -----------------  -----------------  -----------------  -----------------
           O         -2.643414378756     1.561309326227    -0.072196077235    15.994914619560
           C         -2.490376378756     0.381820326227    -0.071333077235    12.000000000000
           C         -3.623385378756    -0.611939673773    -0.071425077235    12.000000000000
           O         -1.303564378756    -0.202567673773    -0.070399077235    15.994914619560
           H         -4.239093378756    -0.437512673773    -0.945691077235     1.007825032070
           H         -3.265597378756    -1.630971673773    -0.071548077235     1.007825032070
           H         -4.238992378756    -0.437757673773     0.802970922765     1.007825032070
           C         -0.156068378756     0.640782326227    -0.070077077235    12.000000000000
           C          1.070133621244    -0.252571673773    -0.070232077235    12.000000000000
           H         -0.187203378756     1.277379326227    -0.944458077235     1.007825032070
           H         -0.187297378756     1.276985326227     0.804585922765     1.007825032070
           C          2.370184621244     0.553863326227    -0.070086077235    12.000000000000
           H          1.033334621244    -0.899208673773    -0.942554077235     1.007825032070
           H          1.033318621244    -0.899585673773     0.801821922765     1.007825032070
           C          3.619300621244    -0.329332673773    -0.070875077235    12.000000000000
           H          2.393260621244     1.206964326227    -0.940725077235     1.007825032070
           H          2.393651621244     1.205997326227     0.801264922765     1.007825032070
           C          3.374408621244    -1.707149673773     0.542732922765    12.000000000000
           H          4.414862621244     0.173125326227     0.474736922765     1.007825032070
           H          3.975777621244    -0.446479673773    -1.091791077235     1.007825032070
           H          3.048868621244    -1.624245673773     1.575769922765     1.007825032070
           H          4.277389621244    -2.309349673773     0.528024922765     1.007825032070
           H          2.606752621244    -2.248631673773    -0.002713077235     1.007825032070

  Charge       = 0
  Multiplicity = 1
  Basis Set: 6-31G*
  Basis Set:

    Orbital Energies (a.u.)
    -----------------------

    Doubly Occupied:

       1A    -20.602589     2A    -20.540242     3A    -11.373810
       4A    -11.280560     5A    -11.232249     6A    -11.223303
       7A    -11.222675     8A    -11.220755     9A    -11.212047
      10A     -1.467593    11A     -1.360405    12A     -1.097089
      13A     -1.040457    14A     -0.999597    15A     -0.930131
      16A     -0.861334    17A     -0.787320    18A     -0.768223
      19A     -0.691622    20A     -0.684555    21A     -0.670769
      22A     -0.644334    23A     -0.612807    24A     -0.602183
      25A     -0.573574    26A     -0.565950    27A     -0.552169
      28A     -0.536811    29A     -0.528830    30A     -0.504137
      31A     -0.498443    32A     -0.471326    33A     -0.469425
      34A     -0.457960    35A     -0.450772    36A     -0.435083

  @DF-RHF Final Energy:  -422.97019569312016

   => Energetics <=

    Nuclear Repulsion Energy =            457.9478631590451982
    One-Electron Energy =               -1483.4938813628677963
    Two-Electron Energy =                 602.5758225107017552
    DFT Exchange-Correlation Energy =       0.0000000000000000
    Empirical Dispersion Energy =           0.0000000000000000
    PCM Polarization Energy =               0.0000000000000000
    EFP Energy =                            0.0000000000000000
    Total Energy =                       -422.9701956931207860

  Mulliken Charges: (a.u.)
   Center  Symbol    Alpha    Beta     Spin     Total
       1     O     4.28398  4.28398  0.00000 -0.56795
       2     C     2.61521  2.61521  0.00000  0.76957
       3     C     3.28770  3.28770  0.00000 -0.57540
       4     O     4.31292  4.31292  0.00000 -0.62584
       5     H     0.39754  0.39754  0.00000  0.20492
       6     H     0.39996  0.39996  0.00000  0.20007
       7     H     0.39755  0.39755  0.00000  0.20491
       8     C     2.99370  2.99370  0.00000  0.01260
       9     C     3.17283  3.17283  0.00000 -0.34566
      10     H     0.41107  0.41107  0.00000  0.17787
      11     H     0.41099  0.41099  0.00000  0.17802
      12     C     3.16234  3.16234  0.00000 -0.32467
      13     H     0.41391  0.41391  0.00000  0.17219
      14     H     0.40970  0.40970  0.00000  0.18060
      15     C     3.15240  3.15240  0.00000 -0.30480
      16     H     0.41799  0.41799  0.00000  0.16403
      17     H     0.41963  0.41963  0.00000  0.16073
      18     C     3.24810  3.24810  0.00000 -0.49620
      19     H     0.41820  0.41820  0.00000  0.16360
      20     H     0.41995  0.41995  0.00000  0.16010
      21     H     0.42069  0.42069  0.00000  0.15862
      22     H     0.41692  0.41692  0.00000  0.16615
      23     H     0.41674  0.41674  0.00000  0.16653

   Total alpha = 36.00000, Total beta = 36.00000, Total charge = -0.00000
