  ==> Input File <==

--------------------------------------------------------------------------
set {
	reference rhf
	basis cc-pvtz
}

set_num_threads( 4 )
memory 2 gb

molecule MOL {
0 1

H	 4.243971	 0.013615	 2.164209
C	 3.480327	 -0.550563	 1.642042
C	 2.185864	 0.247803	 1.534209
H	 3.868900	 -0.800832	 0.660505
H	 3.328248	 -1.478646	 2.182922
C	 1.083995	 -0.508688	 0.807177
H	 2.366279	 1.182280	 1.014625
H	 1.840862	 0.510270	 2.531536
N	 -0.122148	 0.283547	 0.700788
H	 1.417794	 -0.749875	 -0.197599
H	 0.907302	 -1.463864	 1.310666
C	 -1.215959	 -0.382435	 0.027143
H	 -0.414371	 0.576225	 1.609779
C	 -2.451944	 0.502410	 -0.038737
H	 -0.893364	 -0.623006	 -0.981438
H	 -1.475867	 -1.333044	 0.502400
C	 -3.752217	 -0.292550	 0.005776
H	 -2.407325	 1.093801	 -0.946480
H	 -2.431979	 1.206234	 0.790023
H	 -3.817783	 -0.982946	 -0.828547
H	 -4.612613	 0.364348	 -0.042306
H	 -3.830160	 -0.871666	 0.919868

	symmetry c1
}
set optking {
	frozen_dihedral = ("
		15 12 14 18
	")
}

ee = optimize('scf')
oeprop('DIPOLE', 'QUADRUPOLE', 'MULLIKEN_CHARGES')
f=open( 'psi4out.xyz', 'w' )
f.write( "22  " )
f.write( str(ee) + "\n" )
f.write( MOL.save_string_xyz() )
f.close()
--------------------------------------------------------------------------

    Molecular point group: c1
  Charge       = 0
  Multiplicity = 1
  Basis Set: CC-PVTZ
  Basis Set:
  @DF-RHF Final Energy:  -290.48646733586799
    Total Energy =                       -290.4864673358677010
    Molecular point group: c1
  Basis Set: CC-PVTZ
  Basis Set:
  Basis Set: CC-PVTZ
  Basis Set:
  @DF-RHF Final Energy:  -290.48679891242790
    Total Energy =                       -290.4867989124279006
  Basis Set: CC-PVTZ
  Basis Set:
  Basis Set: CC-PVTZ
  Basis Set:
  @DF-RHF Final Energy:  -290.48687471432731
    Total Energy =                       -290.4868747143272003
  Basis Set: CC-PVTZ
  Basis Set:
  Basis Set: CC-PVTZ
  Basis Set:
  @DF-RHF Final Energy:  -290.48687625488941
    Total Energy =                       -290.4868762548894665
  Basis Set: CC-PVTZ
  Basis Set:
  Charge       = 0
  Multiplicity = 1
  Basis Set: CC-PVTZ
  Basis Set:

    Orbital Energies (a.u.)
    -----------------------

    Doubly Occupied:

       1A    -15.527916     2A    -11.236469     3A    -11.235872
       4A    -11.211945     5A    -11.211768     6A    -11.207507
       7A    -11.207257     8A     -1.206801     9A     -1.059442
      10A     -1.026439    11A     -0.928309    12A     -0.869015
      13A     -0.811440    14A     -0.794138    15A     -0.669585
      16A     -0.629418    17A     -0.617436    18A     -0.607408
      19A     -0.576046    20A     -0.563062    21A     -0.536445
      22A     -0.528501    23A     -0.510318    24A     -0.486496
      25A     -0.482678    26A     -0.473753    27A     -0.465858
      28A     -0.451358    29A     -0.360998

  @DF-RHF Final Energy:  -290.48687654057829

   => Energetics <=

    Nuclear Repulsion Energy =            313.7022554866667292
    One-Electron Energy =               -1013.3909160988865779
    Two-Electron Energy =                 409.2017840716413275
    DFT Exchange-Correlation Energy =       0.0000000000000000
    Empirical Dispersion Energy =           0.0000000000000000
    PCM Polarization Energy =               0.0000000000000000
    EFP Energy =                            0.0000000000000000
    Total Energy =                       -290.4868765405784643
    Molecular point group: c1
  Basis Set: CC-PVTZ
  Basis Set:

  -Total Gradient:
     Atom            X                  Y                   Z
    ------   -----------------  -----------------  -----------------
       1       -0.000001048135     0.000000671152    -0.000000943621
       2       -0.000002197268     0.000001388583    -0.000001289111
       3        0.000000552777    -0.000004597422     0.000001372515
       4        0.000000783527    -0.000000959073    -0.000000818948
       5       -0.000000973473     0.000001162723     0.000000010578
       6       -0.000010176876     0.000016248318     0.000003270704
       7        0.000001571385     0.000002280732     0.000001206011
       8        0.000000201222     0.000001054243     0.000001446698
       9       -0.000003501079    -0.000029554144    -0.000010022329
      10        0.000002449195    -0.000003627490    -0.000000582108
      11        0.000005425384    -0.000006927594     0.000002292589
      12       -0.003969963205    -0.005430776225    -0.000537324327
      13       -0.000002555655    -0.000007402506    -0.000014032398
      14        0.003496993341     0.005047288388     0.002884865632
      15        0.002803851659     0.003785719967     0.000006808535
      16       -0.000007016294     0.000022314301    -0.000006240083
      17       -0.000003270996     0.000007700211     0.000014212234
      18       -0.002302182660    -0.003382822329    -0.002338952761
      19        0.000000250351    -0.000015738293     0.000001469561
      20        0.000006809519    -0.000004780004    -0.000003101610
      21       -0.000008149910    -0.000000990137    -0.000000521718
      22       -0.000007852811     0.000002346597    -0.000003126045

  **** Optimization is complete! (in 5 steps) ****
    Final optimized geometry and variables:
    Molecular point group: c1

    Geometry (in Angstrom), charge = 0, multiplicity = 1:

    H            4.382041204376     0.138924879925     1.444298870104
    C            3.614320976267    -0.428072716706     0.931197963396
    C            2.311543210570     0.359902590457     0.851327162664
    H            3.988014175784    -0.668056355086    -0.058647546631
    H            3.479267194147    -1.361189422264     1.467923965057
    C            1.203965145575    -0.400360266833     0.136845214796
    H            2.475335601313     1.299774784734     0.335974877603
    H            1.981271767370     0.611673454353     1.856376787588
    N           -0.008901727645     0.383807169854     0.053254333255
    H            1.524788744715    -0.634051529051    -0.873988846045
    H            1.041915120947    -1.359638857788     0.637809179240
    C           -1.113615354121    -0.292938501351    -0.597448539794
    H           -0.284528610137     0.675791457640     0.967557112896
    C           -2.340572235966     0.616673785501    -0.695538952931
    H           -0.773237413109    -0.547410834568    -1.595439075082
    H           -1.376857083103    -1.225700759944    -0.093369730652
    C           -3.652339730626    -0.164273487608    -0.724133342425
    H           -2.276315697148     1.204397108523    -1.603991456286
    H           -2.348458580354     1.309907393252     0.138531500136
    H           -3.669141401977    -0.871610999729    -1.547221296899
    H           -4.500470083076     0.499708470195    -0.844928828409
    H           -3.797394279137    -0.725243213115     0.193078517127

  Mulliken Charges: (a.u.)
   Center  Symbol    Alpha    Beta     Spin     Total
       1     H     0.44773  0.44773  0.00000  0.10455
       2     C     3.15360  3.15360  0.00000 -0.30719
       3     C     3.08038  3.08038  0.00000 -0.16076
       4     H     0.45475  0.45475  0.00000  0.09050
       5     H     0.45613  0.45613  0.00000  0.08773
       6     C     3.02068  3.02068  0.00000 -0.04136
       7     H     0.44908  0.44908  0.00000  0.10185
       8     H     0.45971  0.45971  0.00000  0.08057
       9     N     3.64021  3.64021  0.00000 -0.28043
      10     H     0.45951  0.45951  0.00000  0.08098
      11     H     0.47575  0.47575  0.00000  0.04849
      12     C     3.02846  3.02846  0.00000 -0.05692
      13     H     0.44479  0.44479  0.00000  0.11042
      14     C     3.08035  3.08035  0.00000 -0.16071
      15     H     0.45779  0.45779  0.00000  0.08443
      16     H     0.47119  0.47119  0.00000  0.05762
      17     C     3.15311  3.15311  0.00000 -0.30622
      18     H     0.45092  0.45092  0.00000  0.09817
      19     H     0.45582  0.45582  0.00000  0.08837
      20     H     0.45501  0.45501  0.00000  0.08999
      21     H     0.44849  0.44849  0.00000  0.10302
      22     H     0.45655  0.45655  0.00000  0.08689

   Total alpha = 29.00000, Total beta = 29.00000, Total charge = -0.00000
