  ==> Input File <==

--------------------------------------------------------------------------
set {
	reference rhf
	basis 6-31G*
}

set_num_threads( 4 )
memory 2 gb

molecule MOL {
0 1

O	 -0.267901	 -2.165704	 0.711429
C	 -1.315188	 -1.711855	 0.377022
C	 -2.597806	 -2.502034	 0.334894
O	 -1.481751	 -0.454642	 0.000584
H	 -2.797025	 -2.895011	 1.324714
H	 -3.431271	 -1.900073	 0.004110
H	 -2.465016	 -3.345564	 -0.331967
C	 -0.334255	 0.388708	 0.000906
C	 0.891947	 -0.504646	 0.000751
H	 -0.365390	 1.025305	 -0.873475
H	 -0.365484	 1.024911	 0.875569
C	 2.191998	 0.301789	 0.000897
H	 0.855148	 -1.151283	 -0.871571
H	 0.855132	 -1.151660	 0.872805
C	 3.441114	 -0.581407	 0.000108
H	 2.215074	 0.954890	 -0.869742
H	 2.215465	 0.953923	 0.872248
C	 4.739576	 0.224112	 -0.001102
H	 3.419457	 -1.233487	 -0.870178
H	 3.420834	 -1.233096	 0.870717
H	 4.804918	 0.861552	 -0.878265
H	 5.606527	 -0.429058	 -0.001824
H	 4.806469	 0.861674	 0.875853

	symmetry c1
}
set optking {
	frozen_dihedral = ("
		2 4 8 10
	")
}

ee = optimize('scf')
oeprop('DIPOLE', 'QUADRUPOLE', 'MULLIKEN_CHARGES')
f=open( 'psi4out.xyz', 'w' )
f.write( "23  " )
f.write( str(ee) + "\n" )
f.write( MOL.save_string_xyz() )
f.close()
--------------------------------------------------------------------------

    Molecular point group: c1
  Charge       = 0
  Multiplicity = 1
  Basis Set: 6-31G*
  Basis Set:
  @DF-RHF Final Energy:  -422.90105605547507
    Total Energy =                       -422.9010560554754647
    Molecular point group: c1
  Basis Set: 6-31G*
  Basis Set:
  Basis Set: 6-31G*
  Basis Set:
  @DF-RHF Final Energy:  -422.95083939863832
    Total Energy =                       -422.9508393986382089
  Basis Set: 6-31G*
  Basis Set:
  Basis Set: 6-31G*
  Basis Set:
  @DF-RHF Final Energy:  -422.96196759343292
    Total Energy =                       -422.9619675934319503
  Basis Set: 6-31G*
  Basis Set:
  Basis Set: 6-31G*
  Basis Set:
  @DF-RHF Final Energy:  -422.96357757071473
    Total Energy =                       -422.9635775707142784
  Basis Set: 6-31G*
  Basis Set:
  @DF-RHF Final Energy:  -422.96731645014074
    Total Energy =                       -422.9673164501406291
  @DF-RHF Final Energy:  -422.96798248360614
    Total Energy =                       -422.9679824836064199
  @DF-RHF Final Energy:  -422.96805068899056
    Total Energy =                       -422.9680506889905018
  @DF-RHF Final Energy:  -422.96807408903436
    Total Energy =                       -422.9680740890346442
  @DF-RHF Final Energy:  -422.96808104426003
    Total Energy =                       -422.9680810442598613
  @DF-RHF Final Energy:  -422.96808402365946
    Total Energy =                       -422.9680840236593440
  @DF-RHF Final Energy:  -422.96808612483164
    Total Energy =                       -422.9680861248316432
  @DF-RHF Final Energy:  -422.96809182733796
    Total Energy =                       -422.9680918273381849
  @DF-RHF Final Energy:  -422.91009822755166
    Total Energy =                       -422.9100982275518845
  @DF-RHF Final Energy:  -422.96272707062269
    Total Energy =                       -422.9627270706222362
  @DF-RHF Final Energy:  -422.94632925812522
    Total Energy =                       -422.9463292581258429
  @DF-RHF Final Energy:  -422.96625967805977
    Total Energy =                       -422.9662596780598278
  @DF-RHF Final Energy:  -422.96748236366892
    Total Energy =                       -422.9674823636694327
  @DF-RHF Final Energy:  -422.96710254039613
    Total Energy =                       -422.9671025403962403
  @DF-RHF Final Energy:  -422.96800350811452
    Total Energy =                       -422.9680035081148617
  @DF-RHF Final Energy:  -422.96795081751839
    Total Energy =                       -422.9679508175186129
  @DF-RHF Final Energy:  -422.96815102289474
    Total Energy =                       -422.9681510228941761
  @DF-RHF Final Energy:  -422.96824187895851
    Total Energy =                       -422.9682418789587928
  @DF-RHF Final Energy:  -422.96823318895974
    Total Energy =                       -422.9682331889596298
  @DF-RHF Final Energy:  -422.96823103420985
    Total Energy =                       -422.9682310342100209
  @DF-RHF Final Energy:  -422.96820182377365
    Total Energy =                       -422.9682018237729153
  @DF-RHF Final Energy:  -422.96824463714472
    Total Energy =                       -422.9682446371444939
  @DF-RHF Final Energy:  -422.96824605977270
    Total Energy =                       -422.9682460597726958
  @DF-RHF Final Energy:  -422.96824367929815
    Total Energy =                       -422.9682436792988938
  @DF-RHF Final Energy:  -422.96823703447632
    Total Energy =                       -422.9682370344759192
  @DF-RHF Final Energy:  -422.96825450787713
    Total Energy =                       -422.9682545078769635
  @DF-RHF Final Energy:  -422.96826029671251
    Total Energy =                       -422.9682602967117191
  @DF-RHF Final Energy:  -422.96826237442133
    Total Energy =                       -422.9682623744213288
  @DF-RHF Final Energy:  -422.96826381581479
    Total Energy =                       -422.9682638158153622
  @DF-RHF Final Energy:  -422.96826408083984
    Total Energy =                       -422.9682640808393899
  @DF-RHF Final Energy:  -422.96826416474630
    Total Energy =                       -422.9682641647470973
  @DF-RHF Final Energy:  -422.96826383270138
    Total Energy =                       -422.9682638327018367
  Basis Set: 6-31G*
  Basis Set:
  @DF-RHF Final Energy:  -422.96826418653666
    Total Energy =                       -422.9682641865365440
  Basis Set: 6-31G*
  Basis Set:
  Basis Set: 6-31G*
  Basis Set:
  @DF-RHF Final Energy:  -422.96826416815600
    Total Energy =                       -422.9682641681563382
  Basis Set: 6-31G*
  Basis Set:
  Basis Set: 6-31G*
  Basis Set:
  @DF-RHF Final Energy:  -422.96826461069622
    Total Energy =                       -422.9682646106965649
  Basis Set: 6-31G*
  Basis Set:
  Charge       = 0
  Multiplicity = 1
  Basis Set: 6-31G*
  Basis Set:

    Orbital Energies (a.u.)
    -----------------------

    Doubly Occupied:

       1A    -20.599554     2A    -20.537779     3A    -11.375458
       4A    -11.288172     5A    -11.229620     6A    -11.220937
       7A    -11.217977     8A    -11.217076     9A    -11.210529
      10A     -1.460431    11A     -1.360768    12A     -1.091146
      13A     -1.039995    14A     -0.999923    15A     -0.933024
      16A     -0.857303    17A     -0.798134    18A     -0.748537
      19A     -0.692282    20A     -0.675799    21A     -0.669593
      22A     -0.643387    23A     -0.606604    24A     -0.588577
      25A     -0.579543    26A     -0.565224    27A     -0.555539
      28A     -0.535366    29A     -0.522610    30A     -0.511825
      31A     -0.495661    32A     -0.475624    33A     -0.468822
      34A     -0.454910    35A     -0.440681    36A     -0.425944

  @DF-RHF Final Energy:  -422.96826440407636

   => Energetics <=

    Nuclear Repulsion Energy =            457.6484480752405375
    One-Electron Energy =               -1483.0447128857233565
    Two-Electron Energy =                 602.4280004064066816
    DFT Exchange-Correlation Energy =       0.0000000000000000
    Empirical Dispersion Energy =           0.0000000000000000
    PCM Polarization Energy =               0.0000000000000000
    EFP Energy =                            0.0000000000000000
    Total Energy =                       -422.9682644040760806
    Molecular point group: c1
  Basis Set: 6-31G*
  Basis Set:

  -Total Gradient:
     Atom            X                  Y                   Z
    ------   -----------------  -----------------  -----------------
       1        0.000057604388     0.000629359167     0.000086546484
       2        0.001592626166    -0.001366100213    -0.003556447223
       3       -0.000686369783     0.000661507357    -0.000169461360
       4       -0.001009105071     0.000882974703     0.005607634152
       5        0.000187365054    -0.000241086817    -0.000097621465
       6        0.000051989101    -0.000077233583     0.000349931374
       7        0.000067965124    -0.000161404238    -0.000274833800
       8       -0.001822039033     0.002794739917     0.000474539297
       9       -0.000303543031     0.000388285592     0.001280389677
      10        0.002058360933    -0.003107171618    -0.002696450103
      11       -0.000129996462     0.000141019601     0.000112106287
      12       -0.000264998711    -0.000132943195     0.000300062021
      13       -0.000076422808     0.000351987261    -0.000623229097
      14        0.000124683496    -0.000497527266    -0.000315276088
      15        0.000374744957    -0.000220642545     0.000082656209
      16       -0.000087892507    -0.000460615552    -0.000374184920
      17        0.000023327074     0.000343053581    -0.000147084524
      18       -0.000554574328     0.000100793071     0.000212940204
      19        0.000084347017     0.000364877525    -0.000145910468
      20        0.000025054859    -0.000157498001    -0.000115667528
      21        0.000073832656    -0.000111580910    -0.000057046562
      22        0.000174663840    -0.000083519320     0.000053267624
      23        0.000038377081    -0.000041274514     0.000013139810

    Molecular point group: c1

    Geometry (in Angstrom), charge = 0, multiplicity = 1:

    O           -1.295114219941    -1.766665268924     0.686228653279
    C           -2.122878167039    -1.042650268843     0.236289187849
    C           -3.540650280061    -1.479127862155    -0.043472618121
    O           -1.959300514095     0.239733951023    -0.039348992834
    H           -4.092424551388    -1.467542225932     0.890607248045
    H           -4.031772230649    -0.822588107663    -0.746302852566
    H           -3.530731942007    -2.495903234036    -0.413017652942
    C           -0.722724795490     0.958978456207     0.009141853092
    C            0.582207129759     0.172350712197    -0.069825667886
    H           -0.773527581516     1.603154746440    -0.858532924761
    H           -0.750690684104     1.570525956162     0.902153841425
    C            1.759199966894     1.141066312626    -0.222834622168
    H            0.550251526016    -0.493729722714    -0.926918773565
    H            0.717958781770    -0.447076203952     0.803447320780
    C            3.113025173228     0.427617851435    -0.242015823856
    H            1.646769371878     1.713343708021    -1.142550834030
    H            1.749484080959     1.865329912618     0.590912747602
    C            4.292933380743     1.394116952646    -0.328904924433
    H            3.144476406599    -0.256992588419    -1.086334936931
    H            3.210793573800    -0.184077533574     0.651472331610
    H            4.245148793506     1.992884190558    -1.234100359112
    H            5.237980566994     0.859454090116    -0.336961853092
    H            4.306017758779     2.074997364762     0.517504193581

  Mulliken Charges: (a.u.)
   Center  Symbol    Alpha    Beta     Spin     Total
       1     O     4.28262  4.28262  0.00000 -0.56523
       2     C     2.61676  2.61676  0.00000  0.76648
       3     C     3.28426  3.28426  0.00000 -0.56852
       4     O     4.32247  4.32247  0.00000 -0.64494
       5     H     0.39889  0.39889  0.00000  0.20222
       6     H     0.40143  0.40143  0.00000  0.19715
       7     H     0.39861  0.39861  0.00000  0.20278
       8     C     2.98166  2.98166  0.00000  0.03667
       9     C     3.17462  3.17462  0.00000 -0.34924
      10     H     0.41304  0.41304  0.00000  0.17393
      11     H     0.41415  0.41415  0.00000  0.17169
      12     C     3.16160  3.16160  0.00000 -0.32321
      13     H     0.41504  0.41504  0.00000  0.16992
      14     H     0.39565  0.39565  0.00000  0.20869
      15     C     3.15060  3.15060  0.00000 -0.30119
      16     H     0.42372  0.42372  0.00000  0.15256
      17     H     0.42340  0.42340  0.00000  0.15321
      18     C     3.23980  3.23980  0.00000 -0.47959
      19     H     0.42077  0.42077  0.00000  0.15846
      20     H     0.41934  0.41934  0.00000  0.16132
      21     H     0.42192  0.42192  0.00000  0.15616
      22     H     0.41806  0.41806  0.00000  0.16388
      23     H     0.42159  0.42159  0.00000  0.15683

   Total alpha = 36.00000, Total beta = 36.00000, Total charge =  0.00000
