                              Psi4 1.0.54 Driver

  ==> Input File <==

--------------------------------------------------------------------------
set {
	reference rhf
	basis cc-pvtz
}

set_num_threads( 4 )
memory 2 gb

molecule MOL {
0 1

H	 3.570440	 3.556838	 -2.870873
C	 3.695155	 2.722959	 -2.189728
C	 2.454921	 2.527892	 -1.324228
H	 3.897440	 1.838255	 -2.783525
H	 4.571979	 2.920834	 -1.581596
C	 2.598711	 1.366586	 -0.343074
H	 1.596205	 2.356994	 -1.963242
H	 2.256556	 3.442395	 -0.770007
C	 1.374543	 1.151337	 0.541215
H	 2.804005	 0.454180	 -0.889151
H	 3.455054	 1.549973	 0.299443
C	 0.166485	 0.574257	 -0.177158
H	 1.614067	 0.452255	 1.338509
H	 1.085378	 2.073752	 1.036241
C	 -1.180025	 0.697761	 0.509157
O	 0.267662	 0.026804	 -1.227555
C	 -2.285431	 -0.137488	 -0.145671
H	 -1.447360	 1.745713	 0.496200
H	 -1.065514	 0.394096	 1.546399
C	 -3.646545	 0.082747	 0.508954
H	 -2.348635	 0.118247	 -1.199806
H	 -2.034895	 -1.192387	 -0.096473
C	 -4.757412	 -0.737227	 -0.138149
H	 -3.900211	 1.137405	 0.459735
H	 -3.580878	 -0.166775	 1.564416
H	 -4.867876	 -0.486707	 -1.187777
H	 -4.549650	 -1.800049	 -0.072540
H	 -5.709585	 -0.556397	 0.346597

	symmetry c1
}
set optking {
	frozen_dihedral = ("
		16 12 15 17
	")
}

ee,wfn = optimize('scf', return_wfn=True)
oeprop( wfn, 'DIPOLE', 'QUADRUPOLE', 'MULLIKEN_CHARGES')
f=open( 'psi4out.xyz', 'w' )
f.write( "28  " )
f.write( str(ee) + "\n" )
f.write( MOL.save_string_xyz() )
f.close()
--------------------------------------------------------------------------

    Molecular point group: c1
  Charge       = 0
  Multiplicity = 1
  Basis Set: CC-PVTZ
  Basis Set:
  @DF-RHF Final Energy:  -426.32159494613256
    Total Energy =                       -426.3215949461325636
    Molecular point group: c1
  Basis Set: CC-PVTZ
  Basis Set:
  Basis Set: CC-PVTZ
  Basis Set:
  @DF-RHF Final Energy:  -426.32209081139092
    Total Energy =                       -426.3220908113908081
  Basis Set: CC-PVTZ
  Basis Set:
  Basis Set: CC-PVTZ
  Basis Set:
  @DF-RHF Final Energy:  -426.32212332339111
    Total Energy =                       -426.3221233233912244
  Basis Set: CC-PVTZ
  Basis Set:
  Basis Set: CC-PVTZ
  Basis Set:
  @DF-RHF Final Energy:  -426.32217560512015
    Total Energy =                       -426.3221756051203783
  Basis Set: CC-PVTZ
  Basis Set:
  Basis Set: CC-PVTZ
  Basis Set:
  @DF-RHF Final Energy:  -426.32219023766470
    Total Energy =                       -426.3221902376649268
  Basis Set: CC-PVTZ
  Basis Set:
  Basis Set: CC-PVTZ
  Basis Set:
  @DF-RHF Final Energy:  -426.32219380623383
    Total Energy =                       -426.3221938062337131
  Basis Set: CC-PVTZ
  Basis Set:
  Charge       = 0
  Multiplicity = 1
  Basis Set: CC-PVTZ
  Basis Set:

    Orbital Energies (a.u.)
    -----------------------

    Doubly Occupied:

       1A    -20.537757     2A    -11.317944     3A    -11.229084
       4A    -11.228932     5A    -11.217306     6A    -11.215140
       7A    -11.214781     8A    -11.211457     9A    -11.207962
      10A    -11.204456    11A     -1.398403    12A     -1.089987
      13A     -1.078891    14A     -1.023510    15A     -0.991721
      16A     -0.911753    17A     -0.866101    18A     -0.806948
      19A     -0.791777    20A     -0.725088    21A     -0.670132
      22A     -0.656564    23A     -0.627844    24A     -0.620105
      25A     -0.611355    26A     -0.583406    27A     -0.580707
      28A     -0.574679    29A     -0.536966    30A     -0.528354
      31A     -0.521578    32A     -0.508828    33A     -0.492251
      34A     -0.483221    35A     -0.474316    36A     -0.471375
      37A     -0.469174    38A     -0.466970    39A     -0.458163
      40A     -0.396362

  @DF-RHF Final Energy:  -426.32219372973373

   => Energetics <=

    Nuclear Repulsion Energy =            530.3878561326090448
    One-Electron Energy =               -1629.4173966697994729
    Two-Electron Energy =                 672.7073468074565881
    DFT Exchange-Correlation Energy =       0.0000000000000000
    Empirical Dispersion Energy =           0.0000000000000000
    PCM Polarization Energy =               0.0000000000000000
    EFP Energy =                            0.0000000000000000
    Total Energy =                       -426.3221937297337263
    Molecular point group: c1
  Basis Set: CC-PVTZ
  Basis Set:

  -Total Gradient:
     Atom            X                  Y                   Z
    ------   -----------------  -----------------  -----------------
       1       -0.000003492144     0.000001426022     0.000001338085
       2        0.000006007353     0.000003035180     0.000016050066
       3       -0.000030779504    -0.000020886695     0.000016570799
       4       -0.000006882207    -0.000004946603     0.000003053443
       5        0.000003291907     0.000001366288    -0.000001643421
       6        0.000012491851     0.000010492121     0.000008769982
       7       -0.000003396547    -0.000000828460    -0.000000091046
       8        0.000006965888     0.000004825038    -0.000006762262
       9       -0.000057999090     0.000067675233     0.000000131214
      10       -0.000018935714     0.000005845872     0.000006290917
      11        0.000010201313    -0.000002176868     0.000005934158
      12       -0.000019262361    -0.000143197735    -0.000025159000
      13        0.000012895672    -0.000028788680     0.000030014404
      14        0.000020091573    -0.000008253594     0.000002621752
      15       -0.000033042048    -0.000165709879    -0.000292008297
      16       -0.000070230270     0.000091607295     0.000016394135
      17        0.000047268182    -0.000119493965     0.000218338383
      18        0.000055461352     0.000164326014     0.000132699126
      19        0.000050913067     0.000106443235    -0.000004304884
      20        0.000052457790     0.000040194520    -0.000093382581
      21       -0.000000427869    -0.000021151167     0.000035078065
      22        0.000017797922    -0.000005964829    -0.000038379467
      23       -0.000032505662    -0.000006241654    -0.000002733087
      24       -0.000025609092     0.000062382489     0.000010852007
      25        0.000051102361    -0.000003483105    -0.000013672120
      26       -0.000013912344    -0.000007227074    -0.000017575138
      27        0.000001574260    -0.000011023316    -0.000008260897
      28       -0.000032045643    -0.000010245686    -0.000000164337

  **** Optimization is complete! (in 7 steps) ****
    Final optimized geometry and variables:
    Molecular point group: c1

    Geometry (in Angstrom), charge = 0, multiplicity = 1:

    H            3.832161013942     2.657637880908    -2.407020484785
    C            3.918788610444     1.836304670771    -1.705059355154
    C            2.640364976498     1.670076601183    -0.890715261433
    H            4.137471231543     0.938115532920    -2.272190296195
    H            4.770397306132     2.037992579327    -1.063309407457
    C            2.729600003054     0.527407336677     0.118402300783
    H            1.808403108903     1.494163634767    -1.562920032041
    H            2.427430029902     2.597265257544    -0.363725310069
    C            1.464984179517     0.340441027973     0.949489822182
    H            2.950573277383    -0.397444313593    -0.400233358346
    H            3.558233662547     0.716099928918     0.794744281580
    C            0.284611127753    -0.248328708665     0.197643140553
    H            1.657121507512    -0.341825544990     1.775126884224
    H            1.158477875915     1.275471041170     1.409346800009
    C           -1.064515817732    -0.106356164508     0.872937158956
    O            0.412826221478    -0.801264695842    -0.845981974693
    C           -2.178786510098    -0.924522093738     0.236206191761
    H           -1.311263026548     0.953829588013     0.858446471173
    H           -0.946744004574    -0.359581124831     1.923467076492
    C           -3.523284067900    -0.729160529156     0.931034044796
    H           -2.263080068061    -0.656907851314    -0.810299201908
    H           -1.906006162982    -1.974544764645     0.254950238695
    C           -4.642550501729    -1.548811017718     0.297730719240
    H           -3.792314351425     0.323835961049     0.908564856817
    H           -3.431799973530    -0.996814888931     1.980580938312
    H           -4.782530453790    -1.279424873148    -0.743627176844
    H           -4.419281110410    -2.609679575589     0.335708689183
    H           -5.584192381648    -1.390024026307     0.810597568252

  Mulliken Charges: (a.u.)
   Center  Symbol    Alpha    Beta     Spin     Total
       1     H     0.44869  0.44869  0.00000  0.10261
       2     C     3.15158  3.15158  0.00000 -0.30316
       3     C     3.08442  3.08442  0.00000 -0.16885
       4     H     0.45179  0.45179  0.00000  0.09641
       5     H     0.45678  0.45678  0.00000  0.08644
       6     C     3.08752  3.08752  0.00000 -0.17505
       7     H     0.44619  0.44619  0.00000  0.10762
       8     H     0.45847  0.45847  0.00000  0.08307
       9     C     3.11971  3.11971  0.00000 -0.23943
      10     H     0.44456  0.44456  0.00000  0.11089
      11     H     0.44745  0.44745  0.00000  0.10510
      12     C     2.87229  2.87229  0.00000  0.25543
      13     H     0.43566  0.43566  0.00000  0.12867
      14     H     0.44298  0.44298  0.00000  0.11404
      15     C     3.10852  3.10852  0.00000 -0.21704
      16     O     4.17731  4.17731  0.00000 -0.35462
      17     C     3.07917  3.07917  0.00000 -0.15834
      18     H     0.44539  0.44539  0.00000  0.10921
      19     H     0.44457  0.44457  0.00000  0.11087
      20     C     3.08570  3.08570  0.00000 -0.17141
      21     H     0.44416  0.44416  0.00000  0.11167
      22     H     0.44913  0.44913  0.00000  0.10173
      23     C     3.14970  3.14970  0.00000 -0.29940
      24     H     0.45561  0.45561  0.00000  0.08879
      25     H     0.45611  0.45611  0.00000  0.08777
      26     H     0.45365  0.45365  0.00000  0.09270
      27     H     0.45414  0.45414  0.00000  0.09172
      28     H     0.44872  0.44872  0.00000  0.10255

   Total alpha = 40.00000, Total beta = 40.00000, Total charge = -0.00000

*** Psi4 exiting successfully. Buy a developer a beer!
