  ==> Input File <==

--------------------------------------------------------------------------
set {
	reference rhf
	basis 6-31G*
}

set_num_threads( 1 )
memory 2 gb

molecule MOL {
0 1

O	 2.895104	 -0.466464	 -1.782989
C	 2.524321	 -0.709459	 -0.680023
C	 1.091099	 -0.681065	 -0.206887
O	 3.347903	 -1.046386	 0.304773
C	 0.102459	 -0.309818	 -1.310011
H	 0.877452	 -1.655464	 0.219836
H	 1.037629	 0.023100	 0.619544
C	 -1.344009	 -0.174118	 -0.822354
H	 0.155409	 -1.049790	 -2.102953
H	 0.416848	 0.628191	 -1.754671
C	 -1.986287	 -1.476771	 -0.336881
H	 -1.939642	 0.222741	 -1.641163
H	 -1.390550	 0.569363	 -0.027949
C	 -3.461151	 -1.310490	 0.034769
H	 -1.894775	 -2.232548	 -1.115499
H	 -1.447861	 -1.860930	 0.526537
C	 -4.112006	 -2.604689	 0.526265
H	 -4.010038	 -0.938649	 -0.828766
H	 -3.554386	 -0.547195	 0.805735
C	 -5.585767	 -2.430931	 0.891693
H	 -4.018846	 -3.368814	 -0.242550
H	 -3.567379	 -2.975590	 1.392056
H	 -6.018778	 -3.364926	 1.236311
H	 -6.164610	 -2.093825	 0.036418
H	 -5.709602	 -1.697117	 1.683182
C	 4.728119	 -1.109107	 -0.004993
H	 4.882018	 -1.033965	 -1.071845
H	 5.068212	 -2.067527	 0.355250
H	 5.265056	 -0.311663	 0.488280

	symmetry c1
}
set optking {
	frozen_dihedral = ("
		21 17 14 11,
		17 14 11 15,
		15 11 8 5,
		6 3 5 9,
		11 8 5 9,
		1 2 4 26,
		6 3 2 1
	")
}

ee = energy('scf')
oeprop('DIPOLE', 'QUADRUPOLE', 'MULLIKEN_CHARGES')
f=open( 'psi4out.xyz', 'w' )
f.write( "29  " )
f.write( str(ee) + "\n" )
f.write( MOL.save_string_xyz() )
f.close()
--------------------------------------------------------------------------

    Molecular point group: c1

    Geometry (in Angstrom), charge = 0, multiplicity = 1:

       Center              X                  Y                   Z               Mass
    ------------   -----------------  -----------------  -----------------  -----------------
           O          3.014299099364     0.658022224672    -1.479579320782    15.994914619560
           C          2.643516099364     0.415027224672    -0.376613320782    12.000000000000
           C          1.210294099364     0.443421224672     0.096522679218    12.000000000000
           O          3.467098099364     0.078100224672     0.608182679218    15.994914619560
           C          0.221654099364     0.814668224672    -1.006601320782    12.000000000000
           H          0.996647099364    -0.530977775328     0.523245679218     1.007825032070
           H          1.156824099364     1.147586224672     0.922953679218     1.007825032070
           C         -1.224813900636     0.950368224672    -0.518944320782    12.000000000000
           H          0.274604099364     0.074696224672    -1.799543320782     1.007825032070
           H          0.536043099364     1.752677224672    -1.451261320782     1.007825032070
           C         -1.867091900636    -0.352284775328    -0.033471320782    12.000000000000
           H         -1.820446900636     1.347227224672    -1.337753320782     1.007825032070
           H         -1.271354900636     1.693849224672     0.275460679218     1.007825032070
           C         -3.341955900636    -0.186003775328     0.338178679218    12.000000000000
           H         -1.775579900636    -1.108061775328    -0.812089320782     1.007825032070
           H         -1.328665900636    -0.736443775328     0.829946679218     1.007825032070
           C         -3.992810900636    -1.480202775328     0.829674679218    12.000000000000
           H         -3.890842900636     0.185837224672    -0.525356320782     1.007825032070
           H         -3.435190900636     0.577291224672     1.109144679218     1.007825032070
           C         -5.466571900636    -1.306444775328     1.195102679218    12.000000000000
           H         -3.899650900636    -2.244327775328     0.060859679218     1.007825032070
           H         -3.448183900636    -1.851103775328     1.695465679218     1.007825032070
           H         -5.899582900636    -2.240439775328     1.539720679218     1.007825032070
           H         -6.045414900636    -0.969338775328     0.339827679218     1.007825032070
           H         -5.590406900636    -0.572630775328     1.986591679218     1.007825032070
           C          4.847314099364     0.015379224672     0.298416679218    12.000000000000
           H          5.001213099364     0.090521224672    -0.768435320782     1.007825032070
           H          5.187407099364    -0.943040775328     0.658659679218     1.007825032070
           H          5.384251099364     0.812823224672     0.791689679218     1.007825032070

  Charge       = 0
  Multiplicity = 1
  Basis Set: 6-31G*
  Basis Set:

    Orbital Energies (a.u.)
    -----------------------

    Doubly Occupied:

       1A    -20.603180     2A    -20.544413     3A    -11.373279
       4A    -11.275928     5A    -11.235236     6A    -11.219299
       7A    -11.217791     8A    -11.216109     9A    -11.215923
      10A    -11.214538    11A    -11.209113    12A     -1.469432
      13A     -1.362727    14A     -1.098280    15A     -1.067024
      16A     -1.019551    17A     -0.976584    18A     -0.928201
      19A     -0.861571    20A     -0.799226    21A     -0.790480
      22A     -0.763322    23A     -0.703706    24A     -0.681077
      25A     -0.672943    26A     -0.650896    27A     -0.629195
      28A     -0.604412    29A     -0.594860    30A     -0.578924
      31A     -0.568133    32A     -0.550763    33A     -0.533910
      34A     -0.524662    35A     -0.516351    36A     -0.512092
      37A     -0.496753    38A     -0.478002    39A     -0.470317
      40A     -0.462480    41A     -0.458849    42A     -0.452802
      43A     -0.441816    44A     -0.435767

  @DF-RHF Final Energy:  -501.04128382273848

   => Energetics <=

    Nuclear Repulsion Energy =            610.3197139962830988
    One-Electron Energy =               -1891.7621060509566178
    Two-Electron Energy =                 780.4011082319359502
    DFT Exchange-Correlation Energy =       0.0000000000000000
    Empirical Dispersion Energy =           0.0000000000000000
    PCM Polarization Energy =               0.0000000000000000
    EFP Energy =                            0.0000000000000000
    Total Energy =                       -501.0412838227375687

  Mulliken Charges: (a.u.)
   Center  Symbol    Alpha    Beta     Spin     Total
       1     O     4.28680  4.28680  0.00000 -0.57360
       2     C     2.60434  2.60434  0.00000  0.79131
       3     C     3.21062  3.21062  0.00000 -0.42125
       4     O     4.30717  4.30717  0.00000 -0.61435
       5     C     3.15384  3.15384  0.00000 -0.30768
       6     H     0.39860  0.39860  0.00000  0.20279
       7     H     0.40092  0.40092  0.00000  0.19816
       8     C     3.15663  3.15663  0.00000 -0.31327
       9     H     0.41304  0.41304  0.00000  0.17391
      10     H     0.40867  0.40867  0.00000  0.18265
      11     C     3.15509  3.15509  0.00000 -0.31017
      12     H     0.41820  0.41820  0.00000  0.16361
      13     H     0.42384  0.42384  0.00000  0.15233
      14     C     3.15030  3.15030  0.00000 -0.30059
      15     H     0.42260  0.42260  0.00000  0.15480
      16     H     0.42360  0.42360  0.00000  0.15280
      17     C     3.15147  3.15147  0.00000 -0.30293
      18     H     0.42331  0.42331  0.00000  0.15337
      19     H     0.42395  0.42395  0.00000  0.15209
      20     C     3.23936  3.23936  0.00000 -0.47871
      21     H     0.42280  0.42280  0.00000  0.15440
      22     H     0.42341  0.42341  0.00000  0.15317
      23     H     0.41921  0.41921  0.00000  0.16157
      24     H     0.42154  0.42154  0.00000  0.15691
      25     H     0.42182  0.42182  0.00000  0.15637
      26     C     3.10219  3.10219  0.00000 -0.20439
      27     H     0.39101  0.39101  0.00000  0.21798
      28     H     0.41227  0.41227  0.00000  0.17547
      29     H     0.41338  0.41338  0.00000  0.17324

   Total alpha = 44.00000, Total beta = 44.00000, Total charge = -0.00000
