                              Psi4 1.0.54 Driver

  ==> Input File <==

--------------------------------------------------------------------------
set {
	reference rhf
	basis cc-pvtz
}

set_num_threads( 4 )
memory 2 gb

molecule MOL {
0 1

O	 1.212151	 0.397159	 -0.967244
C	 0.576499	 0.134701	 -0.003900
C	 -0.765656	 -0.550508	 -0.002152
O	 0.969321	 0.424944	 1.225499
C	 -1.945526	 0.411052	 0.000603
H	 -0.794329	 -1.203792	 -0.868145
H	 -0.791555	 -1.205429	 0.862701
C	 -3.282915	 -0.321280	 0.002596
H	 -1.880300	 1.059126	 -0.864925
H	 -1.877207	 1.057892	 0.866807
H	 -3.388495	 -0.952755	 -0.873419
H	 -4.107811	 0.380864	 0.004116
H	 -3.385717	 -0.953283	 0.878571
C	 2.214919	 1.076920	 1.371866
H	 3.012781	 0.468151	 0.973282
H	 2.351199	 1.222624	 2.431058
H	 2.209124	 2.028791	 0.862014

	symmetry c1
}
set optking {
	frozen_dihedral = ("
		1 2 3 6
	")
}

ee,wfn = optimize('scf', return_wfn=True)
oeprop( wfn, 'DIPOLE', 'QUADRUPOLE', 'MULLIKEN_CHARGES')
f=open( 'psi4out.xyz', 'w' )
f.write( "17  " )
f.write( str(ee) + "\n" )
f.write( MOL.save_string_xyz() )
f.close()
--------------------------------------------------------------------------

    Molecular point group: c1
  Charge       = 0
  Multiplicity = 1
  Basis Set: CC-PVTZ
  Basis Set:
  @DF-RHF Final Energy:  -345.03354367040072
    Total Energy =                       -345.0335436704006042
    Molecular point group: c1
  Basis Set: CC-PVTZ
  Basis Set:
  Basis Set: CC-PVTZ
  Basis Set:
  @DF-RHF Final Energy:  -345.03373445202936
    Total Energy =                       -345.0337344520295915
  Basis Set: CC-PVTZ
  Basis Set:
  Basis Set: CC-PVTZ
  Basis Set:
  @DF-RHF Final Energy:  -345.03415091638334
    Total Energy =                       -345.0341509163831688
  Basis Set: CC-PVTZ
  Basis Set:
  Basis Set: CC-PVTZ
  Basis Set:
  @DF-RHF Final Energy:  -345.03420266964088
    Total Energy =                       -345.0342026696405924
  Basis Set: CC-PVTZ
  Basis Set:
  Basis Set: CC-PVTZ
  Basis Set:
  @DF-RHF Final Energy:  -345.03420495556799
    Total Energy =                       -345.0342049555677022
  Basis Set: CC-PVTZ
  Basis Set:
  Charge       = 0
  Multiplicity = 1
  Basis Set: CC-PVTZ
  Basis Set:

    Orbital Energies (a.u.)
    -----------------------

    Doubly Occupied:

       1A    -20.597845     2A    -20.532222     3A    -11.363601
       4A    -11.278644     5A    -11.232557     6A    -11.230584
       7A    -11.216847     8A     -1.472129     9A     -1.364685
      10A     -1.085407    11A     -1.000817    12A     -0.942422
      13A     -0.830730    14A     -0.775941    15A     -0.699879
      16A     -0.683128    17A     -0.676324    18A     -0.637847
      19A     -0.596793    20A     -0.583357    21A     -0.554472
      22A     -0.543610    23A     -0.527747    24A     -0.508182
      25A     -0.488675    26A     -0.485241    27A     -0.458093
      28A     -0.435682

  @DF-RHF Final Energy:  -345.03420516677409

   => Energetics <=

    Nuclear Repulsion Energy =            314.4267251139557402
    One-Electron Energy =               -1093.3149422824892554
    Two-Electron Energy =                 433.8540120017593722
    DFT Exchange-Correlation Energy =       0.0000000000000000
    Empirical Dispersion Energy =           0.0000000000000000
    PCM Polarization Energy =               0.0000000000000000
    EFP Energy =                            0.0000000000000000
    Total Energy =                       -345.0342051667741430
    Molecular point group: c1
  Basis Set: CC-PVTZ
  Basis Set:

  -Total Gradient:
     Atom            X                  Y                   Z
    ------   -----------------  -----------------  -----------------
       1       -0.000138061046     0.000233828557     0.000059916506
       2        0.000213646571    -0.000386266466    -0.000060554009
       3       -0.000209523163     0.000349649326    -0.000144907251
       4        0.000050007310     0.000003937074     0.000032608444
       5       -0.000004798766     0.000004602511    -0.000009668509
       6        0.000110011550    -0.000212266557     0.000132477823
       7        0.000005482336     0.000004206539    -0.000013200493
       8        0.000003595390    -0.000000035259     0.000006732447
       9       -0.000004328661    -0.000005371509     0.000005139251
      10       -0.000008499910     0.000004243385    -0.000002159870
      11        0.000004345029     0.000001972974    -0.000001978472
      12        0.000006403588     0.000004453934     0.000002726746
      13       -0.000000291932    -0.000002989968    -0.000000862463
      14       -0.000041446571     0.000011624959    -0.000006515273
      15        0.000004348144    -0.000009349743    -0.000004304475
      16        0.000001844418    -0.000003278181     0.000001202521
      17        0.000007265714     0.000001038423     0.000003347082

  **** Optimization is complete! (in 6 steps) ****
    Final optimized geometry and variables:
    Molecular point group: c1

    Geometry (in Angstrom), charge = 0, multiplicity = 1:

    O            1.273240012074     0.198092312675    -1.223721862601
    C            0.689175264736    -0.117480029808    -0.242931644672
    C           -0.636302921768    -0.832130657846    -0.231205898522
    O            1.121282046943     0.155519046507     0.976996959239
    C           -1.801093794117     0.164579559572    -0.213469295917
    H           -0.683087410980    -1.442777537824    -1.122413473596
    H           -0.687550706586    -1.476083676928     0.637116186381
    C           -3.155700319650    -0.533871328412    -0.225178828478
    H           -1.718534826152     0.818213729012    -1.074668266544
    H           -1.721751485486     0.791554292003     0.668084601978
    H           -3.271087303002    -1.148256877187    -1.111375003997
    H           -3.962952938646     0.188641338796    -0.215192984537
    H           -3.273562348588    -1.175321909081     0.641471050310
    C            2.334473171669     0.872106531804     1.089226377722
    H            3.145161424332     0.320688670407     0.636768822061
    H            2.511186774994     0.994922829860     2.145444955162
    H            2.253360363091     1.836272793140     0.609618064610

  Mulliken Charges: (a.u.)
   Center  Symbol    Alpha    Beta     Spin     Total
       1     O     4.20350  4.20350  0.00000 -0.40700
       2     C     2.80584  2.80584  0.00000  0.38832
       3     C     3.07796  3.07796  0.00000 -0.15592
       4     O     4.14969  4.14969  0.00000 -0.29938
       5     C     3.09281  3.09281  0.00000 -0.18562
       6     H     0.43989  0.43989  0.00000  0.12023
       7     H     0.44472  0.44472  0.00000  0.11055
       8     C     3.15125  3.15125  0.00000 -0.30250
       9     H     0.44382  0.44382  0.00000  0.11237
      10     H     0.44764  0.44764  0.00000  0.10472
      11     H     0.45287  0.45287  0.00000  0.09427
      12     H     0.44613  0.44613  0.00000  0.10774
      13     H     0.45420  0.45420  0.00000  0.09160
      14     C     3.03666  3.03666  0.00000 -0.07333
      15     H     0.45302  0.45302  0.00000  0.09395
      16     H     0.44548  0.44548  0.00000  0.10903
      17     H     0.45452  0.45452  0.00000  0.09097

   Total alpha = 28.00000, Total beta = 28.00000, Total charge =  0.00000

*** Psi4 exiting successfully. Buy a developer a beer!
