  ==> Input File <==

--------------------------------------------------------------------------
set {
	reference rhf
	basis 6-31G*
}

set_num_threads( 4 )
memory 2 gb

molecule MOL {
0 1

O	 1.846825	 1.296220	 0.000415
C	 1.705091	 0.115954	 0.001797
C	 0.381791	 -0.609817	 0.001258
O	 2.721346	 -0.737485	 -0.000216
C	 -0.823008	 0.326187	 0.001381
H	 0.371250	 -1.265087	 -0.865474
H	 0.370908	 -1.265746	 0.867490
C	 -2.149452	 -0.435131	 -0.000098
H	 -0.770201	 0.977095	 -0.865636
H	 -0.771220	 0.975655	 0.869608
C	 -3.368779	 0.488503	 -0.000883
H	 -2.193746	 -1.087250	 -0.871175
H	 -2.195311	 -1.087803	 0.870418
C	 -4.619689	 -0.174398	 0.574477
H	 -3.569512	 0.817561	 -1.018020
H	 -3.140118	 1.385655	 0.570055
H	 -4.894411	 -1.056536	 0.003010
H	 -5.466205	 0.505063	 0.560548
H	 -4.461422	 -0.484360	 1.603645
C	 4.024888	 -0.184556	 -0.001949
H	 4.179030	 0.422472	 -0.882452
H	 4.701782	 -1.024608	 -0.003642
H	 4.181981	 0.421185	 0.878906

	symmetry c1
}
set optking {
	frozen_dihedral = ("
		15 11 8 12
	")
}

ee = optimize('scf')
oeprop('DIPOLE', 'QUADRUPOLE', 'MULLIKEN_CHARGES')
f=open( 'psi4out.xyz', 'w' )
f.write( "23  " )
f.write( str(ee) + "\n" )
f.write( MOL.save_string_xyz() )
f.close()
--------------------------------------------------------------------------

    Molecular point group: c1
  Charge       = 0
  Multiplicity = 1
  Basis Set: 6-31G*
  Basis Set:
  @DF-RHF Final Energy:  -422.97427785580834
    Total Energy =                       -422.9742778558081682
    Molecular point group: c1
  Basis Set: 6-31G*
  Basis Set:
  Basis Set: 6-31G*
  Basis Set:
  @DF-RHF Final Energy:  -422.97441769097099
    Total Energy =                       -422.9744176909708813
  Basis Set: 6-31G*
  Basis Set:
  Basis Set: 6-31G*
  Basis Set:
  @DF-RHF Final Energy:  -422.97428812754379
    Total Energy =                       -422.9742881275443551
  Basis Set: 6-31G*
  Basis Set:
  Basis Set: 6-31G*
  Basis Set:
  @DF-RHF Final Energy:  -422.97453369480127
    Total Energy =                       -422.9745336948017211
  Basis Set: 6-31G*
  Basis Set:
  Basis Set: 6-31G*
  Basis Set:
  @DF-RHF Final Energy:  -422.97453875597017
    Total Energy =                       -422.9745387559698884
  Basis Set: 6-31G*
  Basis Set:
  Charge       = 0
  Multiplicity = 1
  Basis Set: 6-31G*
  Basis Set:

    Orbital Energies (a.u.)
    -----------------------

    Doubly Occupied:

       1A    -20.603566     2A    -20.545362     3A    -11.372196
       4A    -11.280806     5A    -11.235372     6A    -11.219141
       7A    -11.217886     8A    -11.216455     9A    -11.209399
      10A     -1.469256    11A     -1.362701    12A     -1.092679
      13A     -1.043098    14A     -0.986895    15A     -0.931815
      16A     -0.843193    17A     -0.794762    18A     -0.767229
      19A     -0.696756    20A     -0.683738    21A     -0.671537
      22A     -0.650861    23A     -0.610371    24A     -0.599064
      25A     -0.572996    26A     -0.563349    27A     -0.551520
      28A     -0.523908    29A     -0.521874    30A     -0.505755
      31A     -0.486466    32A     -0.468860    33A     -0.465590
      34A     -0.460137    35A     -0.455471    36A     -0.435176

  @DF-RHF Final Energy:  -422.97453931225414

   => Energetics <=

    Nuclear Repulsion Energy =            452.1911065429378596
    One-Electron Energy =               -1472.1008114724183997
    Two-Electron Energy =                 596.9351656172267440
    DFT Exchange-Correlation Energy =       0.0000000000000000
    Empirical Dispersion Energy =           0.0000000000000000
    PCM Polarization Energy =               0.0000000000000000
    EFP Energy =                            0.0000000000000000
    Total Energy =                       -422.9745393122537962
    Molecular point group: c1
  Basis Set: 6-31G*
  Basis Set:

  -Total Gradient:
     Atom            X                  Y                   Z
    ------   -----------------  -----------------  -----------------
       1        0.000001355878    -0.000008098272    -0.000021009134
       2        0.000004572039    -0.000000508489     0.000065479249
       3        0.000008283933     0.000008445965     0.000019145140
       4       -0.000006183038     0.000005699354    -0.000012913534
       5        0.000012090550     0.000019045360    -0.000031025739
       6       -0.000016737457    -0.000001525412    -0.000005396944
       7        0.000017398110    -0.000001130103    -0.000004151453
       8       -0.003134611085    -0.004020903602     0.002384694188
       9        0.000000300331     0.000002203392    -0.000008014908
      10        0.000001807067     0.000014730870    -0.000002179332
      11        0.003419237042     0.004480585453     0.000239837355
      12        0.002054559600     0.002625823690    -0.002065348901
      13        0.000005957785     0.000031809567    -0.000026651032
      14       -0.000019606740    -0.000007450732     0.000013867569
      15       -0.002334521772    -0.003114137821    -0.000552715456
      16        0.000001587476    -0.000025948414     0.000004069221
      17        0.000003430029    -0.000007924348     0.000000954521
      18       -0.000007310289    -0.000000592346    -0.000003797147
      19       -0.000014810139    -0.000000059605     0.000004812363
      20        0.000001491081    -0.000000463236     0.000005533129
      21        0.000000658356     0.000000350102    -0.000001546763
      22        0.000001564966     0.000000420705    -0.000002101417
      23       -0.000000513734    -0.000000372080    -0.000001540975

  **** Optimization is complete! (in 6 steps) ****
    Final optimized geometry and variables:
    Molecular point group: c1

    Geometry (in Angstrom), charge = 0, multiplicity = 1:

    O            1.841680430536     1.283683420973    -0.056458887933
    C            1.699639776258     0.103534913566    -0.067730345777
    C            0.376219998989    -0.622029965800    -0.058281473048
    O            2.715578215681    -0.750007723199    -0.091003375129
    C           -0.828470794193     0.313588250873    -0.033056009482
    H            0.354580383263    -1.269095751471    -0.930959989712
    H            0.376543758683    -1.286388446694     0.801702302104
    C           -2.156704801291    -0.447881121982    -0.012415907818
    H           -0.792146197441     0.967843079568    -0.898883004545
    H           -0.761115375777     0.960194694394     0.836077289572
    C           -3.373903802866     0.485385955005    -0.051469502578
    H           -2.186803156211    -1.107506593006    -0.877490247617
    H           -2.199031805040    -1.078169968264     0.873323087985
    C           -4.650017778087    -0.185029719269     0.461090092244
    H           -3.546174239163     0.802483672183    -1.076850467231
    H           -3.176694134694     1.379862950832     0.533168327508
    H           -4.875447491112    -1.083490438488    -0.107049462883
    H           -5.504289220695     0.479965119516     0.379476481637
    H           -4.551144824896    -0.471295599965     1.504332427989
    C            4.019165725254    -0.197249374320    -0.102165155254
    H            4.163143666423     0.419125483241    -0.977878876589
    H            4.695808492298    -1.037356030373    -0.120871022381
    H            4.186777892566     0.398965460990     0.783244562357

  Mulliken Charges: (a.u.)
   Center  Symbol    Alpha    Beta     Spin     Total
       1     O     4.28608  4.28608  0.00000 -0.57215
       2     C     2.60496  2.60496  0.00000  0.79008
       3     C     3.20830  3.20830  0.00000 -0.41659
       4     O     4.30735  4.30735  0.00000 -0.61470
       5     C     3.15346  3.15346  0.00000 -0.30693
       6     H     0.40080  0.40080  0.00000  0.19839
       7     H     0.40074  0.40074  0.00000  0.19852
       8     C     3.15403  3.15403  0.00000 -0.30806
       9     H     0.41187  0.41187  0.00000  0.17627
      10     H     0.41167  0.41167  0.00000  0.17666
      11     C     3.15236  3.15236  0.00000 -0.30472
      12     H     0.42300  0.42300  0.00000  0.15400
      13     H     0.42298  0.42298  0.00000  0.15404
      14     C     3.23996  3.23996  0.00000 -0.47991
      15     H     0.42074  0.42074  0.00000  0.15852
      16     H     0.41967  0.41967  0.00000  0.16067
      17     H     0.42203  0.42203  0.00000  0.15593
      18     H     0.41914  0.41914  0.00000  0.16173
      19     H     0.42183  0.42183  0.00000  0.15634
      20     C     3.09243  3.09243  0.00000 -0.18486
      21     H     0.40908  0.40908  0.00000  0.18184
      22     H     0.40845  0.40845  0.00000  0.18311
      23     H     0.40909  0.40909  0.00000  0.18182

   Total alpha = 36.00000, Total beta = 36.00000, Total charge = -0.00000
