                              Psi4 1.0.54 Driver

  ==> Input File <==

--------------------------------------------------------------------------
set {
	reference rhf
	basis cc-pvtz
}

set_num_threads( 4 )
memory 2 gb

molecule MOL {
0 1

H	 -2.142189	 -1.197068	 -0.050204
O	 -2.346257	 -0.289210	 0.080372
C	 -1.183935	 0.486039	 -0.009831
C	 0.062853	 -0.375310	 0.027457
H	 -1.178881	 1.094526	 -0.908634
H	 -1.184406	 1.155156	 0.838676
O	 1.172093	 0.457955	 -0.054438
H	 0.052476	 -1.081302	 -0.804627
H	 0.076323	 -0.955658	 0.947560
C	 2.395478	 -0.199028	 -0.000366
H	 2.505946	 -0.901710	 -0.823354
H	 3.174616	 0.545641	 -0.071768
H	 2.513730	 -0.742241	 0.934223

	symmetry c1
}
set optking {
	frozen_dihedral = ("
		1 2 3 5
	")
}

ee,wfn = optimize('scf', return_wfn=True)
oeprop( wfn, 'DIPOLE', 'QUADRUPOLE', 'MULLIKEN_CHARGES')
f=open( 'psi4out.xyz', 'w' )
f.write( "13  " )
f.write( str(ee) + "\n" )
f.write( MOL.save_string_xyz() )
f.close()
--------------------------------------------------------------------------

    Molecular point group: c1
  Charge       = 0
  Multiplicity = 1
  Basis Set: CC-PVTZ
  Basis Set:
  @DF-RHF Final Energy:  -268.05880337406654
    Total Energy =                       -268.0588033740664287
    Molecular point group: c1
  Basis Set: CC-PVTZ
  Basis Set:
  Basis Set: CC-PVTZ
  Basis Set:
  @DF-RHF Final Energy:  -268.05496888953496
    Total Energy =                       -268.0549688895347344
  Basis Set: CC-PVTZ
  Basis Set:
  Basis Set: CC-PVTZ
  Basis Set:
  @DF-RHF Final Energy:  -268.05903732988475
    Total Energy =                       -268.0590373298845748
  Basis Set: CC-PVTZ
  Basis Set:
  Basis Set: CC-PVTZ
  Basis Set:
  @DF-RHF Final Energy:  -268.05907382508974
    Total Energy =                       -268.0590738250898539
  Basis Set: CC-PVTZ
  Basis Set:
  Charge       = 0
  Multiplicity = 1
  Basis Set: CC-PVTZ
  Basis Set:

    Orbital Energies (a.u.)
    -----------------------

    Doubly Occupied:

       1A    -20.561372     2A    -20.550598     3A    -11.278278
       4A    -11.271745     5A    -11.267058     6A     -1.397421
       7A     -1.367248     8A     -1.023011     9A     -0.916605
      10A     -0.852410    11A     -0.696990    12A     -0.689365
      13A     -0.672229    14A     -0.626616    15A     -0.610686
      16A     -0.580906    17A     -0.546591    18A     -0.500334
      19A     -0.473646    20A     -0.443105    21A     -0.429902

  @DF-RHF Final Energy:  -268.05907435496761

   => Energetics <=

    Nuclear Repulsion Energy =            190.6786295351119236
    One-Electron Energy =                -743.9631747430063342
    Two-Electron Energy =                 285.2254708529267191
    DFT Exchange-Correlation Energy =       0.0000000000000000
    Empirical Dispersion Energy =           0.0000000000000000
    PCM Polarization Energy =               0.0000000000000000
    EFP Energy =                            0.0000000000000000
    Total Energy =                       -268.0590743549677200
    Molecular point group: c1
  Basis Set: CC-PVTZ
  Basis Set:

  -Total Gradient:
     Atom            X                  Y                   Z
    ------   -----------------  -----------------  -----------------
       1        0.000309706032    -0.000457020073     0.001375278097
       2       -0.000545052056     0.000768521431    -0.001454620600
       3        0.000720327794    -0.001156976914    -0.000745530091
       4       -0.000069805559    -0.000017966177     0.000042192123
       5       -0.000487838920     0.000822697613     0.000819067060
       6       -0.000023272006    -0.000008371737     0.000018810215
       7        0.000073659262     0.000009198383    -0.000025292071
       8        0.000000551630    -0.000000132811    -0.000010179818
       9       -0.000030893808    -0.000003919284    -0.000011446144
      10        0.000023217520     0.000083422578    -0.000001398994
      11        0.000001384384    -0.000016559785    -0.000016092527
      12        0.000043931828    -0.000010989813    -0.000006235218
      13       -0.000015916105    -0.000011903410     0.000015447968

  **** Optimization is complete! (in 5 steps) ****
    Final optimized geometry and variables:
    Molecular point group: c1

    Geometry (in Angstrom), charge = 0, multiplicity = 1:

    H           -2.186990513478    -1.170166694076    -0.146020042743
    O           -2.352595348759    -0.300271701349     0.166250127860
    C           -1.181255677849     0.471819728415     0.162268292555
    C            0.061918582022    -0.366777877060    -0.051369772470
    H           -1.243491215158     1.231332011898    -0.608589935375
    H           -1.106921714898     0.979417480983     1.115422745020
    O            1.165787172060     0.473094877602    -0.041645192835
    H           -0.008103924786    -0.895191420330    -1.004181642959
    H            0.139373167128    -1.116334893428     0.736434354430
    C            2.385907926556    -0.170047199345    -0.218071281739
    H            2.428538344824    -0.684982974419    -1.175079972192
    H            3.161417967655     0.580949201257    -0.191650544904
    H            2.570843001140    -0.893844391662     0.572182008877

  Mulliken Charges: (a.u.)
   Center  Symbol    Alpha    Beta     Spin     Total
       1     H     0.39379  0.39379  0.00000  0.21242
       2     O     4.20362  4.20362  0.00000 -0.40724
       3     C     2.95103  2.95103  0.00000  0.09793
       4     C     2.97838  2.97838  0.00000  0.04323
       5     H     0.46855  0.46855  0.00000  0.06289
       6     H     0.46428  0.46428  0.00000  0.07145
       7     O     4.17138  4.17138  0.00000 -0.34275
       8     H     0.47844  0.47844  0.00000  0.04312
       9     H     0.47186  0.47186  0.00000  0.05627
      10     C     3.03355  3.03355  0.00000 -0.06711
      11     H     0.47048  0.47048  0.00000  0.05904
      12     H     0.44458  0.44458  0.00000  0.11083
      13     H     0.47004  0.47004  0.00000  0.05992

   Total alpha = 21.00000, Total beta = 21.00000, Total charge = -0.00000

*** Psi4 exiting successfully. Buy a developer a beer!
