  ==> Input File <==

--------------------------------------------------------------------------
set {
	reference rhf
	basis 6-31G*
}

set_num_threads( 4 )
memory 2 gb

molecule MOL {
0 1

H	 -0.000158	 1.970498	 0.756846
O	 -0.000074	 1.880206	 -0.189275
C	 -0.000015	 0.544847	 -0.545111
C	 -1.278788	 -0.123820	 -0.051541
C	 1.278802	 -0.123718	 -0.051505
H	 -0.000001	 0.490777	 -1.623619
F	 -1.302554	 -1.378684	 -0.446882
F	 -1.375309	 -0.108271	 1.261015
F	 -2.346872	 0.477246	 -0.551054
F	 2.323327	 0.466644	 -0.591854
F	 1.326242	 -1.401483	 -0.363667
F	 1.388946	 -0.015632	 1.262939

	symmetry c1
}
set optking {
	frozen_dihedral = ("
		7 4 3 6
	")
}

ee = optimize('scf')
oeprop('DIPOLE', 'QUADRUPOLE', 'MULLIKEN_CHARGES')
f=open( 'psi4out.xyz', 'w' )
f.write( "12  " )
f.write( str(ee) + "\n" )
f.write( MOL.save_string_xyz() )
f.close()
--------------------------------------------------------------------------

    Molecular point group: c1
  Charge       = 0
  Multiplicity = 1
  Basis Set: 6-31G*
  Basis Set:
  @DF-RHF Final Energy:  -786.27751511112444
    Total Energy =                       -786.2775151111238756
    Molecular point group: c1
  Basis Set: 6-31G*
  Basis Set:
  Basis Set: 6-31G*
  Basis Set:
  @DF-RHF Final Energy:  -786.27788950908632
    Total Energy =                       -786.2778895090864353
  Basis Set: 6-31G*
  Basis Set:
  Basis Set: 6-31G*
  Basis Set:
  @DF-RHF Final Energy:  -786.27805501520299
    Total Energy =                       -786.2780550152035630
  Basis Set: 6-31G*
  Basis Set:
  Basis Set: 6-31G*
  Basis Set:
  @DF-RHF Final Energy:  -786.27806382325002
    Total Energy =                       -786.2780638232504771
  Basis Set: 6-31G*
  Basis Set:
  Charge       = 0
  Multiplicity = 1
  Basis Set: 6-31G*
  Basis Set:

    Orbital Energies (a.u.)
    -----------------------

    Doubly Occupied:

       1A    -26.362990     2A    -26.362695     3A    -26.362171
       4A    -26.361384     5A    -26.358381     6A    -26.357727
       7A    -20.617322     8A    -11.526077     9A    -11.525519
      10A    -11.349388    11A     -1.764704    12A     -1.758728
      13A     -1.662116    14A     -1.657805    15A     -1.656897
      16A     -1.655157    17A     -1.435725    18A     -1.101987
      19A     -0.996864    20A     -0.938507    21A     -0.863666
      22A     -0.862792    23A     -0.852079    24A     -0.844424
      25A     -0.831783    26A     -0.815995    27A     -0.743691
      28A     -0.726893    29A     -0.724306    30A     -0.717591
      31A     -0.689256    32A     -0.686329    33A     -0.683273
      34A     -0.674485    35A     -0.669927    36A     -0.663000
      37A     -0.656539    38A     -0.653652    39A     -0.620447
      40A     -0.551463    41A     -0.506069

  @DF-RHF Final Energy:  -786.27806481892560

   => Energetics <=

    Nuclear Repulsion Energy =            670.5280128780312907
    One-Electron Energy =               -2427.9125477811157907
    Two-Electron Energy =                 971.1064700841593549
    DFT Exchange-Correlation Energy =       0.0000000000000000
    Empirical Dispersion Energy =           0.0000000000000000
    PCM Polarization Energy =               0.0000000000000000
    EFP Energy =                            0.0000000000000000
    Total Energy =                       -786.2780648189250314
    Molecular point group: c1
  Basis Set: 6-31G*
  Basis Set:

  -Total Gradient:
     Atom            X                  Y                   Z
    ------   -----------------  -----------------  -----------------
       1        0.000019437406     0.000011282548    -0.000005504858
       2       -0.000014617040    -0.000049127697    -0.000004231164
       3       -0.000313635854     0.000630101076    -0.000135565026
       4        0.000303377012    -0.000268617491     0.000333317694
       5       -0.000023265601     0.000052469985    -0.000105267164
       6        0.000267877599    -0.000451617922     0.000004802104
       7       -0.000216074176     0.000213159098    -0.000366375123
       8       -0.000079553075     0.000025186103     0.000103299758
       9        0.000057094537    -0.000123382621     0.000084838075
      10       -0.000010458956    -0.000041960684     0.000017351529
      11       -0.000008229187     0.000039661874     0.000024328781
      12        0.000018047330    -0.000037154283     0.000049005400

  **** Optimization is complete! (in 5 steps) ****
    Final optimized geometry and variables:
    Molecular point group: c1

    Geometry (in Angstrom), charge = 0, multiplicity = 1:

    H           -0.001129736461     1.965416183410     0.777914966461
    O           -0.010754418778     1.884197750693    -0.168959170180
    C           -0.002239643094     0.552885625721    -0.538161961314
    C           -1.277337904442    -0.132886428015    -0.058763660110
    C            1.278771354739    -0.112794228975    -0.045754043276
    H            0.004104798422     0.506999415970    -1.617147941227
    F           -1.335505896837    -1.391645667783    -0.439327309376
    F           -1.369391501034    -0.093965995981     1.260803532128
    F           -2.326433874440     0.489099055915    -0.552634805592
    F            2.320970244612     0.467222128338    -0.601873412027
    F            1.319979779228    -1.394947887976    -0.340445943871
    F            1.399786880075     0.012719611094     1.266182670002

  Mulliken Charges: (a.u.)
   Center  Symbol    Alpha    Beta     Spin     Total
       1     H     0.26571  0.26571  0.00000  0.46857
       2     O     4.36256  4.36256  0.00000 -0.72512
       3     C     3.04471  3.04471  0.00000 -0.08943
       4     C     2.44670  2.44670  0.00000  1.10660
       5     C     2.44600  2.44600  0.00000  1.10800
       6     H     0.37531  0.37531  0.00000  0.24937
       7     F     4.67404  4.67404  0.00000 -0.34809
       8     F     4.68058  4.68058  0.00000 -0.36116
       9     F     4.67472  4.67472  0.00000 -0.34943
      10     F     4.67495  4.67495  0.00000 -0.34990
      11     F     4.67384  4.67384  0.00000 -0.34768
      12     F     4.68087  4.68087  0.00000 -0.36174

   Total alpha = 41.00000, Total beta = 41.00000, Total charge = -0.00000
