  ==> Input File <==

--------------------------------------------------------------------------
set {
	reference rhf
	basis 6-31G*
}

set_num_threads( 4 )
memory 2 gb

molecule MOL {
0 1

H	 -4.019936	 -2.483312	 0.528678
C	 -3.333794	 -1.659429	 0.561633
C	 -2.094445	 -1.823660	 0.160331
H	 -3.685428	 -0.712757	 0.926431
O	 -1.180634	 -0.819263	 0.215062
H	 -1.724571	 -2.761476	 -0.215022
C	 0.051604	 -1.018856	 -0.387932
C	 1.043764	 0.054862	 -0.001873
H	 -0.017620	 -1.041351	 -1.469781
H	 0.437898	 -1.966374	 -0.042284
F	 2.212596	 -0.199467	 -0.571921
F	 0.652529	 1.252447	 -0.405055
F	 1.230877	 0.110694	 1.300533

	symmetry c1
}
set optking {
	frozen_dihedral = ("
		3 5 7 9
	")
}

ee = optimize('scf')
oeprop('DIPOLE', 'QUADRUPOLE', 'MULLIKEN_CHARGES')
f=open( 'psi4out.xyz', 'w' )
f.write( "13  " )
f.write( str(ee) + "\n" )
f.write( MOL.save_string_xyz() )
f.close()
--------------------------------------------------------------------------

    Molecular point group: c1
  Charge       = 0
  Multiplicity = 1
  Basis Set: 6-31G*
  Basis Set:
  @DF-RHF Final Energy:  -527.53314105142192
    Total Energy =                       -527.5331410514216941
    Molecular point group: c1
  Basis Set: 6-31G*
  Basis Set:
  Basis Set: 6-31G*
  Basis Set:
  @DF-RHF Final Energy:  -527.53450704493684
    Total Energy =                       -527.5345070449372997
  Basis Set: 6-31G*
  Basis Set:
  Basis Set: 6-31G*
  Basis Set:
  @DF-RHF Final Energy:  -527.53479580099975
    Total Energy =                       -527.5347958009996319
  Basis Set: 6-31G*
  Basis Set:
  Basis Set: 6-31G*
  Basis Set:
  @DF-RHF Final Energy:  -527.53483792040493
    Total Energy =                       -527.5348379204051525
  Basis Set: 6-31G*
  Basis Set:
  @DF-RHF Final Energy:  -527.53493177827841
    Total Energy =                       -527.5349317782788603
  Basis Set: 6-31G*
  Basis Set:
  @DF-RHF Final Energy:  -527.53497295929265
    Total Energy =                       -527.5349729592928725
  Basis Set: 6-31G*
  Basis Set:
  Basis Set: 6-31G*
  Basis Set:
  @DF-RHF Final Energy:  -527.53499941490372
    Total Energy =                       -527.5349994149034956
  Basis Set: 6-31G*
  Basis Set:
  Basis Set: 6-31G*
  Basis Set:
  @DF-RHF Final Energy:  -527.53500139340440
    Total Energy =                       -527.5350013934046274
  Basis Set: 6-31G*
  Basis Set:
  Charge       = 0
  Multiplicity = 1
  Basis Set: 6-31G*
  Basis Set:

    Orbital Energies (a.u.)
    -----------------------

    Doubly Occupied:

       1A    -26.341889     2A    -26.338103     3A    -26.337957
       4A    -20.606224     5A    -11.503180     6A    -11.317430
       7A    -11.301432     8A    -11.222705     9A     -1.739038
      10A     -1.636707    11A     -1.635069    12A     -1.438140
      13A     -1.086688    14A     -1.015822    15A     -0.921950
      16A     -0.837143    17A     -0.828779    18A     -0.805868
      19A     -0.795381    20A     -0.723411    21A     -0.711965
      22A     -0.697796    23A     -0.678328    24A     -0.656244
      25A     -0.651213    26A     -0.639452    27A     -0.638161
      28A     -0.586333    29A     -0.560339    30A     -0.527238
      31A     -0.502314    32A     -0.359991

  @DF-RHF Final Energy:  -527.53500228578469

   => Energetics <=

    Nuclear Repulsion Energy =            406.9436349626132028
    One-Electron Energy =               -1537.6726943475596272
    Two-Electron Energy =                 603.1940570991614550
    DFT Exchange-Correlation Energy =       0.0000000000000000
    Empirical Dispersion Energy =           0.0000000000000000
    PCM Polarization Energy =               0.0000000000000000
    EFP Energy =                            0.0000000000000000
    Total Energy =                       -527.5350022857849126
    Molecular point group: c1
  Basis Set: 6-31G*
  Basis Set:

  -Total Gradient:
     Atom            X                  Y                   Z
    ------   -----------------  -----------------  -----------------
       1        0.000002389773     0.000005509253    -0.000023285265
       2        0.000005723239    -0.000005968249     0.000026148233
       3        0.000037010249    -0.000025242215     0.000104964853
       4       -0.000005647802     0.000003133354    -0.000020460725
       5       -0.000044134407     0.000042977902    -0.000038849606
       6       -0.000015720548     0.000004397861    -0.000027078544
       7       -0.000004074843    -0.000061312471    -0.000016065212
       8       -0.000028872542    -0.000013651661    -0.000034163781
       9        0.000028181099     0.000050837731    -0.000002622422
      10        0.000025245999     0.000006628586    -0.000001873349
      11       -0.000011391721    -0.000013675273     0.000001780950
      12        0.000009714473    -0.000001734538     0.000013228118
      13        0.000001577025     0.000008099721     0.000018276750

  **** Optimization is complete! (in 9 steps) ****
    Final optimized geometry and variables:
    Molecular point group: c1

    Geometry (in Angstrom), charge = 0, multiplicity = 1:

    H           -4.004031514860    -1.993273566399     0.305098106199
    C           -3.306265302167    -1.178267267646     0.317356504218
    C           -2.021090617330    -1.410705309659     0.180460329466
    H           -3.682597711391    -0.182856557334     0.461202037796
    O           -1.093517458585    -0.422769505655     0.255435308393
    H           -1.621018653609    -2.400746897870     0.035656452092
    C            0.048832840885    -0.597103576583    -0.514038587741
    C            1.035649349776     0.476713398126    -0.129634567253
    H           -0.161034084978    -0.500972575859    -1.573390968052
    H            0.516031044688    -1.559112610603    -0.330890888529
    F            2.135992063268     0.334475552637    -0.855376584297
    F            0.561264298495     1.686120535870    -0.349804874688
    F            1.378239242731     0.398734174364     1.140731879333

  Mulliken Charges: (a.u.)
   Center  Symbol    Alpha    Beta     Spin     Total
       1     H     0.40660  0.40660  0.00000  0.18679
       2     C     3.22869  3.22869  0.00000 -0.45739
       3     C     2.89995  2.89995  0.00000  0.20010
       4     H     0.39994  0.39994  0.00000  0.20011
       5     O     4.30485  4.30485  0.00000 -0.60969
       6     H     0.40936  0.40936  0.00000  0.18129
       7     C     3.05069  3.05069  0.00000 -0.10138
       8     C     2.45041  2.45041  0.00000  1.09918
       9     H     0.40400  0.40400  0.00000  0.19201
      10     H     0.40762  0.40762  0.00000  0.18476
      11     F     4.68546  4.68546  0.00000 -0.37093
      12     F     4.67617  4.67617  0.00000 -0.35234
      13     F     4.67626  4.67626  0.00000 -0.35252

   Total alpha = 32.00000, Total beta = 32.00000, Total charge =  0.00000
