                              Psi4 1.0.54 Driver

  ==> Input File <==

--------------------------------------------------------------------------
set {
	reference rhf
	basis cc-pvtz
}

set_num_threads( 4 )
memory 2 gb

molecule MOL {
0 1

H	 3.189726	 0.112668	 -0.525938
N	 2.433987	 -0.362316	 -0.080024
C	 1.263552	 0.494993	 0.021953
H	 2.752967	 -0.639046	 0.824967
C	 -0.016533	 -0.325589	 -0.026925
H	 1.280915	 1.180773	 -0.818522
H	 1.263064	 1.106893	 0.925038
C	 -1.280353	 0.525521	 0.047747
H	 -0.016686	 -0.912532	 -0.939714
H	 -0.014099	 -1.037598	 0.796369
C	 -2.560681	 -0.301323	 -0.007747
H	 -1.279957	 1.241025	 -0.770189
H	 -1.270445	 1.110526	 0.963468
H	 -2.617064	 -0.872870	 -0.928010
H	 -3.439525	 0.331102	 0.043462
H	 -2.609427	 -1.002736	 0.818585

	symmetry c1
}
set optking {
	frozen_dihedral = ("
		1 2 3 6
	")
}

ee,wfn = optimize('scf', return_wfn=True)
oeprop( wfn, 'DIPOLE', 'QUADRUPOLE', 'MULLIKEN_CHARGES')
f=open( 'psi4out.xyz', 'w' )
f.write( "16  " )
f.write( str(ee) + "\n" )
f.write( MOL.save_string_xyz() )
f.close()
--------------------------------------------------------------------------

    Molecular point group: c1
  Charge       = 0
  Multiplicity = 1
  Basis Set: CC-PVTZ
  Basis Set:
  @DF-RHF Final Energy:  -212.39886314718717
    Total Energy =                       -212.3988631471871713
    Molecular point group: c1
  Basis Set: CC-PVTZ
  Basis Set:
  Basis Set: CC-PVTZ
  Basis Set:
  @DF-RHF Final Energy:  -212.39903592942855
    Total Energy =                       -212.3990359294285781
  Basis Set: CC-PVTZ
  Basis Set:
  Basis Set: CC-PVTZ
  Basis Set:
  @DF-RHF Final Energy:  -212.39908721665574
    Total Energy =                       -212.3990872166555732
  Basis Set: CC-PVTZ
  Basis Set:
  Basis Set: CC-PVTZ
  Basis Set:
  @DF-RHF Final Energy:  -212.39908942910222
    Total Energy =                       -212.3990894291020481
  Basis Set: CC-PVTZ
  Basis Set:
  Charge       = 0
  Multiplicity = 1
  Basis Set: CC-PVTZ
  Basis Set:

    Orbital Energies (a.u.)
    -----------------------

    Doubly Occupied:

       1A    -15.525159     2A    -11.238491     3A    -11.211137
       4A    -11.204529     5A    -11.204094     6A     -1.176150
       7A     -1.059214     8A     -0.959025     9A     -0.843406
      10A     -0.789360    11A     -0.674110    12A     -0.629316
      13A     -0.609540    14A     -0.577936    15A     -0.557282
      16A     -0.530048    17A     -0.493316    18A     -0.472329
      19A     -0.466497    20A     -0.460445    21A     -0.379804

  @DF-RHF Final Energy:  -212.39908965387590

   => Energetics <=

    Nuclear Repulsion Energy =            186.2987453037742114
    One-Electron Energy =                -655.2732934853720508
    Two-Electron Energy =                 256.5754585277220485
    DFT Exchange-Correlation Energy =       0.0000000000000000
    Empirical Dispersion Energy =           0.0000000000000000
    PCM Polarization Energy =               0.0000000000000000
    EFP Energy =                            0.0000000000000000
    Total Energy =                       -212.3990896538757625
    Molecular point group: c1
  Basis Set: CC-PVTZ
  Basis Set:

  -Total Gradient:
     Atom            X                  Y                   Z
    ------   -----------------  -----------------  -----------------
       1       -0.000707825385    -0.000819467982    -0.002237777529
       2        0.001175962936     0.001350178313     0.003095260686
       3       -0.001549591416    -0.002023482588    -0.002135464546
       4       -0.000011137084    -0.000004109395    -0.000000497727
       5        0.000040201148     0.000037679018     0.000017049996
       6        0.001091277337     0.001477773337     0.001243661596
       7       -0.000009443167    -0.000003731335     0.000014945735
       8       -0.000011630719    -0.000017923492    -0.000001121547
       9       -0.000002631790     0.000002807900     0.000008816889
      10        0.000000153838     0.000000202373     0.000002300553
      11       -0.000017999361     0.000012400724    -0.000005712122
      12        0.000002684989    -0.000001448969     0.000004602695
      13        0.000002266128    -0.000008078102    -0.000002876740
      14       -0.000000230984    -0.000001325987    -0.000000379750
      15       -0.000004181943    -0.000005406947    -0.000003165325
      16        0.000002125472     0.000003933132     0.000000357136

  **** Optimization is complete! (in 5 steps) ****
    Final optimized geometry and variables:
    Molecular point group: c1

    Geometry (in Angstrom), charge = 0, multiplicity = 1:

    H            3.212186629690     0.159318974857    -0.452148953084
    N            2.446136281571    -0.323944767914    -0.038680859990
    C            1.252428400326     0.506265682008     0.029763618247
    H            2.728424806216    -0.652550569411     0.858685224571
    C           -0.016777287025    -0.330865093831    -0.033181565375
    H            1.276653325353     1.202037922502    -0.802069756073
    H            1.230501134090     1.122088205857     0.929149270027
    C           -1.292512194607     0.502132374412     0.040804699223
    H           -0.002334786431    -0.911356407651    -0.949925005856
    H           -0.004833775482    -1.049691534431     0.783097060491
    C           -2.561405456721    -0.341252841949    -0.027591880182
    H           -1.298334254397     1.224488761033    -0.771495306005
    H           -1.295688224272     1.080441282485     0.961039403306
    H           -2.605814000121    -0.905519609885    -0.953008359942
    H           -3.449360564306     0.278345645566     0.025271997459
    H           -2.603623474028    -1.050630384123     0.792223980645

  Mulliken Charges: (a.u.)
   Center  Symbol    Alpha    Beta     Spin     Total
       1     H     0.42571  0.42571  0.00000  0.14858
       2     N     3.69565  3.69565  0.00000 -0.39129
       3     C     3.03669  3.03669  0.00000 -0.07339
       4     H     0.42868  0.42868  0.00000  0.14264
       5     C     3.06839  3.06839  0.00000 -0.13678
       6     H     0.45666  0.45666  0.00000  0.08668
       7     H     0.46510  0.46510  0.00000  0.06981
       8     C     3.08995  3.08995  0.00000 -0.17990
       9     H     0.45246  0.45246  0.00000  0.09508
      10     H     0.45994  0.45994  0.00000  0.08012
      11     C     3.14926  3.14926  0.00000 -0.29852
      12     H     0.45605  0.45605  0.00000  0.08790
      13     H     0.45677  0.45677  0.00000  0.08646
      14     H     0.45435  0.45435  0.00000  0.09130
      15     H     0.44910  0.44910  0.00000  0.10180
      16     H     0.45524  0.45524  0.00000  0.08951

   Total alpha = 21.00000, Total beta = 21.00000, Total charge = -0.00000

*** Psi4 exiting successfully. Buy a developer a beer!
