                              Psi4 1.0.54 Driver

  ==> Input File <==

--------------------------------------------------------------------------
set {
	reference rhf
	basis cc-pvtz
}

set_num_threads( 4 )
memory 2 gb

molecule MOL {
0 1

H	 -2.816458	 -0.841657	 -0.064679
N	 -1.878861	 -0.711874	 0.250184
C	 -1.341419	 0.551458	 -0.220231
H	 -1.333674	 -1.468530	 -0.105118
C	 0.082190	 0.731516	 0.254705
H	 -1.357065	 0.652078	 -1.304747
H	 -1.939897	 1.357530	 0.189797
O	 0.524915	 2.000614	 -0.120917
H	 0.126712	 0.625212	 1.337705
H	 0.715085	 -0.033519	 -0.189247
C	 1.850185	 2.266456	 0.198782
H	 2.077767	 3.268911	 -0.133898
H	 2.019901	 2.207774	 1.271838
H	 2.525591	 1.571526	 -0.294636

	symmetry c1
}
set optking {
	frozen_dihedral = ("
		8 5 3 6
	")
}

ee,wfn = optimize('scf', return_wfn=True)
oeprop( wfn, 'DIPOLE', 'QUADRUPOLE', 'MULLIKEN_CHARGES')
f=open( 'psi4out.xyz', 'w' )
f.write( "14  " )
f.write( str(ee) + "\n" )
f.write( MOL.save_string_xyz() )
f.close()
--------------------------------------------------------------------------

    Molecular point group: c1
  Charge       = 0
  Multiplicity = 1
  Basis Set: CC-PVTZ
  Basis Set:
  @DF-RHF Final Energy:  -248.22411193315389
    Total Energy =                       -248.2241119331541768
    Molecular point group: c1
  Basis Set: CC-PVTZ
  Basis Set:
  Basis Set: CC-PVTZ
  Basis Set:
  @DF-RHF Final Energy:  -248.22441011816588
    Total Energy =                       -248.2244101181659062
  Basis Set: CC-PVTZ
  Basis Set:
  Basis Set: CC-PVTZ
  Basis Set:
  @DF-RHF Final Energy:  -248.22449933112352
    Total Energy =                       -248.2244993311235248
  Basis Set: CC-PVTZ
  Basis Set:
  Basis Set: CC-PVTZ
  Basis Set:
  @DF-RHF Final Energy:  -248.22453266670951
    Total Energy =                       -248.2245326667094787
  Basis Set: CC-PVTZ
  Basis Set:
  Basis Set: CC-PVTZ
  Basis Set:
  @DF-RHF Final Energy:  -248.22453638253967
    Total Energy =                       -248.2245363825398954
  Basis Set: CC-PVTZ
  Basis Set:
  Charge       = 0
  Multiplicity = 1
  Basis Set: CC-PVTZ
  Basis Set:

    Orbital Energies (a.u.)
    -----------------------

    Doubly Occupied:

       1A    -20.548545     2A    -15.532254     3A    -11.262153
       4A    -11.262038     5A    -11.239834     6A     -1.382959
       7A     -1.182428     8A     -1.000255     9A     -0.900142
      10A     -0.823254    11A     -0.686258    12A     -0.669563
      13A     -0.650938    14A     -0.623458    15A     -0.596016
      16A     -0.561213    17A     -0.516875    18A     -0.498878
      19A     -0.470858    20A     -0.417365    21A     -0.390615

  @DF-RHF Final Energy:  -248.22453659199772

   => Energetics <=

    Nuclear Repulsion Energy =            191.0823780007241908
    One-Electron Energy =                -716.1820321534839877
    Two-Electron Energy =                 276.8751175607619643
    DFT Exchange-Correlation Energy =       0.0000000000000000
    Empirical Dispersion Energy =           0.0000000000000000
    PCM Polarization Energy =               0.0000000000000000
    EFP Energy =                            0.0000000000000000
    Total Energy =                       -248.2245365919977758
    Molecular point group: c1
  Basis Set: CC-PVTZ
  Basis Set:

  -Total Gradient:
     Atom            X                  Y                   Z
    ------   -----------------  -----------------  -----------------
       1        0.000023383980     0.000006056527     0.000000185336
       2       -0.000032997041    -0.000039895339     0.000031271892
       3       -0.000359289557     0.001978714110     0.000398131320
       4       -0.000001852888     0.000032759193     0.000002986200
       5        0.000587359890    -0.000885682582    -0.001337446894
       6        0.000219505655    -0.001465366369    -0.000126396991
       7       -0.000013319203    -0.000022652775     0.000003215154
       8       -0.000407768231     0.000428029366     0.001012017344
       9        0.000001927754    -0.000009400770     0.000009371300
      10       -0.000009438212    -0.000009196965     0.000004677347
      11       -0.000002298252    -0.000009817525     0.000000982561
      12       -0.000009574079    -0.000002697124    -0.000001991832
      13        0.000000287898     0.000001771916     0.000005694936
      14        0.000004072293    -0.000002621659    -0.000002697673

  **** Optimization is complete! (in 6 steps) ****
    Final optimized geometry and variables:
    Molecular point group: c1

    Geometry (in Angstrom), charge = 0, multiplicity = 1:

    H           -2.701924731788    -1.739827481994     0.051440648885
    N           -1.716923986314    -1.680283127593     0.194012957992
    C           -1.195872544920    -0.413064281620    -0.293412254402
    H           -1.303966487232    -2.450161784268    -0.289308540167
    C            0.233071894050    -0.229358248316     0.174716571552
    H           -1.225576208601    -0.324845325495    -1.377483580854
    H           -1.796425723438     0.389066381580     0.115629943533
    O            0.672471868584     1.032607323968    -0.215282158427
    H            0.273485116367    -0.334680948878     1.256142791286
    H            0.872096905770    -1.002951276179    -0.253393988220
    C            1.977023222494     1.328164464263     0.157221994420
    H            2.203562110102     2.325731112026    -0.190326845576
    H            2.099397598036     1.297494654817     1.237666191555
    H            2.686103708023     0.633377683828    -0.288092726408

  Mulliken Charges: (a.u.)
   Center  Symbol    Alpha    Beta     Spin     Total
       1     H     0.42738  0.42738  0.00000  0.14525
       2     N     3.69378  3.69378  0.00000 -0.38755
       3     C     3.03150  3.03150  0.00000 -0.06300
       4     H     0.43024  0.43024  0.00000  0.13951
       5     C     2.95632  2.95632  0.00000  0.08736
       6     H     0.46346  0.46346  0.00000  0.07308
       7     H     0.45294  0.45294  0.00000  0.09411
       8     O     4.17354  4.17354  0.00000 -0.34707
       9     H     0.46932  0.46932  0.00000  0.06136
      10     H     0.47929  0.47929  0.00000  0.04142
      11     C     3.03227  3.03227  0.00000 -0.06454
      12     H     0.44718  0.44718  0.00000  0.10564
      13     H     0.47088  0.47088  0.00000  0.05824
      14     H     0.47190  0.47190  0.00000  0.05619

   Total alpha = 21.00000, Total beta = 21.00000, Total charge =  0.00000

*** Psi4 exiting successfully. Buy a developer a beer!
