                              Psi4 1.0.54 Driver

  ==> Input File <==

--------------------------------------------------------------------------
set {
	reference rhf
	basis cc-pvtz
}

set_num_threads( 4 )
memory 2 gb

molecule MOL {
0 1

H	 3.189716	 0.262431	 0.648300
N	 2.334608	 -0.251539	 0.662909
C	 1.263552	 0.494993	 0.021953
H	 2.117613	 -0.435178	 1.620263
C	 -0.016533	 -0.325589	 -0.026925
H	 1.579603	 0.725047	 -0.990066
H	 1.059711	 1.448811	 0.510487
C	 -1.280353	 0.525521	 0.047747
H	 -0.016686	 -0.912532	 -0.939714
H	 -0.014099	 -1.037598	 0.796369
C	 -2.560681	 -0.301323	 -0.007747
H	 -1.279957	 1.241025	 -0.770189
H	 -1.270445	 1.110526	 0.963468
H	 -2.617064	 -0.872870	 -0.928010
H	 -3.439525	 0.331102	 0.043462
H	 -2.609427	 -1.002736	 0.818585

	symmetry c1
}
set optking {
	frozen_dihedral = ("
		6 3 5 9
	")
}

ee,wfn = optimize('scf', return_wfn=True)
oeprop( wfn, 'DIPOLE', 'QUADRUPOLE', 'MULLIKEN_CHARGES')
f=open( 'psi4out.xyz', 'w' )
f.write( "16  " )
f.write( str(ee) + "\n" )
f.write( MOL.save_string_xyz() )
f.close()
--------------------------------------------------------------------------

    Molecular point group: c1
  Charge       = 0
  Multiplicity = 1
  Basis Set: CC-PVTZ
  Basis Set:
  @DF-RHF Final Energy:  -212.39677749155337
    Total Energy =                       -212.3967774915532232
    Molecular point group: c1
  Basis Set: CC-PVTZ
  Basis Set:
  Basis Set: CC-PVTZ
  Basis Set:
  @DF-RHF Final Energy:  -212.39709677389257
    Total Energy =                       -212.3970967738925992
  Basis Set: CC-PVTZ
  Basis Set:
  Basis Set: CC-PVTZ
  Basis Set:
  @DF-RHF Final Energy:  -212.39717203069523
    Total Energy =                       -212.3971720306954580
  Basis Set: CC-PVTZ
  Basis Set:
  Basis Set: CC-PVTZ
  Basis Set:
  @DF-RHF Final Energy:  -212.39717337342540
    Total Energy =                       -212.3971733734255736
  Basis Set: CC-PVTZ
  Basis Set:
  Charge       = 0
  Multiplicity = 1
  Basis Set: CC-PVTZ
  Basis Set:

    Orbital Energies (a.u.)
    -----------------------

    Doubly Occupied:

       1A    -15.526175     2A    -11.238356     3A    -11.212835
       4A    -11.208137     5A    -11.205787     6A     -1.177229
       7A     -1.060229     8A     -0.958479     9A     -0.845099
      10A     -0.791568    11A     -0.669660    12A     -0.627541
      13A     -0.614913    14A     -0.575884    15A     -0.559239
      16A     -0.530023    17A     -0.503087    18A     -0.471503
      19A     -0.465898    20A     -0.457425    21A     -0.383413

  @DF-RHF Final Energy:  -212.39717354443380

   => Energetics <=

    Nuclear Repulsion Energy =            186.5280059558869823
    One-Electron Energy =                -655.6853975745641492
    Two-Electron Energy =                 256.7602180742434825
    DFT Exchange-Correlation Energy =       0.0000000000000000
    Empirical Dispersion Energy =           0.0000000000000000
    PCM Polarization Energy =               0.0000000000000000
    EFP Energy =                            0.0000000000000000
    Total Energy =                       -212.3971735444336559
    Molecular point group: c1
  Basis Set: CC-PVTZ
  Basis Set:

  -Total Gradient:
     Atom            X                  Y                   Z
    ------   -----------------  -----------------  -----------------
       1       -0.000002990621    -0.000007300020     0.000002275485
       2       -0.000017211315     0.000029463913    -0.000001002729
       3       -0.003603378320     0.005672011375    -0.000484142049
       4       -0.000001269292     0.000002613285    -0.000012858396
       5        0.003258897567    -0.005199402473     0.002822627571
       6        0.002531959429    -0.003956558690    -0.000040805143
       7       -0.000005169059    -0.000022509981    -0.000004469908
       8        0.000007331699    -0.000001790532     0.000014178107
       9       -0.002159385424     0.003474477194    -0.002296457030
      10        0.000001697249     0.000010211890     0.000003858812
      11       -0.000006888732    -0.000000250105    -0.000000936234
      12        0.000005631436     0.000003297873    -0.000000766865
      13       -0.000007560019    -0.000001503827     0.000001814528
      14       -0.000000196322    -0.000003460244    -0.000000481669
      15       -0.000000513495    -0.000000582744    -0.000001535619
      16       -0.000000954785     0.000001283087    -0.000001298860

  **** Optimization is complete! (in 5 steps) ****
    Final optimized geometry and variables:
    Molecular point group: c1

    Geometry (in Angstrom), charge = 0, multiplicity = 1:

    H            3.236923033323     0.204369025993     0.442721533505
    N            2.373816281314    -0.293227472914     0.500856887787
    C            1.288517027140     0.465306966268    -0.107172764011
    H            2.194025440506    -0.460638789520     1.468773462979
    C            0.000074176275    -0.359866666164    -0.133760970700
    H            1.600150446028     0.677841108473    -1.123192178214
    H            1.108234815793     1.416997248963     0.391127206642
    C           -1.260778786660     0.502649045875    -0.119389434771
    H           -0.015986871398    -0.967231817365    -1.032557236477
    H           -0.014540632800    -1.037468980506     0.714108558340
    C           -2.544653508913    -0.313576309295    -0.221461035045
    H           -1.220593365357     1.212754228747    -0.941732016267
    H           -1.281987398198     1.095319497180     0.791223929218
    H           -2.573236792345    -0.884766708863    -1.143322431524
    H           -3.420041060986     0.325448739339    -0.201137402208
    H           -2.627986791422    -1.015134608379     0.602110394960

  Mulliken Charges: (a.u.)
   Center  Symbol    Alpha    Beta     Spin     Total
       1     H     0.42958  0.42958  0.00000  0.14085
       2     N     3.69101  3.69101  0.00000 -0.38202
       3     C     3.03001  3.03001  0.00000 -0.06002
       4     H     0.43073  0.43073  0.00000  0.13853
       5     C     3.07941  3.07941  0.00000 -0.15883
       6     H     0.45593  0.45593  0.00000  0.08815
       7     H     0.46636  0.46636  0.00000  0.06729
       8     C     3.08852  3.08852  0.00000 -0.17704
       9     H     0.45302  0.45302  0.00000  0.09396
      10     H     0.45531  0.45531  0.00000  0.08939
      11     C     3.14991  3.14991  0.00000 -0.29982
      12     H     0.45508  0.45508  0.00000  0.08985
      13     H     0.45653  0.45653  0.00000  0.08694
      14     H     0.45462  0.45462  0.00000  0.09075
      15     H     0.44881  0.44881  0.00000  0.10237
      16     H     0.45517  0.45517  0.00000  0.08967

   Total alpha = 21.00000, Total beta = 21.00000, Total charge =  0.00000

*** Psi4 exiting successfully. Buy a developer a beer!
