  ==> Input File <==

--------------------------------------------------------------------------
set {
	reference rhf
	basis 6-31G*
}

set_num_threads( 4 )
memory 2 gb

molecule MOL {
0 1

H	 3.276176	 0.174363	 -0.109463
N	 2.434251	 -0.367735	 -0.081097
C	 1.267428	 0.496480	 0.024474
H	 2.501951	 -0.965776	 0.720575
C	 -0.016086	 -0.325158	 -0.029487
H	 1.288818	 1.183521	 -0.816092
H	 1.267576	 1.109062	 0.929528
C	 -1.282277	 0.529072	 0.046735
H	 -0.012495	 -0.908639	 -0.945788
H	 -0.015903	 -1.041248	 0.791956
C	 -1.988392	 0.426005	 1.398208
H	 -1.968968	 0.226614	 -0.741276
H	 -1.031956	 1.569603	 -0.149710
H	 -2.283281	 -0.597981	 1.608477
H	 -2.883267	 1.040107	 1.422700
H	 -1.339535	 0.754390	 2.205283

	symmetry c1
}
set optking {
	frozen_dihedral = ("
		12 8 5 9
	")
}

ee = optimize('scf')
oeprop('DIPOLE', 'QUADRUPOLE', 'MULLIKEN_CHARGES')
f=open( 'psi4out.xyz', 'w' )
f.write( "16  " )
f.write( str(ee) + "\n" )
f.write( MOL.save_string_xyz() )
f.close()
--------------------------------------------------------------------------

    Molecular point group: c1
  Charge       = 0
  Multiplicity = 1
  Basis Set: 6-31G*
  Basis Set:
  @DF-RHF Final Energy:  -212.31205338231305
    Total Energy =                       -212.3120533823130245
    Molecular point group: c1
  Basis Set: 6-31G*
  Basis Set:
  Basis Set: 6-31G*
  Basis Set:
  @DF-RHF Final Energy:  -212.31233395099787
    Total Energy =                       -212.3123339509979814
  Basis Set: 6-31G*
  Basis Set:
  Basis Set: 6-31G*
  Basis Set:
  @DF-RHF Final Energy:  -212.31241165810269
    Total Energy =                       -212.3124116581026897
  Basis Set: 6-31G*
  Basis Set:
  Charge       = 0
  Multiplicity = 1
  Basis Set: 6-31G*
  Basis Set:

    Orbital Energies (a.u.)
    -----------------------

    Doubly Occupied:

       1A    -15.532733     2A    -11.240546     3A    -11.214956
       4A    -11.209388     5A    -11.209228     6A     -1.177011
       7A     -1.057386     8A     -0.957656     9A     -0.848703
      10A     -0.790037    11A     -0.660040    12A     -0.635820
      13A     -0.607037    14A     -0.581181    15A     -0.561728
      16A     -0.524411    17A     -0.505601    18A     -0.468795
      19A     -0.461130    20A     -0.459584    21A     -0.381138

  @DF-RHF Final Energy:  -212.31241250807881

   => Energetics <=

    Nuclear Repulsion Energy =            187.3303093191036055
    One-Electron Energy =                -657.1172262304165770
    Two-Electron Energy =                 257.4745044032341639
    DFT Exchange-Correlation Energy =       0.0000000000000000
    Empirical Dispersion Energy =           0.0000000000000000
    PCM Polarization Energy =               0.0000000000000000
    EFP Energy =                            0.0000000000000000
    Total Energy =                       -212.3124125080788076
    Molecular point group: c1
  Basis Set: 6-31G*
  Basis Set:

  -Total Gradient:
     Atom            X                  Y                   Z
    ------   -----------------  -----------------  -----------------
       1        0.000040980383    -0.000012016941     0.000016833397
       2        0.000042488940    -0.000038925363     0.000028468585
       3       -0.000055922004     0.000073167530    -0.000105642359
       4        0.000022121653    -0.000014811273     0.000012711552
       5        0.001641603574     0.002812253396    -0.001758423865
       6       -0.000003846816     0.000007276137    -0.000007566302
       7       -0.000024558577    -0.000022563246    -0.000025548370
       8       -0.001535021718    -0.002583067710     0.002198239415
       9       -0.001151965198    -0.001810205790     0.001152318401
      10       -0.000036417273    -0.000015222511     0.000022411592
      11        0.000020823777    -0.000049043868     0.000034733009
      12        0.001005004172     0.001646804340    -0.001509600612
      13        0.000026547113    -0.000002946450    -0.000005330049
      14       -0.000019618657     0.000004529469    -0.000007182834
      15        0.000021791987     0.000025071751    -0.000030025894
      16        0.000005988645    -0.000020299471    -0.000016395663

  **** Optimization is complete! (in 4 steps) ****
    Final optimized geometry and variables:
    Molecular point group: c1

    Geometry (in Angstrom), charge = 0, multiplicity = 1:

    H            3.160018600976     0.033680106887    -0.357510100798
    N            2.319571142223    -0.511175566029    -0.339981103760
    C            1.147045583163     0.347702934292    -0.274283828143
    H            2.371471394221    -1.098912973859     0.470378984988
    C           -0.131705365509    -0.479698834311    -0.352084086119
    H            1.185159661830     1.025857310380    -1.121275422457
    H            1.119318607767     0.970910350747     0.623616992667
    C           -1.415418834635     0.368506673401    -0.244309420167
    H           -0.121036845989    -1.055025089797    -1.271562967138
    H           -0.118825190987    -1.216756403805     0.450025884909
    C           -2.096270641428     0.282203984863     1.121442862638
    H           -2.115994016178     0.079183433096    -1.021913977323
    H           -1.176372095544     1.409928012668    -0.451560204715
    H           -2.420576514827    -0.732686037579     1.332605398715
    H           -2.968997830802     0.926395206834     1.168696217696
    H           -1.419496738295     0.583630685331     1.916493549567

  Mulliken Charges: (a.u.)
   Center  Symbol    Alpha    Beta     Spin     Total
       1     H     0.33237  0.33237  0.00000  0.33527
       2     N     3.92206  3.92206  0.00000 -0.84411
       3     C     3.06241  3.06241  0.00000 -0.12482
       4     H     0.33511  0.33511  0.00000  0.32977
       5     C     3.15373  3.15373  0.00000 -0.30745
       6     H     0.42019  0.42019  0.00000  0.15961
       7     H     0.43466  0.43466  0.00000  0.13068
       8     C     3.15977  3.15977  0.00000 -0.31954
       9     H     0.41068  0.41068  0.00000  0.17864
      10     H     0.42586  0.42586  0.00000  0.14829
      11     C     3.23912  3.23912  0.00000 -0.47824
      12     H     0.41817  0.41817  0.00000  0.16366
      13     H     0.42200  0.42200  0.00000  0.15600
      14     H     0.42090  0.42090  0.00000  0.15819
      15     H     0.42008  0.42008  0.00000  0.15984
      16     H     0.42289  0.42289  0.00000  0.15421

   Total alpha = 21.00000, Total beta = 21.00000, Total charge = -0.00000
