  ==> Input File <==

--------------------------------------------------------------------------
set {
	reference rhf
	basis cc-pvtz
}

set_num_threads( 4 )
memory 2 gb

molecule MOL {
0 1

O	 -1.510770	 1.240811	 -0.054933
C	 -1.081510	 0.147522	 0.122720
C	 0.327029	 -0.064006	 0.641890
C	 -1.903028	 -1.084121	 -0.174656
C	 1.349460	 -0.017068	 -0.500215
H	 0.399029	 -1.014606	 1.159950
H	 0.538021	 0.726928	 1.350471
C	 1.147058	 1.186545	 -1.413502
H	 2.355366	 0.006792	 -0.091044
H	 1.269035	 -0.932495	 -1.074544
H	 1.873970	 1.189558	 -2.217006
H	 1.253032	 2.117462	 -0.866770
H	 0.158848	 1.174853	 -1.859792
H	 -1.341891	 -1.779207	 -0.789259
H	 -2.820449	 -0.808163	 -0.671328
H	 -2.133314	 -1.593056	 0.755831

	symmetry c1
}
set optking {
	frozen_dihedral = ("
		9 5 3 2
	")
}

ee = optimize('scf')
oeprop('DIPOLE', 'QUADRUPOLE', 'MULLIKEN_CHARGES')
f=open( 'psi4out.xyz', 'w' )
f.write( "16  " )
f.write( str(ee) + "\n" )
f.write( MOL.save_string_xyz() )
f.close()
--------------------------------------------------------------------------

    Molecular point group: c1
  Charge       = 0
  Multiplicity = 1
  Basis Set: CC-PVTZ
  Basis Set:
  @DF-RHF Final Energy:  -270.12488840939187
    Total Energy =                       -270.1248884093919287
    Molecular point group: c1
  Basis Set: CC-PVTZ
  Basis Set:
  Basis Set: CC-PVTZ
  Basis Set:
  @DF-RHF Final Energy:  -270.12654694866768
    Total Energy =                       -270.1265469486677375
  Basis Set: CC-PVTZ
  Basis Set:
  Basis Set: CC-PVTZ
  Basis Set:
  @DF-RHF Final Energy:  -270.12530783612067
    Total Energy =                       -270.1253078361206690
  Basis Set: CC-PVTZ
  Basis Set:
  Basis Set: CC-PVTZ
  Basis Set:
  @DF-RHF Final Energy:  -270.12708892305125
    Total Energy =                       -270.1270889230514740
  Basis Set: CC-PVTZ
  Basis Set:
  @DF-RHF Final Energy:  -270.12742955109297
    Total Energy =                       -270.1274295510930301
  @DF-RHF Final Energy:  -270.12757589441679
    Total Energy =                       -270.1275758944161680
  Basis Set: CC-PVTZ
  Basis Set:
  @DF-RHF Final Energy:  -270.12760653551061
    Total Energy =                       -270.1276065355107789
  Basis Set: CC-PVTZ
  Basis Set:
  Basis Set: CC-PVTZ
  Basis Set:
  @DF-RHF Final Energy:  -270.12761245877323
    Total Energy =                       -270.1276124587731715
  Basis Set: CC-PVTZ
  Basis Set:
  Basis Set: CC-PVTZ
  Basis Set:
  @DF-RHF Final Energy:  -270.12761400686634
    Total Energy =                       -270.1276140068661107
  Basis Set: CC-PVTZ
  Basis Set:
  Charge       = 0
  Multiplicity = 1
  Basis Set: CC-PVTZ
  Basis Set:

    Orbital Energies (a.u.)
    -----------------------

    Doubly Occupied:

       1A    -20.538090     2A    -11.319559     3A    -11.233337
       4A    -11.228691     5A    -11.226729     6A    -11.214792
       7A     -1.397801     8A     -1.084064     9A     -1.010127
      10A     -0.951261    11A     -0.835835    12A     -0.730040
      13A     -0.657381    14A     -0.647783    15A     -0.625839
      16A     -0.604473    17A     -0.580452    18A     -0.562056
      19A     -0.536165    20A     -0.510662    21A     -0.505406
      22A     -0.485579    23A     -0.476740    24A     -0.400540

  @DF-RHF Final Energy:  -270.12761483056624

   => Energetics <=

    Nuclear Repulsion Energy =            242.9974550311646908
    One-Electron Energy =                -847.5233341906925943
    Two-Electron Energy =                 334.3982643289618863
    DFT Exchange-Correlation Energy =       0.0000000000000000
    Empirical Dispersion Energy =           0.0000000000000000
    PCM Polarization Energy =               0.0000000000000000
    EFP Energy =                            0.0000000000000000
    Total Energy =                       -270.1276148305660172
    Molecular point group: c1
  Basis Set: CC-PVTZ
  Basis Set:

  -Total Gradient:
     Atom            X                  Y                   Z
    ------   -----------------  -----------------  -----------------
       1       -0.000012661915     0.000006008165     0.000038486703
       2        0.000220257069     0.002072599732     0.000034462943
       3       -0.000315782909    -0.002361382545    -0.000152605760
       4       -0.000000578446     0.000021311290    -0.000048538469
       5        0.000170173658    -0.002559862530     0.000373853907
       6       -0.000002436295     0.000002001886     0.000006813282
       7       -0.000004031441     0.000003824406     0.000017296037
       8        0.000025443209     0.000018706228    -0.000037912537
       9       -0.000080149199     0.002820294404    -0.000276110494
      10        0.000001094365    -0.000009501225    -0.000008392860
      11        0.000002017137    -0.000002879280     0.000005886691
      12       -0.000002884329     0.000003738193    -0.000005471008
      13        0.000003423429    -0.000003826624     0.000008392982
      14        0.000008729836    -0.000013713671     0.000026098989
      15        0.000002472889    -0.000004372165    -0.000002381775
      16       -0.000015087056     0.000007053735     0.000020121369

  **** Optimization is complete! (in 10 steps) ****
    Final optimized geometry and variables:
    Molecular point group: c1

    Geometry (in Angstrom), charge = 0, multiplicity = 1:

    O           -1.386769411972     0.965755004857     0.618499598942
    C           -0.806125745277    -0.056866327594     0.450787693564
    C            0.645093508701    -0.215321257862     0.860895932486
    C           -1.489874084964    -1.255915970335    -0.165812555420
    C            1.624647708463    -0.297016771311    -0.321286574903
    H            0.744929137130    -1.108142838360     1.470423432890
    H            0.887575994800     0.640451909964     1.476721194485
    C            1.448677390937     0.817029515581    -1.351099764901
    H            2.627497122578    -0.227945967034     0.084611935413
    H            1.548534859043    -1.263257074869    -0.807943551498
    H            2.216425908904     0.753166782775    -2.113004299973
    H            1.518333057686     1.792898321572    -0.884627062724
    H            0.486940048210     0.764028880884    -1.848098075484
    H           -0.917688529823    -1.642270172183    -1.000930583127
    H           -2.480745483803    -0.983547092528    -0.495152214001
    H           -1.559261897424    -2.049450918068     0.571088864121

  Mulliken Charges: (a.u.)
   Center  Symbol    Alpha    Beta     Spin     Total
       1     O     4.17542  4.17542  0.00000 -0.35084
       2     C     2.85519  2.85519  0.00000  0.28963
       3     C     3.10656  3.10656  0.00000 -0.21313
       4     C     3.15522  3.15522  0.00000 -0.31045
       5     C     3.10846  3.10846  0.00000 -0.21692
       6     H     0.44276  0.44276  0.00000  0.11447
       7     H     0.43827  0.43827  0.00000  0.12347
       8     C     3.14298  3.14298  0.00000 -0.28597
       9     H     0.44201  0.44201  0.00000  0.11597
      10     H     0.44963  0.44963  0.00000  0.10074
      11     H     0.44820  0.44820  0.00000  0.10359
      12     H     0.44744  0.44744  0.00000  0.10513
      13     H     0.45362  0.45362  0.00000  0.09275
      14     H     0.45055  0.45055  0.00000  0.09891
      15     H     0.43509  0.43509  0.00000  0.12981
      16     H     0.44859  0.44859  0.00000  0.10282

   Total alpha = 24.00000, Total beta = 24.00000, Total charge = -0.00000
