  ==> Input File <==

--------------------------------------------------------------------------
set {
	reference rhf
	basis cc-pvtz
}

set_num_threads( 4 )
memory 2 gb

molecule MOL {
0 1

H	 -2.698799	 -0.000846	 0.036018
C	 -1.694291	 -0.000483	 0.434279
O	 -0.828718	 -0.000608	 -0.655022
H	 -1.576855	 0.881100	 1.056504
H	 -1.576401	 -0.881658	 1.057001
C	 0.213634	 -0.943951	 -0.693543
C	 1.221238	 -0.749723	 0.433968
C	 -0.297138	 -2.378204	 -0.772779
H	 0.715417	 -0.720300	 -1.626716
H	 1.533948	 0.285933	 0.485809
H	 2.097667	 -1.361147	 0.252918
H	 0.817538	 -1.035626	 1.398265
H	 -1.037351	 -2.471920	 -1.557856
H	 0.524108	 -3.048866	 -0.997590
H	 -0.741216	 -2.707266	 0.159451

	symmetry c1
}
set optking {
	frozen_dihedral = ("
		6 3 2 1
	")
}

ee = optimize('scf')
oeprop('DIPOLE', 'QUADRUPOLE', 'MULLIKEN_CHARGES')
f=open( 'psi4out.xyz', 'w' )
f.write( "15  " )
f.write( str(ee) + "\n" )
f.write( MOL.save_string_xyz() )
f.close()
--------------------------------------------------------------------------

    Molecular point group: c1
  Charge       = 0
  Multiplicity = 1
  Basis Set: CC-PVTZ
  Basis Set:
  @DF-RHF Final Energy:  -232.22349702067024
    Total Energy =                       -232.2234970206702656
    Molecular point group: c1
  Basis Set: CC-PVTZ
  Basis Set:
  Basis Set: CC-PVTZ
  Basis Set:
  @DF-RHF Final Energy:  -232.22363407537210
    Total Energy =                       -232.2236340753721038
  Basis Set: CC-PVTZ
  Basis Set:
  Basis Set: CC-PVTZ
  Basis Set:
  @DF-RHF Final Energy:  -232.22397519430254
    Total Energy =                       -232.2239751943027386
  Basis Set: CC-PVTZ
  Basis Set:
  Basis Set: CC-PVTZ
  Basis Set:
  @DF-RHF Final Energy:  -232.22400168408697
    Total Energy =                       -232.2240016840869430
  Basis Set: CC-PVTZ
  Basis Set:
  Basis Set: CC-PVTZ
  Basis Set:
  @DF-RHF Final Energy:  -232.22400733059015
    Total Energy =                       -232.2240073305900978
  Basis Set: CC-PVTZ
  Basis Set:
  Basis Set: CC-PVTZ
  Basis Set:
  @DF-RHF Final Energy:  -232.22400880008297
    Total Energy =                       -232.2240088000827996
  Basis Set: CC-PVTZ
  Basis Set:
  Charge       = 0
  Multiplicity = 1
  Basis Set: CC-PVTZ
  Basis Set:

    Orbital Energies (a.u.)
    -----------------------

    Doubly Occupied:

       1A    -20.539484     2A    -11.273239     3A    -11.258921
       4A    -11.208806     5A    -11.208403     6A     -1.371174
       7A     -1.051003     8A     -0.940377     9A     -0.931733
      10A     -0.781824    11A     -0.676971    12A     -0.640658
      13A     -0.633681    14A     -0.570251    15A     -0.563881
      16A     -0.552151    17A     -0.538094    18A     -0.501100
      19A     -0.498638    20A     -0.443358    21A     -0.406225

  @DF-RHF Final Energy:  -232.22400889615650

   => Energetics <=

    Nuclear Repulsion Energy =            198.8774351042627302
    One-Electron Energy =                -709.0229506933460470
    Two-Electron Energy =                 277.9215066929268687
    DFT Exchange-Correlation Energy =       0.0000000000000000
    Empirical Dispersion Energy =           0.0000000000000000
    PCM Polarization Energy =               0.0000000000000000
    EFP Energy =                            0.0000000000000000
    Total Energy =                       -232.2240088961564197
    Molecular point group: c1
  Basis Set: CC-PVTZ
  Basis Set:

  -Total Gradient:
     Atom            X                  Y                   Z
    ------   -----------------  -----------------  -----------------
       1       -0.000001456636    -0.001078891519     0.000048896901
       2       -0.000311885938     0.001051739073    -0.000264106085
       3        0.000822701942     0.000638503026     0.000614252370
       4        0.000010061370    -0.000002847927    -0.000001478875
       5       -0.000000290863     0.000011898638    -0.000004534533
       6       -0.000563941198    -0.000597381053    -0.000369399578
       7        0.000026846090    -0.000006490990    -0.000013004458
       8        0.000010406769    -0.000013769284    -0.000009645742
       9        0.000002423309    -0.000001144514     0.000006742339
      10        0.000000946589     0.000001646633     0.000002469687
      11        0.000004752063     0.000002961543     0.000005741489
      12        0.000000623818    -0.000001468186    -0.000011255682
      13       -0.000000727729    -0.000001707043    -0.000001110258
      14       -0.000002717665    -0.000003149602    -0.000001090547
      15        0.000002258079     0.000000101201    -0.000002477028

  **** Optimization is complete! (in 7 steps) ****
    Final optimized geometry and variables:
    Molecular point group: c1

    Geometry (in Angstrom), charge = 0, multiplicity = 1:

    H           -2.421011025479     0.797754402907     0.339857965799
    C           -1.394753350508     0.818702605173     0.685452325862
    O           -0.544431626554     0.794514615212    -0.420896116798
    H           -1.238845618168     1.725336995035     1.259988528446
    H           -1.253533754513    -0.026629139791     1.346976403330
    C            0.510109976448    -0.134216613115    -0.461219024948
    C            1.507028178894     0.068411770812     0.674039102647
    C            0.012896572025    -1.572001752248    -0.559943954898
    H            1.015273647491     0.102246252592    -1.389418429734
    H            1.835798630830     1.099959107268     0.704093494259
    H            2.376012412260    -0.561974437153     0.524228947826
    H            1.082092691386    -0.182452419408     1.639278424449
    H           -0.695446979356    -1.666561403578    -1.373613378932
    H            0.844783519254    -2.240005481486    -0.752236706851
    H           -0.468785046209    -1.904266509203     0.352352684729

  Mulliken Charges: (a.u.)
   Center  Symbol    Alpha    Beta     Spin     Total
       1     H     0.45056  0.45056  0.00000  0.09888
       2     C     3.03829  3.03829  0.00000 -0.07658
       3     O     4.18764  4.18764  0.00000 -0.37528
       4     H     0.45670  0.45670  0.00000  0.08660
       5     H     0.46964  0.46964  0.00000  0.06073
       6     C     2.93944  2.93944  0.00000  0.12111
       7     C     3.15496  3.15496  0.00000 -0.30993
       8     C     3.15479  3.15479  0.00000 -0.30958
       9     H     0.44606  0.44606  0.00000  0.10787
      10     H     0.44499  0.44499  0.00000  0.11002
      11     H     0.45022  0.45022  0.00000  0.09957
      12     H     0.45567  0.45567  0.00000  0.08866
      13     H     0.44483  0.44483  0.00000  0.11034
      14     H     0.45083  0.45083  0.00000  0.09834
      15     H     0.45538  0.45538  0.00000  0.08924

   Total alpha = 21.00000, Total beta = 21.00000, Total charge = -0.00000
