  ==> Input File <==

--------------------------------------------------------------------------
set {
	reference rhf
	basis 6-31G*
}

set_num_threads( 4 )
memory 2 gb

molecule MOL {
0 1

H	 0.791421	 -3.732925	 -4.065043
C	 1.008488	 -3.082857	 -3.237175
C	 0.265010	 -3.161580	 -2.064457
C	 2.028470	 -2.157612	 -3.320903
H	 -0.533905	 -3.876877	 -1.981311
C	 0.540435	 -2.329680	 -1.000840
H	 2.614066	 -2.082472	 -4.220078
C	 2.319177	 -1.310786	 -2.256556
H	 -0.025869	 -2.379932	 -0.089463
C	 1.571990	 -1.397627	 -1.092404
H	 3.118503	 -0.601862	 -2.352327
O	 1.765256	 -0.628444	 0.000000
C	 2.778419	 0.335181	 0.000000
H	 2.731280	 0.961222	 -0.884976
H	 3.711703	 -0.207767	 0.000000
H	 2.731280	 0.961222	 0.884976

	symmetry c1
}
set optking {
	frozen_dihedral = ("
		10 12 13 14
	")
}

ee = optimize('scf')
oeprop('DIPOLE', 'QUADRUPOLE', 'MULLIKEN_CHARGES')
f=open( 'psi4out.xyz', 'w' )
f.write( "16  " )
f.write( str(ee) + "\n" )
f.write( MOL.save_string_xyz() )
f.close()
--------------------------------------------------------------------------

    Molecular point group: c1
  Charge       = 0
  Multiplicity = 1
  Basis Set: 6-31G*
  Basis Set:
  @DF-RHF Final Energy:  -344.58039995064769
    Total Energy =                       -344.5803999506477453
    Molecular point group: c1
  Basis Set: 6-31G*
  Basis Set:
  Basis Set: 6-31G*
  Basis Set:
  @DF-RHF Final Energy:  -344.58204810623141
    Total Energy =                       -344.5820481062311273
  Basis Set: 6-31G*
  Basis Set:
  Basis Set: 6-31G*
  Basis Set:
  @DF-RHF Final Energy:  -344.58249767182622
    Total Energy =                       -344.5824976718262178
  Basis Set: 6-31G*
  Basis Set:
  Basis Set: 6-31G*
  Basis Set:
  @DF-RHF Final Energy:  -344.58250828499672
    Total Energy =                       -344.5825082849966634
  Basis Set: 6-31G*
  Basis Set:
  Basis Set: 6-31G*
  Basis Set:
  @DF-RHF Final Energy:  -344.58251151893046
    Total Energy =                       -344.5825115189302323
  Basis Set: 6-31G*
  Basis Set:
  Charge       = 0
  Multiplicity = 1
  Basis Set: 6-31G*
  Basis Set:

    Orbital Energies (a.u.)
    -----------------------

    Doubly Occupied:

       1A    -20.584717     2A    -11.293910     3A    -11.279915
       4A    -11.232857     5A    -11.231335     6A    -11.223799
       7A    -11.219327     8A    -11.219197     9A     -1.413833
      10A     -1.145743    11A     -1.021613    12A     -1.012664
      13A     -0.941485    14A     -0.830405    15A     -0.804602
      16A     -0.721560    17A     -0.663918    18A     -0.661577
      19A     -0.655573    20A     -0.616787    21A     -0.586830
      22A     -0.576169    23A     -0.523879    24A     -0.520029
      25A     -0.508751    26A     -0.476087    27A     -0.461027
      28A     -0.334576    29A     -0.305064

  @DF-RHF Final Energy:  -344.58251169453712

   => Energetics <=

    Nuclear Repulsion Energy =            348.1121046986481247
    One-Electron Energy =               -1157.2547694689221771
    Two-Electron Energy =                 464.5601530757367641
    DFT Exchange-Correlation Energy =       0.0000000000000000
    Empirical Dispersion Energy =           0.0000000000000000
    PCM Polarization Energy =               0.0000000000000000
    EFP Energy =                            0.0000000000000000
    Total Energy =                       -344.5825116945372315
    Molecular point group: c1
  Basis Set: 6-31G*
  Basis Set:

  -Total Gradient:
     Atom            X                  Y                   Z
    ------   -----------------  -----------------  -----------------
       1       -0.000001411631    -0.000006855946     0.000005194741
       2        0.000028259486     0.000037564875    -0.000031901261
       3       -0.000002762251     0.000008656462     0.000056445339
       4       -0.000029328806    -0.000044678530    -0.000024705598
       5       -0.000002079828    -0.000000269989    -0.000005542487
       6       -0.000017990862    -0.000066550766    -0.000022082475
       7        0.000002341840     0.000000327000     0.000004133364
       8        0.000011301174     0.000003192821     0.000053003752
       9       -0.000001366007     0.000005738342    -0.000001718799
      10       -0.000940886327     0.000892773527    -0.000373309171
      11       -0.000002927806    -0.000004018376    -0.000003353370
      12        0.001662582500    -0.001496883358     0.000262410584
      13       -0.001639303479     0.001476318786     0.000916238785
      14        0.000925042820    -0.000813602202    -0.000844573153
      15       -0.000012647112     0.000002496524     0.000008545990
      16        0.000021176294     0.000005790829     0.000001213758

  **** Optimization is complete! (in 6 steps) ****
    Final optimized geometry and variables:
    Molecular point group: c1

    Geometry (in Angstrom), charge = 0, multiplicity = 1:

    H           -0.846381685456    -2.025629287422    -2.530858259108
    C           -0.602267669428    -1.398656267630    -1.692740954802
    C           -1.346365124862    -1.468089872033    -0.519698368172
    C            0.454221811807    -0.514185679285    -1.762873300576
    H           -2.173002346110    -2.152459040532    -0.447368753304
    C           -1.037757302248    -0.664547335797     0.556506751269
    H            1.043073670743    -0.449339623190    -2.660722644946
    C            0.779911279089     0.301946382562    -0.684701187241
    H           -1.604976219527    -0.706471931283     1.467725551520
    C            0.028872851744     0.228351131043     0.477648189299
    H            1.612635410316     0.973476278094    -0.765773441337
    O            0.261082598064     0.965288176654     1.584586491260
    C            1.182847436977     2.016455519081     1.539226528667
    H            0.996759404650     2.672911476879     0.696222355994
    H            2.201085920366     1.645197918771     1.477482736763
    H            1.063313636391     2.567565531940     2.459928748786

  Mulliken Charges: (a.u.)
   Center  Symbol    Alpha    Beta     Spin     Total
       1     H     0.40124  0.40124  0.00000  0.19752
       2     C     3.11199  3.11199  0.00000 -0.22398
       3     C     3.09192  3.09192  0.00000 -0.18384
       4     C     3.09107  3.09107  0.00000 -0.18213
       5     H     0.39878  0.39878  0.00000  0.20243
       6     C     3.12539  3.12539  0.00000 -0.25078
       7     H     0.39966  0.39966  0.00000  0.20068
       8     C     3.14440  3.14440  0.00000 -0.28879
       9     H     0.39296  0.39296  0.00000  0.21409
      10     C     2.78264  2.78264  0.00000  0.43471
      11     H     0.39744  0.39744  0.00000  0.20513
      12     O     4.32631  4.32631  0.00000 -0.65263
      13     C     3.09194  3.09194  0.00000 -0.18388
      14     H     0.41954  0.41954  0.00000  0.16092
      15     H     0.41989  0.41989  0.00000  0.16022
      16     H     0.40483  0.40483  0.00000  0.19034

   Total alpha = 29.00000, Total beta = 29.00000, Total charge = -0.00000
