  ==> Input File <==

--------------------------------------------------------------------------
set {
	reference rhf
	basis 6-31G*
}

set_num_threads( 4 )
memory 2 gb

molecule MOL {
0 1

H	 -2.098997	 -0.674324	 -0.616650
O	 -2.035884	 -0.060112	 0.102722
C	 -0.955155	 0.788182	 -0.092531
C	 0.353668	 0.040312	 -0.004810
H	 -0.985057	 1.290372	 -1.054184
H	 -0.974469	 1.533190	 0.688632
F	 0.652789	 -0.231609	 1.260558
F	 0.274049	 -1.109664	 -0.654745
F	 1.359986	 0.723248	 -0.511242

	symmetry c1
}
set optking {
	frozen_dihedral = ("
		7 4 3 5
	")
}

ee = optimize('scf')
oeprop('DIPOLE', 'QUADRUPOLE', 'MULLIKEN_CHARGES')
f=open( 'psi4out.xyz', 'w' )
f.write( "9  " )
f.write( str(ee) + "\n" )
f.write( MOL.save_string_xyz() )
f.close()
--------------------------------------------------------------------------

    Molecular point group: c1
  Charge       = 0
  Multiplicity = 1
  Basis Set: 6-31G*
  Basis Set:
  @DF-RHF Final Energy:  -450.66136188707713
    Total Energy =                       -450.6613618870770210
    Molecular point group: c1
  Basis Set: 6-31G*
  Basis Set:
  Basis Set: 6-31G*
  Basis Set:
  @DF-RHF Final Energy:  -450.66185088977301
    Total Energy =                       -450.6618508897728361
  Basis Set: 6-31G*
  Basis Set:
  Basis Set: 6-31G*
  Basis Set:
  @DF-RHF Final Energy:  -450.66196937119724
    Total Energy =                       -450.6619693711973014
  Basis Set: 6-31G*
  Basis Set:
  Charge       = 0
  Multiplicity = 1
  Basis Set: 6-31G*
  Basis Set:

    Orbital Energies (a.u.)
    -----------------------

    Doubly Occupied:

       1A    -26.345950     2A    -26.342237     3A    -26.339573
       4A    -20.590797     5A    -11.500969     6A    -11.309579
       7A     -1.740873     8A     -1.640231     9A     -1.636520
      10A     -1.403113    11A     -1.047814    12A     -0.924262
      13A     -0.831183    14A     -0.828620    15A     -0.807793
      16A     -0.725273    17A     -0.712440    18A     -0.697718
      19A     -0.665416    20A     -0.659295    21A     -0.642783
      22A     -0.628709    23A     -0.616163    24A     -0.529945
      25A     -0.480584

  @DF-RHF Final Energy:  -450.66197792065645

   => Energetics <=

    Nuclear Repulsion Energy =            276.8852996149724959
    One-Electron Energy =               -1175.7988822144998267
    Two-Electron Energy =                 448.2516046788709900
    DFT Exchange-Correlation Energy =       0.0000000000000000
    Empirical Dispersion Energy =           0.0000000000000000
    PCM Polarization Energy =               0.0000000000000000
    EFP Energy =                            0.0000000000000000
    Total Energy =                       -450.6619779206563408
    Molecular point group: c1
  Basis Set: 6-31G*
  Basis Set:

  -Total Gradient:
     Atom            X                  Y                   Z
    ------   -----------------  -----------------  -----------------
       1        0.000063065442     0.000037918763    -0.000018049968
       2       -0.000063187777     0.000146505686    -0.000021739174
       3       -0.001396606666    -0.002840182888    -0.001663678144
       4       -0.001739870757    -0.002563398058    -0.000244443525
       5        0.001486999557     0.002752557292     0.001500208859
       6        0.000031872018     0.000059065620     0.000018599035
       7        0.001523702554     0.002437813442     0.000161389172
       8        0.000171176200     0.000154860496     0.000214938827
       9       -0.000077150572    -0.000185140350     0.000052774913

  **** Optimization is complete! (in 4 steps) ****
    Final optimized geometry and variables:
    Molecular point group: c1

    Geometry (in Angstrom), charge = 0, multiplicity = 1:

    H           -2.098968940595    -0.683929256503    -0.593657132771
    O           -2.048020199549    -0.032033710346     0.092707401105
    C           -0.951967886628     0.789956585466    -0.116648855904
    C            0.352853574040     0.031779489205    -0.005484563114
    H           -0.964179996574     1.293194285879    -1.078003775520
    H           -0.959890732311     1.548138222525     0.652655744159
    F            0.664773731276    -0.260990331495     1.241892942298
    F            0.305797499450    -1.102717411328    -0.689921277025
    F            1.345507628485     0.757196695563    -0.498823357846

  Mulliken Charges: (a.u.)
   Center  Symbol    Alpha    Beta     Spin     Total
       1     H     0.27210  0.27210  0.00000  0.45581
       2     O     4.36115  4.36115  0.00000 -0.72230
       3     C     3.05702  3.05702  0.00000 -0.11405
       4     C     2.46179  2.46179  0.00000  1.07643
       5     H     0.40919  0.40919  0.00000  0.18162
       6     H     0.39486  0.39486  0.00000  0.21029
       7     F     4.67594  4.67594  0.00000 -0.35188
       8     F     4.68503  4.68503  0.00000 -0.37006
       9     F     4.68293  4.68293  0.00000 -0.36586

   Total alpha = 25.00000, Total beta = 25.00000, Total charge = -0.00000
