  ==> Input File <==

--------------------------------------------------------------------------
set {
	reference rhf
	basis 6-31G*
}

set_num_threads( 1 )
memory 2 gb

molecule MOL {
0 1

O	 -2.821601	 1.309235	 -0.001213
C	 -2.668563	 0.129746	 -0.000350
C	 -3.801572	 -0.864014	 -0.000442
O	 -1.481751	 -0.454642	 0.000584
H	 -4.417280	 -0.689587	 -0.874708
H	 -3.443784	 -1.883046	 -0.000565
H	 -4.417179	 -0.689832	 0.873954
C	 -0.334255	 0.388708	 0.000906
C	 0.891947	 -0.504646	 0.000751
H	 -0.365390	 1.025305	 -0.873475
H	 -0.365484	 1.024911	 0.875569
C	 2.191998	 0.301789	 0.000897
H	 0.855148	 -1.151283	 -0.871571
H	 0.855132	 -1.151660	 0.872805
C	 3.293147	 -0.342718	 -0.843146
H	 1.997228	 1.305988	 -0.371571
H	 2.547214	 0.419084	 1.023221
C	 4.591188	 0.463481	 -0.844051
H	 2.939982	 -0.460347	 -1.865160
H	 3.490675	 -1.345444	 -0.470865
H	 4.432893	 1.461358	 -1.243048
H	 5.351808	 -0.018164	 -1.450443
H	 4.987900	 0.569320	 0.161647

	symmetry c1
}
set optking {
	frozen_dihedral = ("
		13 9 8 10,
		2 4 8 10,
		19 15 12 16,
		1 2 4 8
	")
}

ee = energy('scf')
oeprop('DIPOLE', 'QUADRUPOLE', 'MULLIKEN_CHARGES')
f=open( 'psi4out.xyz', 'w' )
f.write( "23  " )
f.write( str(ee) + "\n" )
f.write( MOL.save_string_xyz() )
f.close()
--------------------------------------------------------------------------

    Molecular point group: c1

    Geometry (in Angstrom), charge = 0, multiplicity = 1:

       Center              X                  Y                   Z               Mass
    ------------   -----------------  -----------------  -----------------  -----------------
           O         -2.788525192783     1.255879580829     0.186969812158    15.994914619560
           C         -2.635487192783     0.076390580829     0.187832812158    12.000000000000
           C         -3.768496192783    -0.917369419171     0.187740812158    12.000000000000
           O         -1.448675192783    -0.507997419171     0.188766812158    15.994914619560
           H         -4.384204192783    -0.742942419171    -0.686525187842     1.007825032070
           H         -3.410708192783    -1.936401419171     0.187617812158     1.007825032070
           H         -4.384103192783    -0.743187419171     1.062136812158     1.007825032070
           C         -0.301179192783     0.335352580829     0.189088812158    12.000000000000
           C          0.925022807217    -0.558001419171     0.188933812158    12.000000000000
           H         -0.332314192783     0.971949580829    -0.685292187842     1.007825032070
           H         -0.332408192783     0.971555580829     1.063751812158     1.007825032070
           C          2.225073807217     0.248433580829     0.189079812158    12.000000000000
           H          0.888223807217    -1.204638419171    -0.683388187842     1.007825032070
           H          0.888207807217    -1.205015419171     1.060987812158     1.007825032070
           C          3.326222807217    -0.396073419171    -0.654963187842    12.000000000000
           H          2.030303807217     1.252632580829    -0.183388187842     1.007825032070
           H          2.580289807217     0.365728580829     1.211403812158     1.007825032070
           C          4.624263807217     0.410125580829    -0.655868187842    12.000000000000
           H          2.973057807217    -0.513702419171    -1.676977187842     1.007825032070
           H          3.523750807217    -1.398799419171    -0.282682187842     1.007825032070
           H          4.465968807217     1.408002580829    -1.054865187842     1.007825032070
           H          5.384883807217    -0.071519419171    -1.262260187842     1.007825032070
           H          5.020975807217     0.515964580829     0.349829812158     1.007825032070

  Charge       = 0
  Multiplicity = 1
  Basis Set: 6-31G*
  Basis Set:

    Orbital Energies (a.u.)
    -----------------------

    Doubly Occupied:

       1A    -20.602839     2A    -20.540495     3A    -11.374050
       4A    -11.281893     5A    -11.232367     6A    -11.223455
       7A    -11.222875     8A    -11.221803     9A    -11.212580
      10A     -1.467931    11A     -1.360710    12A     -1.094409
      13A     -1.041992    14A     -1.003284    15A     -0.930765
      16A     -0.842170    17A     -0.802492    18A     -0.775309
      19A     -0.690687    20A     -0.684974    21A     -0.669834
      22A     -0.642570    23A     -0.608809    24A     -0.587286
      25A     -0.581722    26A     -0.569055    27A     -0.559156
      28A     -0.535322    29A     -0.524175    30A     -0.503267
      31A     -0.493457    32A     -0.478705    33A     -0.468509
      34A     -0.464156    35A     -0.450761    36A     -0.435270

  @DF-RHF Final Energy:  -422.97608941942224

   => Energetics <=

    Nuclear Repulsion Energy =            450.5271959017319432
    One-Electron Energy =               -1468.6480094797034326
    Two-Electron Energy =                 595.1447241585480015
    DFT Exchange-Correlation Energy =       0.0000000000000000
    Empirical Dispersion Energy =           0.0000000000000000
    PCM Polarization Energy =               0.0000000000000000
    EFP Energy =                            0.0000000000000000
    Total Energy =                       -422.9760894194234879

  Mulliken Charges: (a.u.)
   Center  Symbol    Alpha    Beta     Spin     Total
       1     O     4.28393  4.28393  0.00000 -0.56786
       2     C     2.61543  2.61543  0.00000  0.76915
       3     C     3.28777  3.28777  0.00000 -0.57555
       4     O     4.31252  4.31252  0.00000 -0.62503
       5     H     0.39752  0.39752  0.00000  0.20495
       6     H     0.39985  0.39985  0.00000  0.20030
       7     H     0.39751  0.39751  0.00000  0.20498
       8     C     2.99928  2.99928  0.00000  0.00144
       9     C     3.16475  3.16475  0.00000 -0.32949
      10     H     0.41038  0.41038  0.00000  0.17924
      11     H     0.41026  0.41026  0.00000  0.17948
      12     C     3.16187  3.16187  0.00000 -0.32375
      13     H     0.41286  0.41286  0.00000  0.17429
      14     H     0.41244  0.41244  0.00000  0.17512
      15     C     3.15326  3.15326  0.00000 -0.30652
      16     H     0.42011  0.42011  0.00000  0.15979
      17     H     0.41792  0.41792  0.00000  0.16416
      18     C     3.24037  3.24037  0.00000 -0.48073
      19     H     0.42132  0.42132  0.00000  0.15737
      20     H     0.42091  0.42091  0.00000  0.15817
      21     H     0.42067  0.42067  0.00000  0.15866
      22     H     0.41809  0.41809  0.00000  0.16382
      23     H     0.42099  0.42099  0.00000  0.15802

   Total alpha = 36.00000, Total beta = 36.00000, Total charge =  0.00000
