  ==> Input File <==

--------------------------------------------------------------------------
set {
	reference rhf
	basis 6-31G*
}

set_num_threads( 4 )
memory 2 gb

molecule MOL {
0 1

O	 2.759774	 0.525455	 -1.138663
C	 2.701189	 0.057885	 -0.047330
C	 1.904834	 0.615384	 1.107573
O	 3.347903	 -1.046386	 0.304773
C	 1.131727	 1.882070	 0.747119
H	 1.249177	 -0.176710	 1.453829
H	 2.601799	 0.800630	 1.920974
C	 0.402469	 2.519034	 1.934954
H	 0.421316	 1.656150	 -0.042435
H	 1.825385	 2.602996	 0.328159
C	 -0.741855	 1.682061	 2.513842
H	 0.002524	 3.476830	 1.610308
H	 1.120006	 2.743575	 2.722819
C	 -1.507068	 2.406835	 3.622963
H	 -1.432183	 1.418278	 1.714039
H	 -0.357766	 0.743806	 2.907701
C	 -2.649624	 1.577900	 4.212508
H	 -1.906444	 3.341502	 3.232924
H	 -0.815352	 2.680379	 4.418200
C	 -3.411112	 2.310314	 5.316775
H	 -3.341255	 1.302847	 3.419013
H	 -2.251773	 0.645147	 4.606803
H	 -4.214146	 1.697465	 5.714467
H	 -3.851156	 3.231358	 4.944976
H	 -2.753075	 2.569085	 6.141578
C	 4.728119	 -1.109107	 -0.004993
H	 4.882018	 -1.033965	 -1.071845
H	 5.068212	 -2.067527	 0.355250
H	 5.265056	 -0.311663	 0.488280

	symmetry c1
}
set optking {
	frozen_dihedral = ("
		1 2 4 26
	")
}

ee = optimize('scf')
oeprop('DIPOLE', 'QUADRUPOLE', 'MULLIKEN_CHARGES')
f=open( 'psi4out.xyz', 'w' )
f.write( "29  " )
f.write( str(ee) + "\n" )
f.write( MOL.save_string_xyz() )
f.close()
--------------------------------------------------------------------------

    Molecular point group: c1
  Charge       = 0
  Multiplicity = 1
  Basis Set: 6-31G*
  Basis Set:
  @DF-RHF Final Energy:  -501.03221557474603
    Total Energy =                       -501.0322155747451234
    Molecular point group: c1
  Basis Set: 6-31G*
  Basis Set:
  Basis Set: 6-31G*
  Basis Set:
  @DF-RHF Final Energy:  -501.02977779707055
    Total Energy =                       -501.0297777970708921
  Basis Set: 6-31G*
  Basis Set:
  Basis Set: 6-31G*
  Basis Set:
  @DF-RHF Final Energy:  -501.03299726169325
    Total Energy =                       -501.0329972616929126
  Basis Set: 6-31G*
  Basis Set:
  Basis Set: 6-31G*
  Basis Set:
  @DF-RHF Final Energy:  -501.03306733836291
    Total Energy =                       -501.0330673383623434
  Basis Set: 6-31G*
  Basis Set:
  Basis Set: 6-31G*
  Basis Set:
  @DF-RHF Final Energy:  -501.03307324071625
    Total Energy =                       -501.0330732407161349
  Basis Set: 6-31G*
  Basis Set:
  Charge       = 0
  Multiplicity = 1
  Basis Set: 6-31G*
  Basis Set:

    Orbital Energies (a.u.)
    -----------------------

    Doubly Occupied:

       1A    -20.592422     2A    -20.551383     3A    -11.373766
       4A    -11.285418     5A    -11.235798     6A    -11.219719
       7A    -11.218295     8A    -11.216258     9A    -11.215983
      10A    -11.214719    11A    -11.209195    12A     -1.461955
      13A     -1.364508    14A     -1.098357    15A     -1.066566
      16A     -1.017569    17A     -0.976077    18A     -0.931457
      19A     -0.863258    20A     -0.800235    21A     -0.791036
      22A     -0.762061    23A     -0.699830    24A     -0.676407
      25A     -0.673251    26A     -0.650667    27A     -0.627761
      28A     -0.610576    29A     -0.595616    30A     -0.585754
      31A     -0.564793    32A     -0.554645    33A     -0.534113
      34A     -0.529532    35A     -0.518499    36A     -0.507433
      37A     -0.494236    38A     -0.478763    39A     -0.471768
      40A     -0.462935    41A     -0.461699    42A     -0.451618
      43A     -0.441523    44A     -0.432492

  @DF-RHF Final Energy:  -501.03307333704618

   => Energetics <=

    Nuclear Repulsion Energy =            609.7778847428288600
    One-Electron Energy =               -1890.6420258239979830
    Two-Electron Energy =                 779.8310677441235157
    DFT Exchange-Correlation Energy =       0.0000000000000000
    Empirical Dispersion Energy =           0.0000000000000000
    PCM Polarization Energy =               0.0000000000000000
    EFP Energy =                            0.0000000000000000
    Total Energy =                       -501.0330733370457210
    Molecular point group: c1
  Basis Set: 6-31G*
  Basis Set:

  -Total Gradient:
     Atom            X                  Y                   Z
    ------   -----------------  -----------------  -----------------
       1       -0.008137954721    -0.004716436758    -0.002396809051
       2        0.012991025933     0.008491520621     0.006762122996
       3        0.000088715432     0.000009617428    -0.000022767797
       4       -0.006979953497    -0.006746182530    -0.011010566851
       5       -0.000039543138    -0.000035804602     0.000020444554
       6       -0.000028794057     0.000020063169    -0.000062630105
       7        0.000004219866    -0.000011739051     0.000010437500
       8        0.000028608676    -0.000006663729     0.000019593476
       9       -0.000007696347    -0.000015874391     0.000011020626
      10       -0.000010271174     0.000013414209    -0.000004781141
      11       -0.000023819623     0.000008193684    -0.000009554922
      12        0.000016973043     0.000001376199    -0.000008344038
      13        0.000007617260    -0.000009920113     0.000003209027
      14       -0.000002912759     0.000003705622    -0.000005902860
      15       -0.000015873356    -0.000002570313    -0.000005311680
      16       -0.000016979821     0.000020015172     0.000005144197
      17        0.000002276993    -0.000002671495     0.000000892347
      18       -0.000005429720    -0.000006441024    -0.000003014258
      19        0.000000628242     0.000007900543    -0.000002547779
      20        0.000006839277    -0.000002625925     0.000006709294
      21       -0.000000164666     0.000005080403    -0.000000334648
      22       -0.000002127926    -0.000003840087    -0.000002277787
      23        0.000001866539    -0.000000939054     0.000001294182
      24        0.000000006383    -0.000002223023    -0.000001768972
      25       -0.000000771942     0.000002461596     0.000001064599
      26        0.002112565124     0.002988118653     0.006678053076
      27        0.000003928466    -0.000004912687     0.000011222942
      28        0.000006733915     0.000000422731     0.000000011117
      29        0.000000287592    -0.000003045248     0.000005391958

  **** Optimization is complete! (in 6 steps) ****
    Final optimized geometry and variables:
    Molecular point group: c1

    Geometry (in Angstrom), charge = 0, multiplicity = 1:

    O            1.989513540011    -0.442442539540    -2.782746087386
    C            1.931076970857    -0.901051224096    -1.691484083570
    C            1.113800763597    -0.344160597995    -0.552912674036
    O            2.517463423546    -2.061515529587    -1.357311971883
    C            0.297962940033     0.888444784196    -0.934627434668
    H            0.488665770563    -1.153732010877    -0.190741677592
    H            1.804329984128    -0.121738461239     0.258346486375
    C           -0.450135504432     1.524171265286     0.242110688242
    H           -0.406068333851     0.622348117769    -1.717502105577
    H            0.965655535869     1.624061337688    -1.370132349821
    C           -1.569103545526     0.663607984055     0.835794850608
    H           -0.878294823693     2.463859524679    -0.098979612557
    H            0.260296249282     1.783750175485     1.025754187970
    C           -2.354137504938     1.383536053054     1.934173116286
    H           -2.252032447591     0.366995793665     0.041237676367
    H           -1.157525332055    -0.256650889555     1.244035518443
    C           -3.469983892484     0.530355308766     2.540048308998
    H           -2.782369187214     2.298918379704     1.529303968110
    H           -1.669769130477     1.691392984257     2.723238362438
    C           -4.250240643776     1.257162857994     3.634878012569
    H           -4.155008276532     0.222284533952     1.753021840880
    H           -3.043517386443    -0.383774878401     2.947784587889
    H           -5.033348355454     0.626850077698     4.044801474339
    H           -4.718867209572     2.158440831478     3.249810924759
    H           -3.598132515000     1.548847574659     4.453398312926
    C            3.878298915408    -2.223705545264    -1.710072989810
    H            4.021362176580    -2.090534003216    -2.772497191086
    H            4.149203046273    -3.227965678258    -1.423614513104
    H            4.491989554349    -1.515188865873    -1.165991932894

  Mulliken Charges: (a.u.)
   Center  Symbol    Alpha    Beta     Spin     Total
       1     O     4.26966  4.26966  0.00000 -0.53932
       2     C     2.60534  2.60534  0.00000  0.78933
       3     C     3.21288  3.21288  0.00000 -0.42577
       4     O     4.31399  4.31399  0.00000 -0.62798
       5     C     3.15434  3.15434  0.00000 -0.30868
       6     H     0.39634  0.39634  0.00000  0.20732
       7     H     0.40552  0.40552  0.00000  0.18895
       8     C     3.15649  3.15649  0.00000 -0.31299
       9     H     0.41252  0.41252  0.00000  0.17497
      10     H     0.40915  0.40915  0.00000  0.18170
      11     C     3.15502  3.15502  0.00000 -0.31003
      12     H     0.41814  0.41814  0.00000  0.16373
      13     H     0.42438  0.42438  0.00000  0.15124
      14     C     3.15031  3.15031  0.00000 -0.30062
      15     H     0.42219  0.42219  0.00000  0.15563
      16     H     0.42353  0.42353  0.00000  0.15293
      17     C     3.15148  3.15148  0.00000 -0.30297
      18     H     0.42329  0.42329  0.00000  0.15342
      19     H     0.42420  0.42420  0.00000  0.15159
      20     C     3.23936  3.23936  0.00000 -0.47872
      21     H     0.42259  0.42259  0.00000  0.15481
      22     H     0.42337  0.42337  0.00000  0.15326
      23     H     0.41914  0.41914  0.00000  0.16172
      24     H     0.42154  0.42154  0.00000  0.15692
      25     H     0.42194  0.42194  0.00000  0.15612
      26     C     3.09518  3.09518  0.00000 -0.19035
      27     H     0.40278  0.40278  0.00000  0.19443
      28     H     0.40598  0.40598  0.00000  0.18804
      29     H     0.41934  0.41934  0.00000  0.16132

   Total alpha = 44.00000, Total beta = 44.00000, Total charge =  0.00000
