  ==> Input File <==

--------------------------------------------------------------------------
set {
	reference rhf
	basis cc-pvtz
}

set_num_threads( 4 )
memory 2 gb

molecule MOL {
0 1

H	 3.287094	 -0.467332	 -0.034615
C	 2.230769	 -0.277401	 -0.026401
C	 1.667068	 0.435430	 1.021190
C	 1.441463	 -0.743936	 -1.058320
H	 2.287027	 0.794731	 1.819530
C	 0.312387	 0.681263	 1.035571
H	 1.880250	 -1.294964	 -1.867214
C	 0.081105	 -0.496252	 -1.042478
H	 -0.141749	 1.230175	 1.836266
C	 -0.486398	 0.214248	 0.000000
H	 -0.539109	 -0.856407	 -1.842352
C	 -1.946525	 0.470130	 0.000000
O	 -2.779618	 -0.371226	 0.000000
H	 -2.227127	 1.528393	 0.000000

	symmetry c1
}
set optking {
	frozen_dihedral = ("
		8 10 12 14
	")
}

ee = optimize('scf')
oeprop('DIPOLE', 'QUADRUPOLE', 'MULLIKEN_CHARGES')
f=open( 'psi4out.xyz', 'w' )
f.write( "14  " )
f.write( str(ee) + "\n" )
f.write( MOL.save_string_xyz() )
f.close()
--------------------------------------------------------------------------

    Molecular point group: c1
  Charge       = 0
  Multiplicity = 1
  Basis Set: CC-PVTZ
  Basis Set:
  @DF-RHF Final Energy:  -343.54015604908255
    Total Energy =                       -343.5401560490824409
    Molecular point group: c1
  Basis Set: CC-PVTZ
  Basis Set:
  Basis Set: CC-PVTZ
  Basis Set:
  @DF-RHF Final Energy:  -343.53850091504728
    Total Energy =                       -343.5385009150472797
  Basis Set: CC-PVTZ
  Basis Set:
  Basis Set: CC-PVTZ
  Basis Set:
  @DF-RHF Final Energy:  -343.54092851109942
    Total Energy =                       -343.5409285110993096
  Basis Set: CC-PVTZ
  Basis Set:
  Basis Set: CC-PVTZ
  Basis Set:
  @DF-RHF Final Energy:  -343.54110676690664
    Total Energy =                       -343.5411067669068643
  Basis Set: CC-PVTZ
  Basis Set:
  Basis Set: CC-PVTZ
  Basis Set:
  @DF-RHF Final Energy:  -343.54110904534843
    Total Energy =                       -343.5411090453484917
  Basis Set: CC-PVTZ
  Basis Set:
  Charge       = 0
  Multiplicity = 1
  Basis Set: CC-PVTZ
  Basis Set:

    Orbital Energies (a.u.)
    -----------------------

    Doubly Occupied:

       1A    -20.560121     2A    -11.330788     3A    -11.249876
       4A    -11.247963     5A    -11.245754     6A    -11.244602
       7A    -11.242984     8A    -11.241823     9A     -1.414826
      10A     -1.175703    11A     -1.050179    12A     -1.034386
      13A     -0.891096    14A     -0.846178    15A     -0.796969
      16A     -0.725726    17A     -0.681572    18A     -0.657519
      19A     -0.639129    20A     -0.621363    21A     -0.605080
      22A     -0.545986    23A     -0.531603    24A     -0.514669
      25A     -0.507205    26A     -0.426375    27A     -0.352955
      28A     -0.352191

  @DF-RHF Final Energy:  -343.54110967365222

   => Energetics <=

    Nuclear Repulsion Energy =            323.3458263949283378
    One-Electron Energy =               -1106.3046338677172571
    Two-Electron Energy =                 439.4176977991367039
    DFT Exchange-Correlation Energy =       0.0000000000000000
    Empirical Dispersion Energy =           0.0000000000000000
    PCM Polarization Energy =               0.0000000000000000
    EFP Energy =                            0.0000000000000000
    Total Energy =                       -343.5411096736522722
    Molecular point group: c1
  Basis Set: CC-PVTZ
  Basis Set:

  -Total Gradient:
     Atom            X                  Y                   Z
    ------   -----------------  -----------------  -----------------
       1        0.000004082527     0.000008223241     0.000005254204
       2       -0.000020861792    -0.000076986134    -0.000109871537
       3       -0.000110611922     0.000040100711     0.000055506481
       4        0.000148205895     0.000034143519     0.000066559456
       5        0.000008134542    -0.000005427323    -0.000009992553
       6        0.000122607385     0.000003312015     0.000057037819
       7       -0.000006287697    -0.000002018546     0.000001967177
       8        0.000900586686     0.004838802130    -0.002499574999
       9       -0.000006674908    -0.000004255438    -0.000006164257
      10       -0.001497353835    -0.006927969874     0.001493664688
      11        0.000001019817    -0.000001334795    -0.000001441118
      12        0.000304202082     0.001853199145     0.007688226448
      13        0.000009325808     0.000018298807    -0.000000972582
      14        0.000143625406     0.000221912542    -0.006740199227

  **** Optimization is complete! (in 6 steps) ****
    Final optimized geometry and variables:
    Molecular point group: c1

    Geometry (in Angstrom), charge = 0, multiplicity = 1:

    H            3.302028706286    -0.427313988031    -0.029232469672
    C            2.243455475500    -0.252402835940    -0.009082975916
    C            1.680213631779     0.453037756588     1.038545751846
    C            1.445762099942    -0.724120761512    -1.034507342094
    H            2.299356202665     0.824539696394     1.832092281153
    C            0.320475573757     0.691891606707     1.054753344340
    H            1.884319063545    -1.259986656556    -1.854055092103
    C            0.081551289917    -0.507253912952    -1.006339225816
    H           -0.113489233746     1.260962162380     1.856257720880
    C           -0.486300380242     0.185651082666     0.048946087785
    H           -0.544667053263    -0.881514900816    -1.792734158707
    C           -1.947622146094     0.491681868978     0.032650537501
    O           -2.795299263811    -0.321530572116    -0.098595243425
    H           -2.203583824924     1.555956615443     0.064498911925

  Mulliken Charges: (a.u.)
   Center  Symbol    Alpha    Beta     Spin     Total
       1     H     0.42044  0.42044  0.00000  0.15912
       2     C     3.07992  3.07992  0.00000 -0.15984
       3     C     3.06585  3.06585  0.00000 -0.13170
       4     C     3.06513  3.06513  0.00000 -0.13026
       5     H     0.42069  0.42069  0.00000  0.15862
       6     C     3.09717  3.09717  0.00000 -0.19433
       7     H     0.42061  0.42061  0.00000  0.15878
       8     C     3.09582  3.09582  0.00000 -0.19165
       9     H     0.42386  0.42386  0.00000  0.15227
      10     C     2.94901  2.94901  0.00000  0.10198
      11     H     0.41510  0.41510  0.00000  0.16980
      12     C     2.92531  2.92531  0.00000  0.14938
      13     O     4.16235  4.16235  0.00000 -0.32471
      14     H     0.45873  0.45873  0.00000  0.08253

   Total alpha = 28.00000, Total beta = 28.00000, Total charge = -0.00000
