                              Psi4 1.0.54 Driver

  ==> Input File <==

--------------------------------------------------------------------------
set {
	reference rhf
	basis cc-pvtz
}

set_num_threads( 4 )
memory 2 gb

molecule MOL {
0 1

O	 0.395927	 1.296676	 -0.000076
C	 0.503051	 0.114301	 -0.000074
C	 -0.701422	 -0.805636	 -0.000109
C	 1.858118	 -0.556123	 0.000212
C	 -1.571060	 -0.688421	 1.241693
H	 -1.276337	 -0.592721	 -0.897647
H	 -0.337319	 -1.822257	 -0.124010
H	 -1.953927	 0.317120	 1.353623
H	 -2.411036	 -1.369800	 1.178303
H	 -1.006599	 -0.923317	 2.134127
H	 1.961106	 -1.191101	 -0.872843
H	 2.636688	 0.191085	 -0.000109
H	 1.961070	 -1.190284	 0.873873

	symmetry c1
}
set optking {
	frozen_dihedral = ("
		6 3 2 1
	")
}

ee,wfn = optimize('scf', return_wfn=True)
oeprop( wfn, 'DIPOLE', 'QUADRUPOLE', 'MULLIKEN_CHARGES')
f=open( 'psi4out.xyz', 'w' )
f.write( "13  " )
f.write( str(ee) + "\n" )
f.write( MOL.save_string_xyz() )
f.close()
--------------------------------------------------------------------------

    Molecular point group: c1
  Charge       = 0
  Multiplicity = 1
  Basis Set: CC-PVTZ
  Basis Set:
  @DF-RHF Final Energy:  -231.08056853453471
    Total Energy =                       -231.0805685345345921
    Molecular point group: c1
  Basis Set: CC-PVTZ
  Basis Set:
  Basis Set: CC-PVTZ
  Basis Set:
  @DF-RHF Final Energy:  -231.08133959529098
    Total Energy =                       -231.0813395952908991
  Basis Set: CC-PVTZ
  Basis Set:
  Basis Set: CC-PVTZ
  Basis Set:
  @DF-RHF Final Energy:  -231.08116870807243
    Total Energy =                       -231.0811687080725108
  Basis Set: CC-PVTZ
  Basis Set:
  Basis Set: CC-PVTZ
  Basis Set:
  @DF-RHF Final Energy:  -231.08136770447035
    Total Energy =                       -231.0813677044701535
  Basis Set: CC-PVTZ
  Basis Set:
  Charge       = 0
  Multiplicity = 1
  Basis Set: CC-PVTZ
  Basis Set:

    Orbital Energies (a.u.)
    -----------------------

    Doubly Occupied:

       1A    -20.538019     2A    -11.321154     3A    -11.231901
       4A    -11.228405     5A    -11.220799     6A     -1.398831
       7A     -1.063455     8A     -1.001117     9A     -0.880679
      10A     -0.733680    11A     -0.658789    12A     -0.646753
      13A     -0.612319    14A     -0.590666    15A     -0.571677
      16A     -0.536122    17A     -0.524388    18A     -0.503667
      19A     -0.482531    20A     -0.402455

  @DF-RHF Final Energy:  -231.08138453625770

   => Energetics <=

    Nuclear Repulsion Energy =            177.2573540971542343
    One-Electron Energy =                -664.3826632202280962
    Two-Electron Energy =                 256.0439245868163312
    DFT Exchange-Correlation Energy =       0.0000000000000000
    Empirical Dispersion Energy =           0.0000000000000000
    PCM Polarization Energy =               0.0000000000000000
    EFP Energy =                            0.0000000000000000
    Total Energy =                       -231.0813845362575307
    Molecular point group: c1
  Basis Set: CC-PVTZ
  Basis Set:

  -Total Gradient:
     Atom            X                  Y                   Z
    ------   -----------------  -----------------  -----------------
       1        0.000071450086    -0.000057479209    -0.000434267441
       2       -0.000091590276     0.000075979268     0.000655080310
       3        0.000278222442    -0.000434842484    -0.000419982736
       4        0.000035815292     0.000007560989    -0.000028380244
       5        0.000006908930     0.000016903464    -0.000045254401
       6       -0.000214541667     0.000310877504     0.000270279235
       7       -0.000029096959     0.000052938930     0.000015610579
       8        0.000019271798    -0.000036250472    -0.000007922492
       9        0.000004332519     0.000001192065    -0.000000634706
      10       -0.000001924146     0.000004199638    -0.000028352975
      11       -0.000020970070     0.000032690507     0.000037257586
      12       -0.000033957276    -0.000014679414     0.000003666016
      13       -0.000023920672     0.000040909216    -0.000017098729

  **** Optimization is complete! (in 5 steps) ****
    Final optimized geometry and variables:
    Molecular point group: c1

    Geometry (in Angstrom), charge = 0, multiplicity = 1:

    O            0.291191654885     1.392118571938    -0.240112988394
    C            0.416267404572     0.211212580442    -0.253925073155
    C           -0.799833801964    -0.700015244708    -0.257802055407
    C            1.775484949653    -0.442676574496    -0.272893597276
    C           -1.675503825151    -0.477288618590     0.975395940865
    H           -1.366632873700    -0.462625998705    -1.151375438574
    H           -0.497248874128    -1.737788736181    -0.326405284132
    H           -1.986671638208     0.556068760308     1.035459129337
    H           -2.558607670736    -1.102352301206     0.930638927336
    H           -1.140585888556    -0.722209707077     1.886432806962
    H            1.874642372015    -1.056127875663    -1.162354389116
    H            2.551181583926     0.307202677170    -0.255766697376
    H            1.879101375297    -1.102141258276     0.582610514659

  Mulliken Charges: (a.u.)
   Center  Symbol    Alpha    Beta     Spin     Total
       1     O     4.17571  4.17571  0.00000 -0.35141
       2     C     2.85499  2.85499  0.00000  0.29003
       3     C     3.09868  3.09868  0.00000 -0.19737
       4     C     3.15217  3.15217  0.00000 -0.30435
       5     C     3.14539  3.14539  0.00000 -0.29078
       6     H     0.44321  0.44321  0.00000  0.11359
       7     H     0.44865  0.44865  0.00000  0.10270
       8     H     0.44062  0.44062  0.00000  0.11876
       9     H     0.44835  0.44835  0.00000  0.10330
      10     H     0.45562  0.45562  0.00000  0.08875
      11     H     0.44952  0.44952  0.00000  0.10095
      12     H     0.43653  0.43653  0.00000  0.12694
      13     H     0.45056  0.45056  0.00000  0.09888

   Total alpha = 20.00000, Total beta = 20.00000, Total charge = -0.00000

*** Psi4 exiting successfully. Buy a developer a beer!
