  ==> Input File <==

--------------------------------------------------------------------------
set {
	reference rhf
	basis 6-31G*
}

set_num_threads( 1 )
memory 2 gb

molecule MOL {
0 1

H	 0.135079	 4.238578	 -0.107032
O	 -0.159382	 3.713018	 -0.837422
C	 -0.159802	 2.358355	 -0.474276
C	 1.251703	 1.800922	 -0.423391
H	 -0.650241	 2.199513	 0.482070
H	 -0.728876	 1.831524	 -1.227306
O	 1.171513	 0.459272	 -0.058250
H	 1.849414	 2.359973	 0.299232
H	 1.725291	 1.916166	 -1.396538
C	 2.397842	 -0.198080	 -0.002151
H	 2.508049	 -0.905315	 -0.822092
H	 3.173794	 0.550865	 -0.078850
H	 2.517602	 -0.735921	 0.936026

	symmetry c1
}
set optking {
	frozen_dihedral = ("
		8 4 3 5,
		1 2 3 5,
		10 7 4 8
	")
}

ee = energy('scf')
oeprop('DIPOLE', 'QUADRUPOLE', 'MULLIKEN_CHARGES')
f=open( 'psi4out.xyz', 'w' )
f.write( "13  " )
f.write( str(ee) + "\n" )
f.write( MOL.save_string_xyz() )
f.close()
--------------------------------------------------------------------------

    Molecular point group: c1

    Geometry (in Angstrom), charge = 0, multiplicity = 1:

       Center              X                  Y                   Z               Mass
    ------------   -----------------  -----------------  -----------------  -----------------
           H         -0.767960861426     2.584261249152     0.248689497553     1.007825032070
           O         -1.062421861426     2.058701249152    -0.481700502447    15.994914619560
           C         -1.062841861426     0.704038249152    -0.118554502447    12.000000000000
           C          0.348663138574     0.146605249152    -0.067669502447    12.000000000000
           H         -1.553280861426     0.545196249152     0.837791497553     1.007825032070
           H         -1.631915861426     0.177207249152    -0.871584502447     1.007825032070
           O          0.268473138574    -1.195044750848     0.297471497553    15.994914619560
           H          0.946374138574     0.705656249152     0.654953497553     1.007825032070
           H          0.822251138574     0.261849249152    -1.040816502447     1.007825032070
           C          1.494802138574    -1.852396750848     0.353570497553    12.000000000000
           H          1.605009138574    -2.559631750848    -0.466370502447     1.007825032070
           H          2.270754138574    -1.103451750848     0.276871497553     1.007825032070
           H          1.614562138574    -2.390237750848     1.291747497553     1.007825032070

  Charge       = 0
  Multiplicity = 1
  Basis Set: 6-31G*
  Basis Set:

    Orbital Energies (a.u.)
    -----------------------

    Doubly Occupied:

       1A    -20.560207     2A    -20.559136     3A    -11.271907
       4A    -11.269765     5A    -11.268873     6A     -1.387938
       7A     -1.365171     8A     -1.017778     9A     -0.913087
      10A     -0.843884    11A     -0.709152    12A     -0.672220
      13A     -0.659539    14A     -0.638410    15A     -0.596681
      16A     -0.567853    17A     -0.549414    18A     -0.488521
      19A     -0.482226    20A     -0.438737    21A     -0.417328

  @DF-RHF Final Energy:  -267.94584129338665

   => Energetics <=

    Nuclear Repulsion Energy =            190.3404158372161419
    One-Electron Energy =                -743.2168481788834242
    Two-Electron Energy =                 284.9305910482801210
    DFT Exchange-Correlation Energy =       0.0000000000000000
    Empirical Dispersion Energy =           0.0000000000000000
    PCM Polarization Energy =               0.0000000000000000
    EFP Energy =                            0.0000000000000000
    Total Energy =                       -267.9458412933871614

  Mulliken Charges: (a.u.)
   Center  Symbol    Alpha    Beta     Spin     Total
       1     H     0.28130  0.28130  0.00000  0.43739
       2     O     4.37079  4.37079  0.00000 -0.74158
       3     C     3.00483  3.00483  0.00000 -0.00966
       4     C     2.99917  2.99917  0.00000  0.00165
       5     H     0.42217  0.42217  0.00000  0.15565
       6     H     0.40829  0.40829  0.00000  0.18342
       7     O     4.30971  4.30971  0.00000 -0.61942
       8     H     0.43666  0.43666  0.00000  0.12668
       9     H     0.42266  0.42266  0.00000  0.15468
      10     C     3.07583  3.07583  0.00000 -0.15167
      11     H     0.42132  0.42132  0.00000  0.15735
      12     H     0.42914  0.42914  0.00000  0.14171
      13     H     0.41811  0.41811  0.00000  0.16378

   Total alpha = 21.00000, Total beta = 21.00000, Total charge = -0.00000
