                              Psi4 1.0.54 Driver

  ==> Input File <==

--------------------------------------------------------------------------
set {
	reference rhf
	basis cc-pvtz
}

set_num_threads( 4 )
memory 2 gb

molecule MOL {
0 1

O	 -2.440701	 -0.934798	 -0.415053
C	 -1.922978	 0.063265	 -0.045005
C	 -2.632749	 1.372204	 0.158357
O	 -0.637375	 0.157174	 0.243149
H	 -2.187724	 2.129143	 -0.474664
H	 -3.677681	 1.257276	 -0.079438
H	 -2.516788	 1.693160	 1.185542
C	 0.162530	 -1.009518	 0.097799
C	 1.587210	 -0.664190	 0.477086
H	 0.096803	 -1.356267	 -0.924704
H	 -0.233803	 -1.785900	 0.736810
C	 2.295141	 0.252889	 -0.516677
H	 2.134458	 -1.599038	 0.562604
H	 1.588330	 -0.211121	 1.463780
C	 3.735218	 0.554579	 -0.115704
H	 2.283547	 -0.210430	 -1.499682
H	 1.742067	 1.180701	 -0.606765
H	 4.214816	 1.203212	 -0.839339
H	 4.323121	 -0.354775	 -0.046152
H	 3.777047	 1.048500	 0.849340

	symmetry c1
}
set optking {
	frozen_dihedral = ("
		12 9 8 10
	")
}

ee,wfn = optimize('scf', return_wfn=True)
oeprop( wfn, 'DIPOLE', 'QUADRUPOLE', 'MULLIKEN_CHARGES')
f=open( 'psi4out.xyz', 'w' )
f.write( "20  " )
f.write( str(ee) + "\n" )
f.write( MOL.save_string_xyz() )
f.close()
--------------------------------------------------------------------------

    Molecular point group: c1
  Charge       = 0
  Multiplicity = 1
  Basis Set: CC-PVTZ
  Basis Set:
  @DF-RHF Final Energy:  -384.08745841891124
    Total Energy =                       -384.0874584189112966
    Molecular point group: c1
  Basis Set: CC-PVTZ
  Basis Set:
  Basis Set: CC-PVTZ
  Basis Set:
  @DF-RHF Final Energy:  -384.08746448246302
    Total Energy =                       -384.0874644824630195
  Basis Set: CC-PVTZ
  Basis Set:
  Basis Set: CC-PVTZ
  Basis Set:
  @DF-RHF Final Energy:  -384.08741588745755
    Total Energy =                       -384.0874158874572686
  Basis Set: CC-PVTZ
  Basis Set:
  Basis Set: CC-PVTZ
  Basis Set:
  @DF-RHF Final Energy:  -384.08748072449606
    Total Energy =                       -384.0874807244960039
  Basis Set: CC-PVTZ
  Basis Set:
  Basis Set: CC-PVTZ
  Basis Set:
  @DF-RHF Final Energy:  -384.08748197795137
    Total Energy =                       -384.0874819779509153
  Basis Set: CC-PVTZ
  Basis Set:
  Charge       = 0
  Multiplicity = 1
  Basis Set: CC-PVTZ
  Basis Set:

    Orbital Energies (a.u.)
    -----------------------

    Doubly Occupied:

       1A    -20.594120     2A    -20.532469     3A    -11.366480
       4A    -11.280247     5A    -11.231580     6A    -11.223505
       7A    -11.219210     8A    -11.211769     9A     -1.470758
      10A     -1.364896    11A     -1.087382    12A     -1.029277
      13A     -0.982224    14A     -0.881331    15A     -0.811428
      16A     -0.777971    17A     -0.692380    18A     -0.686236
      19A     -0.670078    20A     -0.632341    21A     -0.602754
      22A     -0.594025    23A     -0.572902    24A     -0.551997
      25A     -0.545613    26A     -0.532292    27A     -0.513535
      28A     -0.483835    29A     -0.476234    30A     -0.474835
      31A     -0.451622    32A     -0.441833

  @DF-RHF Final Energy:  -384.08748201756322

   => Energetics <=

    Nuclear Repulsion Energy =            385.3992967380830237
    One-Electron Energy =               -1286.9992378611825643
    Two-Electron Energy =                 517.5124591055364363
    DFT Exchange-Correlation Energy =       0.0000000000000000
    Empirical Dispersion Energy =           0.0000000000000000
    PCM Polarization Energy =               0.0000000000000000
    EFP Energy =                            0.0000000000000000
    Total Energy =                       -384.0874820175631612
    Molecular point group: c1
  Basis Set: CC-PVTZ
  Basis Set:

  -Total Gradient:
     Atom            X                  Y                   Z
    ------   -----------------  -----------------  -----------------
       1       -0.000011245134    -0.000027331187     0.000000103385
       2       -0.000029346966     0.000021692180     0.000006270219
       3        0.000012732002    -0.000003898805    -0.000011798917
       4        0.000034802926    -0.000014430747     0.000026359029
       5        0.000006707105     0.000009939828    -0.000004859613
       6       -0.000015136066    -0.000001238810    -0.000002647019
       7       -0.000000070175    -0.000001355429     0.000013255116
       8        0.000320531983    -0.001663775508     0.000180590021
       9       -0.000430387261     0.001251012865     0.000559419019
      10       -0.000157296117     0.001111431980    -0.000334229028
      11       -0.000010845117     0.000004165678     0.000015200635
      12        0.000271984374    -0.000690944424    -0.000452239469
      13        0.000004846261     0.000000690242    -0.000003108173
      14        0.000004633790    -0.000003744434     0.000003077134
      15       -0.000001337920     0.000007821092     0.000006385612
      16       -0.000001145338    -0.000001303048     0.000002546835
      17        0.000002468087     0.000001969010    -0.000003490454
      18       -0.000001528926     0.000000740178     0.000000391095
      19       -0.000002420797     0.000000001251    -0.000002054410
      20        0.000002053293    -0.000001441909     0.000000828985

  **** Optimization is complete! (in 6 steps) ****
    Final optimized geometry and variables:
    Molecular point group: c1

    Geometry (in Angstrom), charge = 0, multiplicity = 1:

    O           -2.452649087391    -0.886958202251    -0.419879115107
    C           -1.925909488250     0.099443288770    -0.031564165945
    C           -2.621757284359     1.413372336705     0.185550976324
    O           -0.641248000602     0.173825659137     0.265548156980
    H           -2.164324549457     2.173309015919    -0.434887981233
    H           -3.666627280736     1.313826009358    -0.059496189136
    H           -2.507711012529     1.718987839753     1.217571248241
    C            0.146095677951    -1.001101821102     0.107523204709
    C            1.574385275912    -0.668383158073     0.485501462184
    H            0.073773276137    -1.330325054868    -0.920122732959
    H           -0.257757945266    -1.778954147855     0.739527038520
    C            2.278422671955     0.262171223975    -0.498318444938
    H            2.121010821667    -1.605416372352     0.548267055729
    H            1.582216295990    -0.235586570072     1.480880349575
    C            3.713610122203     0.575179717072    -0.089332066273
    H            2.275229064089    -0.195271483570    -1.483916300260
    H            1.717120723471     1.185799189306    -0.585005640743
    H            4.190615046531     1.231556228904    -0.807648667257
    H            4.309090485210    -0.329338644718    -0.021597246752
    H            3.746466300802     1.064585908262     0.878289645214

  Mulliken Charges: (a.u.)
   Center  Symbol    Alpha    Beta     Spin     Total
       1     O     4.19740  4.19740  0.00000 -0.39480
       2     C     2.80912  2.80912  0.00000  0.38175
       3     C     3.13835  3.13835  0.00000 -0.27670
       4     O     4.15395  4.15395  0.00000 -0.30791
       5     H     0.44614  0.44614  0.00000  0.10772
       6     H     0.43788  0.43788  0.00000  0.12425
       7     H     0.44572  0.44572  0.00000  0.10855
       8     C     2.99247  2.99247  0.00000  0.01506
       9     C     3.08392  3.08392  0.00000 -0.16784
      10     H     0.45140  0.45140  0.00000  0.09721
      11     H     0.44435  0.44435  0.00000  0.11131
      12     C     3.08634  3.08634  0.00000 -0.17268
      13     H     0.45162  0.45162  0.00000  0.09675
      14     H     0.45164  0.45164  0.00000  0.09671
      15     C     3.15017  3.15017  0.00000 -0.30033
      16     H     0.45455  0.45455  0.00000  0.09089
      17     H     0.44806  0.44806  0.00000  0.10389
      18     H     0.44734  0.44734  0.00000  0.10532
      19     H     0.45538  0.45538  0.00000  0.08923
      20     H     0.45419  0.45419  0.00000  0.09163

   Total alpha = 32.00000, Total beta = 32.00000, Total charge =  0.00000

*** Psi4 exiting successfully. Buy a developer a beer!
