  ==> Input File <==

--------------------------------------------------------------------------
set {
	reference rhf
	basis cc-pvtz
}

set_num_threads( 4 )
memory 2 gb

molecule MOL {
0 1

H	 1.798143	 -1.599105	 2.123844
O	 1.382097	 -1.570339	 1.275425
C	 0.397950	 -0.676941	 1.319176
C	 -0.318151	 -0.570512	 0.000144
O	 0.149429	 -0.061786	 2.297843
C	 -1.454884	 0.441630	 -0.000560
H	 0.427249	 -0.326367	 -0.749965
H	 -0.675169	 -1.564113	 -0.251242
C	 -2.822577	 -0.232186	 0.000063
H	 -1.359760	 1.084704	 -0.867077
H	 -1.359641	 1.085996	 0.864983
H	 -2.954352	 -0.858985	 -0.875745
H	 -3.615886	 0.505352	 0.000019
H	 -2.953878	 -0.858359	 0.876394

	symmetry c1
}
set optking {
	frozen_dihedral = ("
		7 4 6 10
	")
}

ee = optimize('scf')
oeprop('DIPOLE', 'QUADRUPOLE', 'MULLIKEN_CHARGES')
f=open( 'psi4out.xyz', 'w' )
f.write( "14  " )
f.write( str(ee) + "\n" )
f.write( MOL.save_string_xyz() )
f.close()
--------------------------------------------------------------------------

    Molecular point group: c1
  Charge       = 0
  Multiplicity = 1
  Basis Set: CC-PVTZ
  Basis Set:
  @DF-RHF Final Energy:  -305.99666297393418
    Total Energy =                       -305.9966629739344057
    Molecular point group: c1
  Basis Set: CC-PVTZ
  Basis Set:
  Basis Set: CC-PVTZ
  Basis Set:
  @DF-RHF Final Energy:  -305.99697866518858
    Total Energy =                       -305.9969786651887489
  Basis Set: CC-PVTZ
  Basis Set:
  Basis Set: CC-PVTZ
  Basis Set:
  @DF-RHF Final Energy:  -305.99687582325600
    Total Energy =                       -305.9968758232558343
  Basis Set: CC-PVTZ
  Basis Set:
  Basis Set: CC-PVTZ
  Basis Set:
  @DF-RHF Final Energy:  -305.99705792691270
    Total Energy =                       -305.9970579269127597
  Basis Set: CC-PVTZ
  Basis Set:
  Basis Set: CC-PVTZ
  Basis Set:
  @DF-RHF Final Energy:  -305.99706176953885
    Total Energy =                       -305.9970617695391866
  Basis Set: CC-PVTZ
  Basis Set:
  Basis Set: CC-PVTZ
  Basis Set:
  @DF-RHF Final Energy:  -305.99706472098063
    Total Energy =                       -305.9970647209805747
  Basis Set: CC-PVTZ
  Basis Set:
  Charge       = 0
  Multiplicity = 1
  Basis Set: CC-PVTZ
  Basis Set:

    Orbital Energies (a.u.)
    -----------------------

    Doubly Occupied:

       1A    -20.604916     2A    -20.541897     3A    -11.375068
       4A    -11.239618     5A    -11.222444     6A    -11.212832
       7A     -1.478866     8A     -1.370292     9A     -1.081265
      10A     -0.979828    11A     -0.860972    12A     -0.791519
      13A     -0.706018    14A     -0.696894    15A     -0.660584
      16A     -0.613829    17A     -0.599479    18A     -0.567535
      19A     -0.559580    20A     -0.494186    21A     -0.491450
      22A     -0.487531    23A     -0.478658    24A     -0.449899

  @DF-RHF Final Energy:  -305.99706562925917

   => Energetics <=

    Nuclear Repulsion Energy =            242.2580709348517018
    One-Electron Energy =                -897.3799500032637297
    Two-Electron Energy =                 349.1248134391529447
    DFT Exchange-Correlation Energy =       0.0000000000000000
    Empirical Dispersion Energy =           0.0000000000000000
    PCM Polarization Energy =               0.0000000000000000
    EFP Energy =                            0.0000000000000000
    Total Energy =                       -305.9970656292590547
    Molecular point group: c1
  Basis Set: CC-PVTZ
  Basis Set:

  -Total Gradient:
     Atom            X                  Y                   Z
    ------   -----------------  -----------------  -----------------
       1       -0.000007339707     0.000005485928    -0.000009145458
       2        0.000045737605    -0.000042755217     0.000020410600
       3       -0.000058232374     0.000063589362     0.000002350305
       4        0.002116334064     0.002629682699     0.002916026168
       5        0.000020706021    -0.000030184873    -0.000026495289
       6       -0.002322379301    -0.002834227621    -0.002420600939
       7       -0.001410910634    -0.001688599481    -0.001983239365
       8        0.000003553472    -0.000020229536    -0.000026652831
       9        0.000028188015     0.000010175910    -0.000001804795
      10        0.001595078598     0.001892112280     0.001522383453
      11        0.000006365352     0.000021222397     0.000000913724
      12       -0.000013000676     0.000002844006     0.000007226321
      13       -0.000002488788    -0.000002568275     0.000001218960
      14       -0.000001611648    -0.000006547579    -0.000002590856

  **** Optimization is complete! (in 7 steps) ****
    Final optimized geometry and variables:
    Molecular point group: c1

    Geometry (in Angstrom), charge = 0, multiplicity = 1:

    H            2.231305418094    -1.124178397801     1.274534154186
    O            1.833185642747    -1.067804066902     0.418972773542
    C            0.813612797033    -0.216607606147     0.484988123255
    C            0.118356536232    -0.086146028063    -0.844262500598
    O            0.522596679343     0.337308498625     1.488207087579
    C           -1.042600946712     0.914676690334    -0.868296672208
    H            0.871673608209     0.146171713540    -1.587286398213
    H           -0.220259261803    -1.084735718937    -1.103307959889
    C           -2.415164546833     0.251988386457    -0.838740535964
    H           -0.948757783483     1.544441774286    -1.745189287047
    H           -0.948244625907     1.574641998805    -0.016769182648
    H           -2.562978652938    -0.390090517790    -1.700872584167
    H           -3.203901198666     0.994792467705    -0.839250765492
    H           -2.532590333779    -0.353994088365     0.053031676826

  Mulliken Charges: (a.u.)
   Center  Symbol    Alpha    Beta     Spin     Total
       1     H     0.38242  0.38242  0.00000  0.23515
       2     O     4.15978  4.15978  0.00000 -0.31956
       3     C     2.80150  2.80150  0.00000  0.39701
       4     C     3.11474  3.11474  0.00000 -0.22948
       5     O     4.19164  4.19164  0.00000 -0.38328
       6     C     3.08863  3.08863  0.00000 -0.17725
       7     H     0.43021  0.43021  0.00000  0.13958
       8     H     0.43894  0.43894  0.00000  0.12212
       9     C     3.14804  3.14804  0.00000 -0.29609
      10     H     0.44870  0.44870  0.00000  0.10259
      11     H     0.43967  0.43967  0.00000  0.12066
      12     H     0.45680  0.45680  0.00000  0.08641
      13     H     0.44797  0.44797  0.00000  0.10406
      14     H     0.45096  0.45096  0.00000  0.09808

   Total alpha = 24.00000, Total beta = 24.00000, Total charge = -0.00000
