                              Psi4 1.0.54 Driver

  ==> Input File <==

--------------------------------------------------------------------------
set {
	reference rhf
	basis cc-pvtz
}

set_num_threads( 4 )
memory 2 gb

molecule MOL {
0 1

H	 -3.294565	 0.569785	 0.000000
C	 -2.246225	 0.343737	 0.000000
C	 -1.809462	 -0.973484	 0.000000
C	 -1.312577	 1.353775	 0.000000
H	 -2.523539	 -1.775124	 0.000000
C	 -0.467257	 -1.267606	 0.000000
H	 -1.631287	 2.379013	 0.000000
C	 0.046966	 1.074396	 0.000000
H	 -0.119372	 -2.281828	 0.000000
C	 0.471772	 -0.241514	 0.000000
H	 0.748162	 1.882966	 0.000000
O	 1.760432	 -0.625184	 0.000000
C	 2.727336	 0.179607	 -0.604622
H	 2.533475	 0.306574	 -1.663869
H	 3.669822	 -0.329422	 -0.478224
H	 2.785767	 1.153965	 -0.132477

	symmetry c1
}
set optking {
	frozen_dihedral = ("
		13 12 10 8
	")
}

ee,wfn = optimize('scf', return_wfn=True)
oeprop( wfn, 'DIPOLE', 'QUADRUPOLE', 'MULLIKEN_CHARGES')
f=open( 'psi4out.xyz', 'w' )
f.write( "16  " )
f.write( str(ee) + "\n" )
f.write( MOL.save_string_xyz() )
f.close()
--------------------------------------------------------------------------

    Molecular point group: c1
  Charge       = 0
  Multiplicity = 1
  Basis Set: CC-PVTZ
  Basis Set:
  @DF-RHF Final Energy:  -344.70179668338716
    Total Energy =                       -344.7017966833871014
    Molecular point group: c1
  Basis Set: CC-PVTZ
  Basis Set:
  Basis Set: CC-PVTZ
  Basis Set:
  @DF-RHF Final Energy:  -344.70188914984629
    Total Energy =                       -344.7018891498461244
  Basis Set: CC-PVTZ
  Basis Set:
  Basis Set: CC-PVTZ
  Basis Set:
  @DF-RHF Final Energy:  -344.70252090141247
    Total Energy =                       -344.7025209014123561
  Basis Set: CC-PVTZ
  Basis Set:
  Basis Set: CC-PVTZ
  Basis Set:
  @DF-RHF Final Energy:  -344.70253221760743
    Total Energy =                       -344.7025322176077111
  Basis Set: CC-PVTZ
  Basis Set:
  Charge       = 0
  Multiplicity = 1
  Basis Set: CC-PVTZ
  Basis Set:

    Orbital Energies (a.u.)
    -----------------------

    Doubly Occupied:

       1A    -20.576709     2A    -11.291757     3A    -11.277598
       4A    -11.231555     5A    -11.230257     6A    -11.222714
       7A    -11.218860     8A    -11.218496     9A     -1.415725
      10A     -1.151403    11A     -1.024608    12A     -1.017131
      13A     -0.942268    14A     -0.835473    15A     -0.808789
      16A     -0.724008    17A     -0.668143    18A     -0.667010
      19A     -0.656245    20A     -0.618350    21A     -0.591909
      22A     -0.581975    23A     -0.530172    24A     -0.519652
      25A     -0.510722    26A     -0.483391    27A     -0.459547
      28A     -0.339793    29A     -0.313035

  @DF-RHF Final Energy:  -344.70253436460490

   => Energetics <=

    Nuclear Repulsion Energy =            348.7547716830335389
    One-Electron Energy =               -1158.6600165162117264
    Two-Electron Energy =                 465.2027104685728887
    DFT Exchange-Correlation Energy =       0.0000000000000000
    Empirical Dispersion Energy =           0.0000000000000000
    PCM Polarization Energy =               0.0000000000000000
    EFP Energy =                            0.0000000000000000
    Total Energy =                       -344.7025343646052420
    Molecular point group: c1
  Basis Set: CC-PVTZ
  Basis Set:

  -Total Gradient:
     Atom            X                  Y                   Z
    ------   -----------------  -----------------  -----------------
       1        0.000004424500    -0.000011099956     0.000008857195
       2        0.000067958305     0.000274040962    -0.000024227575
       3        0.000210177200    -0.000188972016    -0.000012337549
       4       -0.000285780423    -0.000071030425     0.000001622819
       5       -0.000003259675     0.000012070794    -0.000001803189
       6       -0.000265744860    -0.000053558610     0.000023898383
       7        0.000011394330     0.000002223462     0.000002638429
       8        0.000132409858    -0.000154495771     0.001814770020
       9        0.000024189455    -0.000001879119    -0.000003585365
      10       -0.000009722759    -0.000228953902    -0.003598580443
      11       -0.000015423783     0.000010819970     0.000013237582
      12        0.000324584030     0.001298594863     0.003316311385
      13       -0.000211665748    -0.000936460692    -0.001638328348
      14        0.000031795429    -0.000010331493     0.000026145787
      15        0.000004832254    -0.000014641352    -0.000020303857
      16       -0.000020168111     0.000073673283     0.000091684726

  **** Optimization is complete! (in 5 steps) ****
    Final optimized geometry and variables:
    Molecular point group: c1

    Geometry (in Angstrom), charge = 0, multiplicity = 1:

    H           -3.286938115026     0.591175589177     0.094672383968
    C           -2.239014206582     0.362865497492     0.088034334889
    C           -1.806612039196    -0.953655038293     0.114836917198
    C           -1.303484246460     1.373218577020     0.054708426168
    H           -2.522819907983    -1.752884131460     0.141909049556
    C           -0.462867931332    -1.251054255165     0.102421097518
    H           -1.621184987008     2.398596515296     0.038740547378
    C            0.053013977326     1.088903917234     0.048436211032
    H           -0.116849055670    -2.265724011447     0.123073871407
    C            0.474859022862    -0.228146715358     0.065289247124
    H            0.761726254290     1.891853655901     0.031532242803
    O            1.770732741556    -0.598293747233     0.101824185964
    C            2.736808515470     0.225370604537    -0.484966695321
    H            2.439107695264     0.531273180964    -1.481367788438
    H            3.642413409282    -0.358104539578    -0.546236405138
    H            2.931958998270     1.106672160100     0.115490623355

  Mulliken Charges: (a.u.)
   Center  Symbol    Alpha    Beta     Spin     Total
       1     H     0.42422  0.42422  0.00000  0.15155
       2     C     3.09808  3.09808  0.00000 -0.19617
       3     C     3.05997  3.05997  0.00000 -0.11993
       4     C     3.06160  3.06160  0.00000 -0.12320
       5     H     0.42279  0.42279  0.00000  0.15443
       6     C     3.11069  3.11069  0.00000 -0.22139
       7     H     0.42311  0.42311  0.00000  0.15378
       8     C     3.13225  3.13225  0.00000 -0.26451
       9     H     0.41981  0.41981  0.00000  0.16039
      10     C     2.85794  2.85794  0.00000  0.28412
      11     H     0.42291  0.42291  0.00000  0.15418
      12     O     4.15779  4.15779  0.00000 -0.31558
      13     C     3.04567  3.04567  0.00000 -0.09134
      14     H     0.46086  0.46086  0.00000  0.07827
      15     H     0.44051  0.44051  0.00000  0.11899
      16     H     0.46180  0.46180  0.00000  0.07640

   Total alpha = 29.00000, Total beta = 29.00000, Total charge = -0.00000

*** Psi4 exiting successfully. Buy a developer a beer!
