  ==> Input File <==

--------------------------------------------------------------------------
set {
	reference rhf
	basis cc-pvtz
}

set_num_threads( 4 )
memory 2 gb

molecule MOL {
0 1

H	 2.828711	 -0.346904	 0.001083
C	 1.876752	 0.015931	 -0.363450
C	 0.776285	 -0.474665	 0.563092
H	 1.728113	 -0.357244	 -1.367440
H	 1.906171	 1.096574	 -0.386153
N	 -0.540022	 0.017605	 0.071630
H	 0.707111	 -1.548969	 0.573035
H	 0.886169	 -0.084184	 1.560432
O	 -0.604112	 0.353800	 -1.062857
O	 -1.427102	 0.066680	 0.855899

	symmetry c1
}
set optking {
	frozen_dihedral = ("
		9 6 3 2
	")
}

ee = optimize('scf')
oeprop('DIPOLE', 'QUADRUPOLE', 'MULLIKEN_CHARGES')
f=open( 'psi4out.xyz', 'w' )
f.write( "10  " )
f.write( str(ee) + "\n" )
f.write( MOL.save_string_xyz() )
f.close()
--------------------------------------------------------------------------

    Molecular point group: c1
  Charge       = 0
  Multiplicity = 1
  Basis Set: CC-PVTZ
  Basis Set:
  @DF-RHF Final Energy:  -282.81127807417198
    Total Energy =                       -282.8112780741719234
    Molecular point group: c1
  Basis Set: CC-PVTZ
  Basis Set:
  Basis Set: CC-PVTZ
  Basis Set:
  @DF-RHF Final Energy:  -282.80883919586637
    Total Energy =                       -282.8088391958663124
  Basis Set: CC-PVTZ
  Basis Set:
  Basis Set: CC-PVTZ
  Basis Set:
  @DF-RHF Final Energy:  -282.80975741624422
    Total Energy =                       -282.8097574162442243
  Basis Set: CC-PVTZ
  Basis Set:
  Basis Set: CC-PVTZ
  Basis Set:
  @DF-RHF Final Energy:  -282.81281049447080
    Total Energy =                       -282.8128104944707388
  Basis Set: CC-PVTZ
  Basis Set:
  Basis Set: CC-PVTZ
  Basis Set:
  @DF-RHF Final Energy:  -282.81290027650550
    Total Energy =                       -282.8129002765053883
  Basis Set: CC-PVTZ
  Basis Set:
  Basis Set: CC-PVTZ
  Basis Set:
  @DF-RHF Final Energy:  -282.81291526767222
    Total Energy =                       -282.8129152676722242
  Basis Set: CC-PVTZ
  Basis Set:
  Charge       = 0
  Multiplicity = 1
  Basis Set: CC-PVTZ
  Basis Set:

    Orbital Energies (a.u.)
    -----------------------

    Doubly Occupied:

       1A    -20.594170     2A    -20.589845     3A    -15.839575
       4A    -11.303165     5A    -11.244019     6A     -1.638571
       7A     -1.422892     8A     -1.124041     9A     -0.966947
      10A     -0.835272    11A     -0.763558    12A     -0.751568
      13A     -0.732175    14A     -0.640741    15A     -0.594192
      16A     -0.564159    17A     -0.538871    18A     -0.490196
      19A     -0.479835    20A     -0.455538

  @DF-RHF Final Energy:  -282.81291630288558

   => Energetics <=

    Nuclear Repulsion Energy =            186.5720348726752320
    One-Electron Energy =                -755.6312390854043315
    Two-Electron Energy =                 286.2462879098436588
    DFT Exchange-Correlation Energy =       0.0000000000000000
    Empirical Dispersion Energy =           0.0000000000000000
    PCM Polarization Energy =               0.0000000000000000
    EFP Energy =                            0.0000000000000000
    Total Energy =                       -282.8129163028854691
    Molecular point group: c1
  Basis Set: CC-PVTZ
  Basis Set:

  -Total Gradient:
     Atom            X                  Y                   Z
    ------   -----------------  -----------------  -----------------
       1       -0.000008381292     0.000001479155    -0.000003058914
       2       -0.000011115111    -0.000056446865    -0.000067799992
       3        0.000036058398     0.000111773769     0.000063892372
       4        0.000016927168     0.000011874468    -0.000008954992
       5        0.000010429623     0.000005871603    -0.000009985987
       6       -0.000151966681    -0.000151569673    -0.000062603393
       7       -0.000041731533     0.000009872829     0.000010850552
       8       -0.000039762646     0.000010002317     0.000006184756
       9        0.000142307726     0.000098021616    -0.000041415783
      10        0.000047234347    -0.000040879219     0.000112891381

  **** Optimization is complete! (in 7 steps) ****
    Final optimized geometry and variables:
    Molecular point group: c1

    Geometry (in Angstrom), charge = 0, multiplicity = 1:

    H            2.855632207945    -0.364021383032     0.031289403591
    C            1.925598335404     0.008545228053    -0.380304748505
    C            0.796771417322    -0.445417860634     0.516762860353
    H            1.811874834711    -0.372625653954    -1.383316279077
    H            1.979944332856     1.087485244478    -0.426566704943
    N           -0.546448807845     0.031177082689     0.066670265015
    H            0.700359831312    -1.521667516216     0.542548811022
    H            0.889983837103    -0.091089505378     1.529689396567
    O           -0.675094061075     0.371471767493    -1.059464803472
    O           -1.407988642612     0.008504625547     0.880218557332

  Mulliken Charges: (a.u.)
   Center  Symbol    Alpha    Beta     Spin     Total
       1     H     0.44935  0.44935  0.00000  0.10130
       2     C     3.13902  3.13902  0.00000 -0.27804
       3     C     3.04299  3.04299  0.00000 -0.08598
       4     H     0.43880  0.43880  0.00000  0.12241
       5     H     0.44402  0.44402  0.00000  0.11196
       6     N     3.27636  3.27636  0.00000  0.44727
       7     H     0.43513  0.43513  0.00000  0.12974
       8     H     0.43162  0.43162  0.00000  0.13675
       9     O     4.17004  4.17004  0.00000 -0.34008
      10     O     4.17266  4.17266  0.00000 -0.34533

   Total alpha = 20.00000, Total beta = 20.00000, Total charge = -0.00000
