  ==> Input File <==

--------------------------------------------------------------------------
set {
	reference rhf
	basis 6-31G*
}

set_num_threads( 4 )
memory 2 gb

molecule MOL {
0 1

H	 -0.064242	 0.138407	 -2.681343
C	 -0.769124	 0.604707	 -1.999530
O	 -0.774054	 0.001095	 -0.743181
H	 -1.764688	 0.480901	 -2.404319
H	 -0.552335	 1.667527	 -1.948449
C	 0.406953	 0.000033	 0.038965
C	 1.527284	 -0.003667	 -0.998752
C	 0.498933	 1.262172	 0.902524
C	 0.494271	 -1.259566	 0.906664
H	 1.452513	 0.873252	 -1.631882
H	 1.448863	 -0.881882	 -1.629595
H	 2.502020	 -0.005104	 -0.521731
H	 0.364280	 2.147110	 0.289513
H	 1.472180	 1.321775	 1.378800
H	 -0.247853	 1.275162	 1.689097
H	 0.356778	 -2.146106	 0.296587
H	 1.467182	 -1.320941	 1.383330
H	 -0.252763	 -1.267328	 1.693119

	symmetry c1
}
set optking {
	frozen_dihedral = ("
		2 3 6 7
	")
}

ee = optimize('scf')
oeprop('DIPOLE', 'QUADRUPOLE', 'MULLIKEN_CHARGES')
f=open( 'psi4out.xyz', 'w' )
f.write( "18  " )
f.write( str(ee) + "\n" )
f.write( MOL.save_string_xyz() )
f.close()
--------------------------------------------------------------------------

    Molecular point group: c1
  Charge       = 0
  Multiplicity = 1
  Basis Set: 6-31G*
  Basis Set:
  @DF-RHF Final Energy:  -271.16094343337261
    Total Energy =                       -271.1609434333726085
    Molecular point group: c1
  Basis Set: 6-31G*
  Basis Set:
  Basis Set: 6-31G*
  Basis Set:
  @DF-RHF Final Energy:  -271.16675809280792
    Total Energy =                       -271.1667580928080952
  Basis Set: 6-31G*
  Basis Set:
  Basis Set: 6-31G*
  Basis Set:
  @DF-RHF Final Energy:  -271.17176290090799
    Total Energy =                       -271.1717629009079928
  Basis Set: 6-31G*
  Basis Set:
  Basis Set: 6-31G*
  Basis Set:
  @DF-RHF Final Energy:  -271.17352185826667
    Total Energy =                       -271.1735218582666107
  Basis Set: 6-31G*
  Basis Set:
  @DF-RHF Final Energy:  -271.17369312335580
    Total Energy =                       -271.1736931233555765
  Basis Set: 6-31G*
  Basis Set:
  @DF-RHF Final Energy:  -271.17371999263241
    Total Energy =                       -271.1737199926324138
  Basis Set: 6-31G*
  Basis Set:
  Basis Set: 6-31G*
  Basis Set:
  @DF-RHF Final Energy:  -271.17371942202334
    Total Energy =                       -271.1737194220235665
  Basis Set: 6-31G*
  Basis Set:
  Basis Set: 6-31G*
  Basis Set:
  @DF-RHF Final Energy:  -271.17372844651703
    Total Energy =                       -271.1737284465168614
  Basis Set: 6-31G*
  Basis Set:
  Charge       = 0
  Multiplicity = 1
  Basis Set: 6-31G*
  Basis Set:

    Orbital Energies (a.u.)
    -----------------------

    Doubly Occupied:

       1A    -20.545318     2A    -11.281500     3A    -11.261710
       4A    -11.212572     5A    -11.204808     6A    -11.203614
       7A     -1.368498     8A     -1.073473     9A     -0.949913
      10A     -0.935742    11A     -0.912135    12A     -0.751746
      13A     -0.656283    14A     -0.645629    15A     -0.637530
      16A     -0.586844    17A     -0.574737    18A     -0.551286
      19A     -0.536915    20A     -0.525616    21A     -0.515019
      22A     -0.490390    23A     -0.484419    24A     -0.441452
      25A     -0.399136

  @DF-RHF Final Energy:  -271.17372753457522

   => Energetics <=

    Nuclear Repulsion Energy =            272.1602636754328728
    One-Electron Energy =                -907.1754078595481587
    Two-Electron Energy =                 363.8414166495399513
    DFT Exchange-Correlation Energy =       0.0000000000000000
    Empirical Dispersion Energy =           0.0000000000000000
    PCM Polarization Energy =               0.0000000000000000
    EFP Energy =                            0.0000000000000000
    Total Energy =                       -271.1737275345753915
    Molecular point group: c1
  Basis Set: 6-31G*
  Basis Set:

  -Total Gradient:
     Atom            X                  Y                   Z
    ------   -----------------  -----------------  -----------------
       1        0.000002581346    -0.000018348414    -0.000006140586
       2        0.000828364342    -0.002803690579    -0.001290734457
       3       -0.001161713369     0.005238845859     0.001851794289
       4        0.000006283566    -0.000014889678     0.000023805652
       5        0.000030914000     0.000041661613     0.000000667039
       6        0.000241466210    -0.005166343848    -0.000659818493
       7       -0.000098625275     0.002691422351     0.000013673755
       8        0.000072088916     0.000014862011     0.000020294628
       9        0.000098233856    -0.000006096377     0.000045032947
      10        0.000002078059     0.000023148746     0.000055252472
      11       -0.000038647259    -0.000000225528    -0.000065155567
      12       -0.000038870780    -0.000019993380     0.000026392599
      13        0.000005245443     0.000018781100    -0.000015269287
      14        0.000000506760     0.000014985561     0.000009178223
      15        0.000010932923    -0.000017318408    -0.000018421878
      16       -0.000013048000     0.000026276930    -0.000015596275
      17        0.000028885518    -0.000032648007     0.000015958269
      18        0.000023323745     0.000009570049     0.000009086670

  **** Optimization is complete! (in 9 steps) ****
    Final optimized geometry and variables:
    Molecular point group: c1

    Geometry (in Angstrom), charge = 0, multiplicity = 1:

    H           -0.575734025069    -0.068502278718    -2.371084982216
    C           -1.138332612941     0.464393154891    -1.611186509862
    O           -1.008512191959    -0.113829181967    -0.350833357372
    H           -2.188729400137     0.413237080188    -1.865403260107
    H           -0.836402292477     1.509178269023    -1.624912776777
    C            0.241742981971    -0.094171000469     0.322015913708
    C            1.441010871474    -0.103268501071    -0.630489164798
    C            0.285746303547     1.158851122998     1.202166391525
    C            0.241600620608    -1.353486176899     1.183989708342
    H            1.499624721998     0.801512764306    -1.224760381106
    H            1.404243991557    -0.954389787731    -1.302797172355
    H            2.357243934681    -0.175128315034    -0.054391946754
    H            0.234279590383     2.059005316638     0.597285404064
    H            1.201076759602     1.200187944617     1.784797923693
    H           -0.557378647813     1.164176391855     1.883755683053
    H            0.207738262738    -2.238334999891     0.557775902544
    H            1.129662597675    -1.402561836492     1.806369989370
    H           -0.631165072707    -1.362914001413     1.826853602539

  Mulliken Charges: (a.u.)
   Center  Symbol    Alpha    Beta     Spin     Total
       1     H     0.42808  0.42808  0.00000  0.14385
       2     C     3.07730  3.07730  0.00000 -0.15459
       3     O     4.32204  4.32204  0.00000 -0.64408
       4     H     0.41247  0.41247  0.00000  0.17506
       5     H     0.43213  0.43213  0.00000  0.13573
       6     C     2.84121  2.84121  0.00000  0.31759
       7     C     3.25628  3.25628  0.00000 -0.51256
       8     C     3.23556  3.23556  0.00000 -0.47113
       9     C     3.23221  3.23221  0.00000 -0.46442
      10     H     0.41742  0.41742  0.00000  0.16515
      11     H     0.41447  0.41447  0.00000  0.17105
      12     H     0.41545  0.41545  0.00000  0.16910
      13     H     0.42167  0.42167  0.00000  0.15667
      14     H     0.42467  0.42467  0.00000  0.15067
      15     H     0.41380  0.41380  0.00000  0.17240
      16     H     0.41703  0.41703  0.00000  0.16594
      17     H     0.42538  0.42538  0.00000  0.14923
      18     H     0.41284  0.41284  0.00000  0.17432

   Total alpha = 25.00000, Total beta = 25.00000, Total charge =  0.00000
