                              Psi4 1.0.54 Driver

  ==> Input File <==

--------------------------------------------------------------------------
set {
	reference rhf
	basis cc-pvtz
}

set_num_threads( 4 )
memory 2 gb

molecule MOL {
0 1

H	 -3.051669	 1.821362	 0.733281
O	 -2.391450	 1.841420	 1.402728
C	 -1.126442	 1.839816	 0.816743
C	 -0.793473	 0.591216	 0.050087
H	 -0.414270	 1.963086	 1.624157
H	 -1.002084	 2.698990	 0.160196
C	 -1.534243	 -0.493009	 -0.013340
H	 0.144290	 0.626342	 -0.479642
H	 -1.101195	 -1.466332	 -0.144046
H	 -2.604242	 -0.437780	 0.050785

	symmetry c1
}
set optking {
	frozen_dihedral = ("
		3 4 7 9
	")
}

ee,wfn = optimize('scf', return_wfn=True)
oeprop( wfn, 'DIPOLE', 'QUADRUPOLE', 'MULLIKEN_CHARGES')
f=open( 'psi4out.xyz', 'w' )
f.write( "10  " )
f.write( str(ee) + "\n" )
f.write( MOL.save_string_xyz() )
f.close()
--------------------------------------------------------------------------

    Molecular point group: c1
  Charge       = 0
  Multiplicity = 1
  Basis Set: CC-PVTZ
  Basis Set:
  @DF-RHF Final Energy:  -191.97683941043948
    Total Energy =                       -191.9768394104395099
    Molecular point group: c1
  Basis Set: CC-PVTZ
  Basis Set:
  Basis Set: CC-PVTZ
  Basis Set:
  @DF-RHF Final Energy:  -191.98728048895700
    Total Energy =                       -191.9872804889568556
  Basis Set: CC-PVTZ
  Basis Set:
  Basis Set: CC-PVTZ
  Basis Set:
  @DF-RHF Final Energy:  -191.98999511611584
    Total Energy =                       -191.9899951161158356
  Basis Set: CC-PVTZ
  Basis Set:
  Basis Set: CC-PVTZ
  Basis Set:
  @DF-RHF Final Energy:  -191.99010365122714
    Total Energy =                       -191.9901036512270309
  Basis Set: CC-PVTZ
  Basis Set:
  Charge       = 0
  Multiplicity = 1
  Basis Set: CC-PVTZ
  Basis Set:

    Orbital Energies (a.u.)
    -----------------------

    Doubly Occupied:

       1A    -20.555099     2A    -11.280091     3A    -11.230645
       4A    -11.215856     5A     -1.375242     6A     -1.062301
       7A     -0.932045     8A     -0.771483     9A     -0.692228
      10A     -0.662522    11A     -0.621641    12A     -0.575350
      13A     -0.541440    14A     -0.493094    15A     -0.454148
      16A     -0.364136

  @DF-RHF Final Energy:  -191.99010628222300

   => Energetics <=

    Nuclear Repulsion Energy =            119.3381338775874951
    One-Electron Energy =                -497.0018346684830703
    Two-Electron Energy =                 185.6735945086726929
    DFT Exchange-Correlation Energy =       0.0000000000000000
    Empirical Dispersion Energy =           0.0000000000000000
    PCM Polarization Energy =               0.0000000000000000
    EFP Energy =                            0.0000000000000000
    Total Energy =                       -191.9901062822228823
    Molecular point group: c1
  Basis Set: CC-PVTZ
  Basis Set:

  -Total Gradient:
     Atom            X                  Y                   Z
    ------   -----------------  -----------------  -----------------
       1        0.000010819407    -0.000013941657     0.000024614666
       2        0.000055697345    -0.000041126411    -0.000070684908
       3        0.008017550089    -0.005316083726     0.010703938472
       4       -0.012236746758     0.007847052921    -0.009903215895
       5        0.000016325066    -0.000001048908     0.000007188544
       6        0.000025728446    -0.000023472921    -0.000035225807
       7        0.000981871806     0.000001455189    -0.019358510305
       8        0.000025832144     0.000033067187     0.000025232743
       9        0.003110884357    -0.002481431702     0.018657901003
      10       -0.000007961902    -0.000004469972    -0.000051238510

  **** Optimization is complete! (in 5 steps) ****
    Final optimized geometry and variables:
    Molecular point group: c1

    Geometry (in Angstrom), charge = 0, multiplicity = 1:

    H           -1.532985289130     0.959105525834     0.094372011526
    O           -0.902910928706     0.853428550534     0.784238026583
    C            0.384604808591     0.826582409783     0.249038197406
    C            0.697629538846    -0.384756455762    -0.585066463892
    H            1.068999413855     0.812451804902     1.088351044210
    H            0.590386030714     1.739494582033    -0.306601540909
    C            0.009102130289    -1.505846305547    -0.616798603156
    H            1.697209739509    -0.376849208933    -0.991369772284
    H            0.476415256216    -2.450687833439    -0.821234014193
    H           -0.964529962836    -1.558937243618    -0.164798015686

  Mulliken Charges: (a.u.)
   Center  Symbol    Alpha    Beta     Spin     Total
       1     H     0.39106  0.39106  0.00000  0.21788
       2     O     4.19846  4.19846  0.00000 -0.39692
       3     C     2.95225  2.95225  0.00000  0.09550
       4     C     3.08789  3.08789  0.00000 -0.17577
       5     H     0.45189  0.45189  0.00000  0.09621
       6     H     0.46613  0.46613  0.00000  0.06774
       7     C     3.17036  3.17036  0.00000 -0.34072
       8     H     0.42648  0.42648  0.00000  0.14704
       9     H     0.42638  0.42638  0.00000  0.14723
      10     H     0.42910  0.42910  0.00000  0.14180

   Total alpha = 16.00000, Total beta = 16.00000, Total charge = -0.00000

*** Psi4 exiting successfully. Buy a developer a beer!
