                              Psi4 1.0.54 Driver

  ==> Input File <==

--------------------------------------------------------------------------
set {
	reference rhf
	basis cc-pvtz
}

set_num_threads( 4 )
memory 2 gb

molecule MOL {
0 1

H	 -2.698799	 -0.000846	 0.036018
C	 -1.694291	 -0.000483	 0.434279
O	 -0.828718	 -0.000608	 -0.655022
H	 -1.576855	 0.881100	 1.056504
H	 -1.576401	 -0.881658	 1.057001
C	 0.557892	 0.000078	 -0.420099
C	 0.996971	 1.140958	 0.490875
C	 1.071487	 -1.353250	 0.058410
H	 0.975210	 0.182877	 -1.402468
H	 0.584307	 2.080385	 0.144114
H	 2.077842	 1.221094	 0.484495
H	 0.687258	 0.987720	 1.518094
H	 0.710574	 -2.143538	 -0.588298
H	 2.155083	 -1.363769	 0.036423
H	 0.763661	 -1.572707	 1.074099

	symmetry c1
}
set optking {
	frozen_dihedral = ("
		9 6 3 2
	")
}

ee,wfn = optimize('scf', return_wfn=True)
oeprop( wfn, 'DIPOLE', 'QUADRUPOLE', 'MULLIKEN_CHARGES')
f=open( 'psi4out.xyz', 'w' )
f.write( "15  " )
f.write( str(ee) + "\n" )
f.write( MOL.save_string_xyz() )
f.close()
--------------------------------------------------------------------------

    Molecular point group: c1
  Charge       = 0
  Multiplicity = 1
  Basis Set: CC-PVTZ
  Basis Set:
  @DF-RHF Final Energy:  -232.22588580621900
    Total Energy =                       -232.2258858062190257
    Molecular point group: c1
  Basis Set: CC-PVTZ
  Basis Set:
  Basis Set: CC-PVTZ
  Basis Set:
  @DF-RHF Final Energy:  -232.22598038811486
    Total Energy =                       -232.2259803881150333
  Basis Set: CC-PVTZ
  Basis Set:
  Basis Set: CC-PVTZ
  Basis Set:
  @DF-RHF Final Energy:  -232.22604619224578
    Total Energy =                       -232.2260461922460308
  Basis Set: CC-PVTZ
  Basis Set:
  Basis Set: CC-PVTZ
  Basis Set:
  @DF-RHF Final Energy:  -232.22604967735020
    Total Energy =                       -232.2260496773500336
  Basis Set: CC-PVTZ
  Basis Set:
  Basis Set: CC-PVTZ
  Basis Set:
  @DF-RHF Final Energy:  -232.22605070904038
    Total Energy =                       -232.2260507090403507
  Basis Set: CC-PVTZ
  Basis Set:
  Charge       = 0
  Multiplicity = 1
  Basis Set: CC-PVTZ
  Basis Set:

    Orbital Energies (a.u.)
    -----------------------

    Doubly Occupied:

       1A    -20.541741     2A    -11.272648     3A    -11.258717
       4A    -11.209874     5A    -11.207556     6A     -1.373450
       7A     -1.051635     8A     -0.941284     9A     -0.930492
      10A     -0.781472    11A     -0.675884    12A     -0.642706
      13A     -0.634947    14A     -0.574427    15A     -0.564016
      16A     -0.552848    17A     -0.534052    18A     -0.499669
      19A     -0.496734    20A     -0.445050    21A     -0.408995

  @DF-RHF Final Energy:  -232.22605081590183

   => Energetics <=

    Nuclear Repulsion Energy =            199.0477959995652100
    One-Electron Energy =                -709.3512987468882329
    Two-Electron Energy =                 278.0774519314210806
    DFT Exchange-Correlation Energy =       0.0000000000000000
    Empirical Dispersion Energy =           0.0000000000000000
    PCM Polarization Energy =               0.0000000000000000
    EFP Energy =                            0.0000000000000000
    Total Energy =                       -232.2260508159019423
    Molecular point group: c1
  Basis Set: CC-PVTZ
  Basis Set:

  -Total Gradient:
     Atom            X                  Y                   Z
    ------   -----------------  -----------------  -----------------
       1       -0.000015115123    -0.000005525685    -0.000009308253
       2        0.000008765613     0.000739391855    -0.000006285958
       3       -0.000021178608    -0.000955215263     0.000007576833
       4        0.000005605169     0.000027253360     0.000016248536
       5        0.000003398438    -0.000009668437     0.000003259690
       6        0.000012164195    -0.000638341242    -0.000152150046
       7        0.000018858421     0.000007010343     0.000003949341
       8        0.000022413475    -0.000003258959    -0.000004955294
       9       -0.000028811558     0.000850758184     0.000153992471
      10        0.000010840505    -0.000014292784     0.000006840036
      11       -0.000011640696     0.000004215460     0.000004242138
      12       -0.000003943712     0.000002472914    -0.000027250901
      13       -0.000000027902     0.000000139547    -0.000009022565
      14       -0.000003031815    -0.000004147384     0.000003131085
      15        0.000001703596    -0.000000791909     0.000009732887

  **** Optimization is complete! (in 6 steps) ****
    Final optimized geometry and variables:
    Molecular point group: c1

    Geometry (in Angstrom), charge = 0, multiplicity = 1:

    H           -2.694372600809    -0.066789650538     0.035126792948
    C           -1.695386455737     0.043711540611     0.432228923243
    O           -0.826412410605     0.047966903924    -0.654303774390
    H           -1.653822502017     0.970645566436     0.995145821759
    H           -1.508409606426    -0.781925359202     1.112381797916
    C            0.559736720858     0.046755101134    -0.414494516666
    C            1.010174944872     1.178958271677     0.501763428876
    C            1.052471113527    -1.314808432309     0.061649599776
    H            0.983480060294     0.233605505473    -1.393432459417
    H            0.612787700841     2.126814598783     0.159374122680
    H            2.091875260350     1.243595394873     0.495568926582
    H            0.697442607529     1.025506509548     1.528060476300
    H            0.705986378127    -2.092581216849    -0.607262424596
    H            2.136312466019    -1.334544457106     0.076818552606
    H            0.706898490533    -1.545222680966     1.062871158107

  Mulliken Charges: (a.u.)
   Center  Symbol    Alpha    Beta     Spin     Total
       1     H     0.44130  0.44130  0.00000  0.11740
       2     C     3.03929  3.03929  0.00000 -0.07859
       3     O     4.18358  4.18358  0.00000 -0.36715
       4     H     0.46868  0.46868  0.00000  0.06264
       5     H     0.47100  0.47100  0.00000  0.05800
       6     C     2.93386  2.93386  0.00000  0.13227
       7     C     3.16298  3.16298  0.00000 -0.32596
       8     C     3.15280  3.15280  0.00000 -0.30559
       9     H     0.44713  0.44713  0.00000  0.10574
      10     H     0.44373  0.44373  0.00000  0.11254
      11     H     0.44782  0.44782  0.00000  0.10436
      12     H     0.45474  0.45474  0.00000  0.09053
      13     H     0.44475  0.44475  0.00000  0.11051
      14     H     0.45185  0.45185  0.00000  0.09629
      15     H     0.45649  0.45649  0.00000  0.08702

   Total alpha = 21.00000, Total beta = 21.00000, Total charge =  0.00000

*** Psi4 exiting successfully. Buy a developer a beer!
