  ==> Input File <==

--------------------------------------------------------------------------
set {
	reference rhf
	basis cc-pvtz
}

set_num_threads( 4 )
memory 2 gb

molecule MOL {
0 1

H	 3.459101	 0.139266	 -0.762951
C	 2.749156	 -0.051729	 0.031265
C	 1.322304	 0.099773	 -0.484271
H	 2.929445	 -1.053887	 0.403481
H	 2.954281	 0.646699	 0.834672
C	 0.308557	 -0.162619	 0.622645
H	 1.143368	 -0.594400	 -1.295960
H	 1.169532	 1.100095	 -0.870217
N	 -1.069352	 -0.004081	 0.085342
H	 0.371632	 -1.172932	 0.991288
H	 0.400391	 0.548875	 1.426218
O	 -1.886514	 -0.781129	 0.450060
O	 -1.250849	 0.870669	 -0.693640

	symmetry c1
}
set optking {
	frozen_dihedral = ("
		12 9 6 3
	")
}

ee = optimize('scf')
oeprop('DIPOLE', 'QUADRUPOLE', 'MULLIKEN_CHARGES')
f=open( 'psi4out.xyz', 'w' )
f.write( "13  " )
f.write( str(ee) + "\n" )
f.write( MOL.save_string_xyz() )
f.close()
--------------------------------------------------------------------------

    Molecular point group: c1
  Charge       = 0
  Multiplicity = 1
  Basis Set: CC-PVTZ
  Basis Set:
  @DF-RHF Final Energy:  -321.85985798345860
    Total Energy =                       -321.8598579834585962
    Molecular point group: c1
  Basis Set: CC-PVTZ
  Basis Set:
  Basis Set: CC-PVTZ
  Basis Set:
  @DF-RHF Final Energy:  -321.85679279625293
    Total Energy =                       -321.8567927962526483
  Basis Set: CC-PVTZ
  Basis Set:
  Basis Set: CC-PVTZ
  Basis Set:
  @DF-RHF Final Energy:  -321.85926372609151
    Total Energy =                       -321.8592637260913421
  Basis Set: CC-PVTZ
  Basis Set:
  Basis Set: CC-PVTZ
  Basis Set:
  @DF-RHF Final Energy:  -321.86087327220764
    Total Energy =                       -321.8608732722077548
  Basis Set: CC-PVTZ
  Basis Set:
  Basis Set: CC-PVTZ
  Basis Set:
  @DF-RHF Final Energy:  -321.86089793842450
    Total Energy =                       -321.8608979384244435
  Basis Set: CC-PVTZ
  Basis Set:
  Basis Set: CC-PVTZ
  Basis Set:
  @DF-RHF Final Energy:  -321.86090167426278
    Total Energy =                       -321.8609016742625499
  Basis Set: CC-PVTZ
  Basis Set:
  Charge       = 0
  Multiplicity = 1
  Basis Set: CC-PVTZ
  Basis Set:

    Orbital Energies (a.u.)
    -----------------------

    Doubly Occupied:

       1A    -20.591469     2A    -20.590287     3A    -15.837964
       4A    -11.298423     5A    -11.249387     6A    -11.235636
       7A     -1.636886     8A     -1.420969     9A     -1.132380
      10A     -1.027183    11A     -0.884647    12A     -0.829686
      13A     -0.763583    14A     -0.745590    15A     -0.730192
      16A     -0.664226    17A     -0.605746    18A     -0.581756
      19A     -0.551820    20A     -0.522244    21A     -0.510322
      22A     -0.487617    23A     -0.474373    24A     -0.454512

  @DF-RHF Final Energy:  -321.86090197430343

   => Energetics <=

    Nuclear Repulsion Energy =            247.6821247190894724
    One-Electron Energy =                -929.4322560307575714
    Two-Electron Energy =                 359.8892293373645543
    DFT Exchange-Correlation Energy =       0.0000000000000000
    Empirical Dispersion Energy =           0.0000000000000000
    PCM Polarization Energy =               0.0000000000000000
    EFP Energy =                            0.0000000000000000
    Total Energy =                       -321.8609019743036015
    Molecular point group: c1
  Basis Set: CC-PVTZ
  Basis Set:

  -Total Gradient:
     Atom            X                  Y                   Z
    ------   -----------------  -----------------  -----------------
       1       -0.000008073734     0.000003744131    -0.000000516819
       2       -0.000008707980     0.000015417587     0.000004756618
       3        0.000004964979     0.000347081195     0.000091007403
       4       -0.000004183464    -0.000001947815    -0.000006350749
       5        0.000002049926     0.000000168773     0.000006809448
       6       -0.000046920512    -0.000421939909     0.000022913064
       7        0.000000924650    -0.000000572886    -0.000005762255
       8        0.000005346354    -0.000001533904    -0.000003398401
       9        0.000162516884    -0.000235701184    -0.000531871806
      10        0.000015426526     0.000002497057     0.000006929751
      11        0.000007248463    -0.000002124196     0.000012176748
      12       -0.000115626885     0.000299170798     0.000399600671
      13       -0.000014965208    -0.000004259646     0.000003706327

  **** Optimization is complete! (in 7 steps) ****
    Final optimized geometry and variables:
    Molecular point group: c1

    Geometry (in Angstrom), charge = 0, multiplicity = 1:

    H            3.495487783915     0.129524397600    -0.748928301360
    C            2.767724557335    -0.055865623777     0.030256564204
    C            1.352781607083     0.116705373765    -0.513538054964
    H            2.931153265650    -1.060502815705     0.403886137678
    H            2.966232644041     0.637911816908     0.839840112099
    C            0.324543745880    -0.144287467097     0.572455738670
    H            1.186033467273    -0.571083213188    -1.334854576869
    H            1.217927411057     1.115157698182    -0.902464069912
    N           -1.077043577143    -0.010361601223     0.078624076434
    H            0.390295898363    -1.136545110133     0.984439255678
    H            0.400812210564     0.578806646917     1.373316703849
    O           -1.864820052137    -0.801343275938     0.475053013676
    O           -1.320262391518     0.892347052119    -0.649553428275

  Mulliken Charges: (a.u.)
   Center  Symbol    Alpha    Beta     Spin     Total
       1     H     0.44143  0.44143  0.00000  0.11715
       2     C     3.15188  3.15188  0.00000 -0.30376
       3     C     3.09461  3.09461  0.00000 -0.18921
       4     H     0.45244  0.45244  0.00000  0.09512
       5     H     0.45260  0.45260  0.00000  0.09480
       6     C     3.04251  3.04251  0.00000 -0.08503
       7     H     0.44373  0.44373  0.00000  0.11255
       8     H     0.43349  0.43349  0.00000  0.13302
       9     N     3.27583  3.27583  0.00000  0.44834
      10     H     0.43177  0.43177  0.00000  0.13645
      11     H     0.43721  0.43721  0.00000  0.12557
      12     O     4.17009  4.17009  0.00000 -0.34018
      13     O     4.17241  4.17241  0.00000 -0.34482

   Total alpha = 24.00000, Total beta = 24.00000, Total charge =  0.00000
