                              Psi4 1.0.54 Driver

  ==> Input File <==

--------------------------------------------------------------------------
set {
	reference rhf
	basis cc-pvtz
}

set_num_threads( 4 )
memory 2 gb

molecule MOL {
0 1

H	 2.307696	 -0.852411	 -0.666648
C	 1.562249	 -0.086982	 -0.801774
O	 0.462329	 -0.453336	 -0.000137
H	 1.284708	 -0.041488	 -1.847298
H	 1.970900	 0.866241	 -0.490955
C	 -0.590565	 0.341382	 0.000062
O	 -1.693898	 -0.053880	 0.000252
H	 -0.340426	 1.403822	 0.000200

	symmetry c1
}
set optking {
	frozen_dihedral = ("
		2 3 6 7
	")
}

ee,wfn = optimize('scf', return_wfn=True)
oeprop( wfn, 'DIPOLE', 'QUADRUPOLE', 'MULLIKEN_CHARGES')
f=open( 'psi4out.xyz', 'w' )
f.write( "8  " )
f.write( str(ee) + "\n" )
f.write( MOL.save_string_xyz() )
f.close()
--------------------------------------------------------------------------

    Molecular point group: c1
  Charge       = 0
  Multiplicity = 1
  Basis Set: CC-PVTZ
  Basis Set:
  @DF-RHF Final Energy:  -227.86578766411753
    Total Energy =                       -227.8657876641174198
    Molecular point group: c1
  Basis Set: CC-PVTZ
  Basis Set:
  Basis Set: CC-PVTZ
  Basis Set:
  @DF-RHF Final Energy:  -227.86577147163337
    Total Energy =                       -227.8657714716334226
  Basis Set: CC-PVTZ
  Basis Set:
  Basis Set: CC-PVTZ
  Basis Set:
  @DF-RHF Final Energy:  -227.86554722389332
    Total Energy =                       -227.8655472238932305
  Basis Set: CC-PVTZ
  Basis Set:
  Basis Set: CC-PVTZ
  Basis Set:
  @DF-RHF Final Energy:  -227.86612657312196
    Total Energy =                       -227.8661265731220169
  Basis Set: CC-PVTZ
  Basis Set:
  Basis Set: CC-PVTZ
  Basis Set:
  @DF-RHF Final Energy:  -227.86614001834786
    Total Energy =                       -227.8661400183478349
  Basis Set: CC-PVTZ
  Basis Set:
  Basis Set: CC-PVTZ
  Basis Set:
  @DF-RHF Final Energy:  -227.86614211678318
    Total Energy =                       -227.8661421167832941
  Basis Set: CC-PVTZ
  Basis Set:
  Charge       = 0
  Multiplicity = 1
  Basis Set: CC-PVTZ
  Basis Set:

    Orbital Energies (a.u.)
    -----------------------

    Doubly Occupied:

       1A    -20.603885     2A    -20.553206     3A    -11.375320
       4A    -11.301464     5A     -1.477763     6A     -1.387690
       7A     -0.991457     8A     -0.847023     9A     -0.740649
      10A     -0.688979    11A     -0.682319    12A     -0.616024
      13A     -0.571240    14A     -0.531779    15A     -0.470910
      16A     -0.458874

  @DF-RHF Final Energy:  -227.86614222298141

   => Energetics <=

    Nuclear Repulsion Energy =            121.6067368081812106
    One-Electron Energy =                -552.3485932190110361
    Two-Electron Energy =                 202.8757141878484731
    DFT Exchange-Correlation Energy =       0.0000000000000000
    Empirical Dispersion Energy =           0.0000000000000000
    PCM Polarization Energy =               0.0000000000000000
    EFP Energy =                            0.0000000000000000
    Total Energy =                       -227.8661422229813525
    Molecular point group: c1
  Basis Set: CC-PVTZ
  Basis Set:

  -Total Gradient:
     Atom            X                  Y                   Z
    ------   -----------------  -----------------  -----------------
       1       -0.000004817630     0.000011033211    -0.000008002449
       2       -0.001757547492    -0.001747188127    -0.003760017171
       3        0.002721630113     0.002969211636     0.002759223455
       4       -0.000005354892     0.000000905706     0.000017803755
       5       -0.000010078247    -0.000015721155    -0.000001634208
       6       -0.001035986716    -0.001968139925     0.006728520416
       7        0.000101025700     0.000779094852    -0.005737737909
       8       -0.000008870833    -0.000029196197     0.000001844112

  **** Optimization is complete! (in 7 steps) ****
    Final optimized geometry and variables:
    Molecular point group: c1

    Geometry (in Angstrom), charge = 0, multiplicity = 1:

    H            2.419663515502    -0.693951421584    -0.341732434369
    C            1.610105815355    -0.024833014054    -0.581332993430
    O            0.490731040935    -0.449045053844     0.160934133405
    H            1.399224309320    -0.077084860934    -1.641264556777
    H            1.896410730320     0.987802223771    -0.318749269502
    C           -0.526986561846     0.394889564217     0.258837540283
    O           -1.649755865150     0.067437212393     0.201616123949
    H           -0.217248906811     1.433427482486     0.387708692083

  Mulliken Charges: (a.u.)
   Center  Symbol    Alpha    Beta     Spin     Total
       1     H     0.44207  0.44207  0.00000  0.11585
       2     C     3.02811  3.02811  0.00000 -0.05622
       3     O     4.13061  4.13061  0.00000 -0.26121
       4     H     0.45583  0.45583  0.00000  0.08834
       5     H     0.46528  0.46528  0.00000  0.06943
       6     C     2.83419  2.83419  0.00000  0.33163
       7     O     4.16796  4.16796  0.00000 -0.33592
       8     H     0.47594  0.47594  0.00000  0.04811

   Total alpha = 16.00000, Total beta = 16.00000, Total charge = -0.00000

*** Psi4 exiting successfully. Buy a developer a beer!
