  ==> Input File <==

--------------------------------------------------------------------------
set {
	reference rhf
	basis cc-pvtz
}

set_num_threads( 4 )
memory 2 gb

molecule MOL {
0 1

H	 1.590656	 -1.439680	 1.507901
C	 1.749223	 -0.439246	 1.084060
C	 0.508571	 0.398549	 0.943772
O	 2.836309	 -0.094566	 0.772493
C	 -0.554654	 -0.292621	 0.086567
H	 0.787666	 1.357778	 0.528055
H	 0.113555	 0.565150	 1.943815
C	 -1.846385	 0.513195	 -0.016346
H	 -0.155115	 -0.462764	 -0.909103
H	 -0.775202	 -1.272763	 0.501720
C	 -3.089953	 -0.365049	 -0.098564
H	 -1.798267	 1.154820	 -0.891143
H	 -1.925398	 1.173265	 0.842889
H	 -3.055079	 -1.012299	 -0.968245
H	 -3.988403	 0.236438	 -0.170014
H	 -3.183055	 -0.995885	 0.779079

	symmetry c1
}
set optking {
	frozen_dihedral = ("
		9 5 8 12
	")
}

ee = optimize('scf')
oeprop('DIPOLE', 'QUADRUPOLE', 'MULLIKEN_CHARGES')
f=open( 'psi4out.xyz', 'w' )
f.write( "16  " )
f.write( str(ee) + "\n" )
f.write( MOL.save_string_xyz() )
f.close()
--------------------------------------------------------------------------

    Molecular point group: c1
  Charge       = 0
  Multiplicity = 1
  Basis Set: CC-PVTZ
  Basis Set:
  @DF-RHF Final Energy:  -270.11557214265923
    Total Energy =                       -270.1155721426593459
    Molecular point group: c1
  Basis Set: CC-PVTZ
  Basis Set:
  Basis Set: CC-PVTZ
  Basis Set:
  @DF-RHF Final Energy:  -270.11586263264689
    Total Energy =                       -270.1158626326473495
  Basis Set: CC-PVTZ
  Basis Set:
  Basis Set: CC-PVTZ
  Basis Set:
  @DF-RHF Final Energy:  -270.11590270962654
    Total Energy =                       -270.1159027096268233
  Basis Set: CC-PVTZ
  Basis Set:
  Basis Set: CC-PVTZ
  Basis Set:
  @DF-RHF Final Energy:  -270.11594559517670
    Total Energy =                       -270.1159455951768678
  Basis Set: CC-PVTZ
  Basis Set:
  Basis Set: CC-PVTZ
  Basis Set:
  @DF-RHF Final Energy:  -270.11595020831180
    Total Energy =                       -270.1159502083119150
  Basis Set: CC-PVTZ
  Basis Set:
  Charge       = 0
  Multiplicity = 1
  Basis Set: CC-PVTZ
  Basis Set:

    Orbital Energies (a.u.)
    -----------------------

    Doubly Occupied:

       1A    -20.552006     2A    -11.321010     3A    -11.234734
       4A    -11.233902     5A    -11.227493     6A    -11.217014
       7A     -1.406684     8A     -1.096499     9A     -1.019843
      10A     -0.906282    11A     -0.812597    12A     -0.793740
      13A     -0.682683    14A     -0.644162    15A     -0.634295
      16A     -0.610514    17A     -0.580157    18A     -0.550222
      19A     -0.534195    20A     -0.508907    21A     -0.488256
      22A     -0.483140    23A     -0.477344    24A     -0.411017

  @DF-RHF Final Energy:  -270.11595078325348

   => Energetics <=

    Nuclear Repulsion Energy =            229.3328897488123062
    One-Electron Energy =                -820.0442919260179906
    Two-Electron Energy =                 320.5954513939522599
    DFT Exchange-Correlation Energy =       0.0000000000000000
    Empirical Dispersion Energy =           0.0000000000000000
    PCM Polarization Energy =               0.0000000000000000
    EFP Energy =                            0.0000000000000000
    Total Energy =                       -270.1159507832533677
    Molecular point group: c1
  Basis Set: CC-PVTZ
  Basis Set:

  -Total Gradient:
     Atom            X                  Y                   Z
    ------   -----------------  -----------------  -----------------
       1       -0.000007441613     0.000001993181    -0.000003686857
       2        0.000005723004    -0.000026909145    -0.000019140991
       3        0.000000809414    -0.000032961134     0.000002528570
       4       -0.000015560433     0.000023533187     0.000028939942
       5       -0.003345779256    -0.005371111864    -0.000913908589
       6        0.000000698450     0.000002549556    -0.000013522762
       7        0.000018200295     0.000000148448    -0.000021213185
       8        0.002771581883     0.004830814416     0.003114754096
       9        0.002414015696     0.003748041119     0.000292448292
      10        0.000017415074    -0.000017367198     0.000010611814
      11        0.000006413038     0.000033437305    -0.000009571620
      12       -0.001861456966    -0.003222987320    -0.002475136103
      13       -0.000023969054     0.000028840336     0.000010763256
      14       -0.000005050363     0.000001553515    -0.000008512509
      15        0.000004887030    -0.000002877256     0.000004847358
      16        0.000019513808     0.000003302854    -0.000000200712

  **** Optimization is complete! (in 6 steps) ****
    Final optimized geometry and variables:
    Molecular point group: c1

    Geometry (in Angstrom), charge = 0, multiplicity = 1:

    H            1.709654809640    -1.378761660655     1.042180220621
    C            1.839638258709    -0.380107116139     0.604368072328
    C            0.584197529135     0.441023400357     0.504687277613
    O            2.909799026082    -0.025599216584     0.248048112650
    C           -0.498597006366    -0.267113377330    -0.317968485352
    H            0.835892248342     1.402986233737     0.077144269523
    H            0.219516824953     0.605036104018     1.516313002489
    C           -1.784982878516     0.562308115369    -0.436312400155
    H           -0.093710012485    -0.447290105671    -1.308532856723
    H           -0.715360771872    -1.232897149427     0.127446459726
    C           -3.034642203677    -0.303481257896    -0.578107796366
    H           -1.718221845428     1.197813074168    -1.312778099478
    H           -1.893193826423     1.210789645314     0.426337950352
    H           -2.958525115970    -0.960549662403    -1.438194452929
    H           -3.920912026310     0.306887032213    -0.706436461797
    H           -3.182800590440    -0.924388955123     0.299008139054

  Mulliken Charges: (a.u.)
   Center  Symbol    Alpha    Beta     Spin     Total
       1     H     0.46542  0.46542  0.00000  0.06916
       2     C     2.91051  2.91051  0.00000  0.17897
       3     C     3.07814  3.07814  0.00000 -0.15627
       4     O     4.16376  4.16376  0.00000 -0.32753
       5     C     3.10321  3.10321  0.00000 -0.20642
       6     H     0.44200  0.44200  0.00000  0.11599
       7     H     0.45059  0.45059  0.00000  0.09883
       8     C     3.08500  3.08500  0.00000 -0.17001
       9     H     0.44438  0.44438  0.00000  0.11123
      10     H     0.45146  0.45146  0.00000  0.09708
      11     C     3.14809  3.14809  0.00000 -0.29618
      12     H     0.44894  0.44894  0.00000  0.10211
      13     H     0.45269  0.45269  0.00000  0.09463
      14     H     0.45291  0.45291  0.00000  0.09418
      15     H     0.44739  0.44739  0.00000  0.10522
      16     H     0.45550  0.45550  0.00000  0.08899

   Total alpha = 24.00000, Total beta = 24.00000, Total charge =  0.00000
