  ==> Input File <==

--------------------------------------------------------------------------
set {
	reference rhf
	basis 6-31G*
}

set_num_threads( 1 )
memory 2 gb

molecule MOL {
0 1

H	 -2.499100	 -0.730091	 -0.745082
O	 -2.347518	 -0.290803	 0.079804
C	 -1.184022	 0.487508	 -0.006784
C	 0.062599	 -0.378592	 0.031606
H	 -1.176523	 1.099369	 -0.904519
H	 -1.187323	 1.153111	 0.844927
O	 1.171513	 0.459272	 -0.058250
H	 0.050699	 -1.089204	 -0.797170
H	 0.078739	 -0.954914	 0.954740
C	 1.914368	 0.561622	 1.115135
H	 2.311519	 -0.404736	 1.420180
H	 2.738695	 1.234090	 0.922332
H	 1.315526	 0.961700	 1.930683

	symmetry c1
}
set optking {
	frozen_dihedral = ("
		8 4 3 5,
		1 2 3 5,
		4 7 10 13
	")
}

ee = energy('scf')
oeprop('DIPOLE', 'QUADRUPOLE', 'MULLIKEN_CHARGES')
f=open( 'psi4out.xyz', 'w' )
f.write( "13  " )
f.write( str(ee) + "\n" )
f.write( MOL.save_string_xyz() )
f.close()
--------------------------------------------------------------------------

    Molecular point group: c1

    Geometry (in Angstrom), charge = 0, multiplicity = 1:

       Center              X                  Y                   Z               Mass
    ------------   -----------------  -----------------  -----------------  -----------------
           H         -2.398514714952    -0.888144606697    -0.977536160706     1.007825032070
           O         -2.246932714952    -0.448856606697    -0.152650160706    15.994914619560
           C         -1.083436714952     0.329454393303    -0.239238160706    12.000000000000
           C          0.163184285048    -0.536645606697    -0.200848160706    12.000000000000
           H         -1.075937714952     0.941315393303    -1.136973160706     1.007825032070
           H         -1.086737714952     0.995057393303     0.612472839294     1.007825032070
           O          1.272098285048     0.301218393303    -0.290704160706    15.994914619560
           H          0.151284285048    -1.247257606697    -1.029624160706     1.007825032070
           H          0.179324285048    -1.112967606697     0.722285839294     1.007825032070
           C          2.014953285048     0.403568393303     0.882680839294    12.000000000000
           H          2.412104285048    -0.562789606697     1.187725839294     1.007825032070
           H          2.839280285048     1.076036393303     0.689877839294     1.007825032070
           H          1.416111285048     0.803646393303     1.698228839294     1.007825032070

  Charge       = 0
  Multiplicity = 1
  Basis Set: 6-31G*
  Basis Set:

    Orbital Energies (a.u.)
    -----------------------

    Doubly Occupied:

       1A    -20.560463     2A    -20.558968     3A    -11.270888
       4A    -11.270378     5A    -11.267489     6A     -1.388868
       7A     -1.364339     8A     -1.015594     9A     -0.919780
      10A     -0.839398    11A     -0.708578    12A     -0.676890
      13A     -0.655912    14A     -0.637762    15A     -0.596441
      16A     -0.576084    17A     -0.529278    18A     -0.502723
      19A     -0.477149    20A     -0.456253    21A     -0.405273

  @DF-RHF Final Energy:  -267.94687879434815

   => Energetics <=

    Nuclear Repulsion Energy =            191.8420592532669389
    One-Electron Energy =                -746.2208663946520346
    Two-Electron Energy =                 286.4319283470371147
    DFT Exchange-Correlation Energy =       0.0000000000000000
    Empirical Dispersion Energy =           0.0000000000000000
    PCM Polarization Energy =               0.0000000000000000
    EFP Energy =                            0.0000000000000000
    Total Energy =                       -267.9468787943479811

  Mulliken Charges: (a.u.)
   Center  Symbol    Alpha    Beta     Spin     Total
       1     H     0.28117  0.28117  0.00000  0.43765
       2     O     4.37155  4.37155  0.00000 -0.74309
       3     C     3.00252  3.00252  0.00000 -0.00503
       4     C     3.00649  3.00649  0.00000 -0.01297
       5     H     0.42182  0.42182  0.00000  0.15637
       6     H     0.41473  0.41473  0.00000  0.17054
       7     O     4.30609  4.30609  0.00000 -0.61218
       8     H     0.42507  0.42507  0.00000  0.14987
       9     H     0.42186  0.42186  0.00000  0.15627
      10     C     3.08241  3.08241  0.00000 -0.16483
      11     H     0.42652  0.42652  0.00000  0.14696
      12     H     0.41116  0.41116  0.00000  0.17769
      13     H     0.42862  0.42862  0.00000  0.14276

   Total alpha = 21.00000, Total beta = 21.00000, Total charge =  0.00000
