                              Psi4 1.0.54 Driver

  ==> Input File <==

--------------------------------------------------------------------------
set {
	reference rhf
	basis cc-pvtz
}

set_num_threads( 4 )
memory 2 gb

molecule MOL {
0 1

H	 0.897186	 -2.167456	 -0.134298
C	 0.453585	 -1.459561	 0.556544
N	 0.526300	 -0.128137	 0.000000
H	 1.018353	 -1.503268	 1.479131
H	 -0.565385	 -1.793439	 0.763418
C	 -0.247113	 0.037112	 -1.209233
H	 0.239896	 0.541154	 0.680942
H	 -0.996493	 -0.743733	 -1.271440
H	 0.397975	 -0.057351	 -2.073512
H	 -0.763794	 0.997171	 -1.271673

	symmetry c1
}
set optking {
	frozen_dihedral = ("
		2 3 6 8
	")
}

ee,wfn = optimize('scf', return_wfn=True)
oeprop( wfn, 'DIPOLE', 'QUADRUPOLE', 'MULLIKEN_CHARGES')
f=open( 'psi4out.xyz', 'w' )
f.write( "10  " )
f.write( str(ee) + "\n" )
f.write( MOL.save_string_xyz() )
f.close()
--------------------------------------------------------------------------

    Molecular point group: c1
  Charge       = 0
  Multiplicity = 1
  Basis Set: CC-PVTZ
  Basis Set:
  @DF-RHF Final Energy:  -134.28899896349756
    Total Energy =                       -134.2889989634975905
    Molecular point group: c1
  Basis Set: CC-PVTZ
  Basis Set:
  Basis Set: CC-PVTZ
  Basis Set:
  @DF-RHF Final Energy:  -134.28968427382375
    Total Energy =                       -134.2896842738238092
  Basis Set: CC-PVTZ
  Basis Set:
  Basis Set: CC-PVTZ
  Basis Set:
  @DF-RHF Final Energy:  -134.28979912857420
    Total Energy =                       -134.2897991285741739
  Basis Set: CC-PVTZ
  Basis Set:
  Charge       = 0
  Multiplicity = 1
  Basis Set: CC-PVTZ
  Basis Set:

    Orbital Energies (a.u.)
    -----------------------

    Doubly Occupied:

       1A    -15.531380     2A    -11.234476     3A    -11.234161
       4A     -1.198496     5A     -0.948283     6A     -0.854823
       7A     -0.661090     8A     -0.612647     9A     -0.590680
      10A     -0.543032    11A     -0.509109    12A     -0.506058
      13A     -0.362645

  @DF-RHF Final Energy:  -134.28980091811223

   => Energetics <=

    Nuclear Repulsion Energy =             84.5716704724425057
    One-Electron Energy =                -348.1491830075153757
    Two-Electron Energy =                 129.2877116169605642
    DFT Exchange-Correlation Energy =       0.0000000000000000
    Empirical Dispersion Energy =           0.0000000000000000
    PCM Polarization Energy =               0.0000000000000000
    EFP Energy =                            0.0000000000000000
    Total Energy =                       -134.2898009181122916
    Molecular point group: c1
  Basis Set: CC-PVTZ
  Basis Set:

  -Total Gradient:
     Atom            X                  Y                   Z
    ------   -----------------  -----------------  -----------------
       1        0.000003376470     0.000021904269    -0.000006035947
       2       -0.002318442070     0.000895795164     0.001534473506
       3        0.003849636091    -0.001838907822    -0.002750571982
       4       -0.000000513905     0.000025130444    -0.000004420234
       5       -0.000006421547    -0.000004920507     0.000005878318
       6       -0.003975919813     0.003124735373     0.003117390087
       7        0.000053049154    -0.000030913838    -0.000015034707
       8        0.002440455284    -0.002203403509    -0.001879861873
       9       -0.000020913710     0.000024783946    -0.000012662975
      10       -0.000024305953    -0.000014203520     0.000010845808

  **** Optimization is complete! (in 4 steps) ****
    Final optimized geometry and variables:
    Molecular point group: c1

    Geometry (in Angstrom), charge = 0, multiplicity = 1:

    H            0.685644420736    -1.647325299662     0.107311891285
    C            0.239509481278    -0.929686185183     0.786659451665
    N            0.299023290007     0.394845944161     0.210850370759
    H            0.810158441657    -0.953997222428     1.706509335161
    H           -0.775856504328    -1.266289573919     1.003255761339
    C           -0.478037618658     0.553991604506    -1.005831180852
    H            0.002448577508     1.059915200236     0.889461522026
    H           -1.246007099896    -0.209800994248    -1.114233026641
    H            0.162011697260     0.478455007625    -1.879090757688
    H           -0.953020194663     1.526246041709    -1.033203399278

  Mulliken Charges: (a.u.)
   Center  Symbol    Alpha    Beta     Spin     Total
       1     H     0.45659  0.45659  0.00000  0.08683
       2     C     3.08337  3.08337  0.00000 -0.16674
       3     N     3.62934  3.62934  0.00000 -0.25868
       4     H     0.45293  0.45293  0.00000  0.09413
       5     H     0.47361  0.47361  0.00000  0.05277
       6     C     3.07655  3.07655  0.00000 -0.15309
       7     H     0.44119  0.44119  0.00000  0.11762
       8     H     0.47269  0.47269  0.00000  0.05462
       9     H     0.45624  0.45624  0.00000  0.08752
      10     H     0.45749  0.45749  0.00000  0.08502

   Total alpha = 13.00000, Total beta = 13.00000, Total charge =  0.00000

*** Psi4 exiting successfully. Buy a developer a beer!
