  ==> Input File <==

--------------------------------------------------------------------------
set {
	reference rhf
	basis cc-pvtz
}

set_num_threads( 4 )
memory 2 gb

molecule MOL {
0 1

H	 2.828711	 -0.346904	 0.001083
C	 1.876752	 0.015931	 -0.363450
C	 0.776285	 -0.474665	 0.563092
H	 1.728113	 -0.357244	 -1.367440
H	 1.906171	 1.096574	 -0.386153
N	 -0.540022	 0.017605	 0.071630
H	 0.707111	 -1.548969	 0.573035
H	 0.886169	 -0.084184	 1.560432
O	 -1.207505	 -0.742805	 -0.545168
O	 -0.818455	 1.145369	 0.306193

	symmetry c1
}
set optking {
	frozen_dihedral = ("
		9 6 3 2
	")
}

ee = optimize('scf')
oeprop('DIPOLE', 'QUADRUPOLE', 'MULLIKEN_CHARGES')
f=open( 'psi4out.xyz', 'w' )
f.write( "10  " )
f.write( str(ee) + "\n" )
f.write( MOL.save_string_xyz() )
f.close()
--------------------------------------------------------------------------

    Molecular point group: c1
  Charge       = 0
  Multiplicity = 1
  Basis Set: CC-PVTZ
  Basis Set:
  @DF-RHF Final Energy:  -282.81332297715511
    Total Energy =                       -282.8133229771551669
    Molecular point group: c1
  Basis Set: CC-PVTZ
  Basis Set:
  Basis Set: CC-PVTZ
  Basis Set:
  @DF-RHF Final Energy:  -282.81256585054871
    Total Energy =                       -282.8125658505486513
  Basis Set: CC-PVTZ
  Basis Set:
  Basis Set: CC-PVTZ
  Basis Set:
  @DF-RHF Final Energy:  -282.81333329693234
    Total Energy =                       -282.8133332969323419
  Basis Set: CC-PVTZ
  Basis Set:
  Charge       = 0
  Multiplicity = 1
  Basis Set: CC-PVTZ
  Basis Set:

    Orbital Energies (a.u.)
    -----------------------

    Doubly Occupied:

       1A    -20.592916     2A    -20.590922     3A    -15.838411
       4A    -11.301829     5A    -11.250679     6A     -1.637652
       7A     -1.422112     8A     -1.126478     9A     -0.966836
      10A     -0.839668    11A     -0.763614    12A     -0.739860
      13A     -0.730155    14A     -0.659504    15A     -0.590588
      16A     -0.560372    17A     -0.549313    18A     -0.488573
      19A     -0.479330    20A     -0.454906

  @DF-RHF Final Energy:  -282.81333844655501

   => Energetics <=

    Nuclear Repulsion Energy =            186.7670494348049886
    One-Electron Energy =                -755.9933362662987975
    Two-Electron Energy =                 286.4129483849386588
    DFT Exchange-Correlation Energy =       0.0000000000000000
    Empirical Dispersion Energy =           0.0000000000000000
    PCM Polarization Energy =               0.0000000000000000
    EFP Energy =                            0.0000000000000000
    Total Energy =                       -282.8133384465551217
    Molecular point group: c1
  Basis Set: CC-PVTZ
  Basis Set:

  -Total Gradient:
     Atom            X                  Y                   Z
    ------   -----------------  -----------------  -----------------
       1       -0.000012836176     0.000003342115     0.000007541006
       2        0.000028638144     0.000053028338     0.000000684259
       3       -0.000036701919    -0.000111279081    -0.000012377278
       4        0.000005023839     0.000002706925    -0.000022448083
       5       -0.000013299700    -0.000017569067     0.000020611365
       6        0.000067655354     0.000306922022    -0.000025583427
       7       -0.000003325791     0.000038663909    -0.000004463453
       8       -0.000007862788     0.000016962141     0.000025935392
       9       -0.000106382540    -0.000183995022    -0.000004491041
      10        0.000079091577    -0.000108782278     0.000014591258

  **** Optimization is complete! (in 4 steps) ****
    Final optimized geometry and variables:
    Molecular point group: c1

    Geometry (in Angstrom), charge = 0, multiplicity = 1:

    H            2.830308964356    -0.349547637814     0.000536037624
    C            1.879881561444     0.018136875804    -0.363235394547
    C            0.777716181191    -0.472410020367     0.560802516682
    H            1.732112537387    -0.352310659632    -1.368985891917
    H            1.911383407341     1.098082635432    -0.383415899227
    N           -0.540259553741     0.017406471296     0.070320632745
    H            0.708692170567    -1.545980002474     0.578734511050
    H            0.886430865145    -0.075917871798     1.556813088420
    O           -1.209725251264    -0.740795729380    -0.546519410603
    O           -0.819541345998     1.143598636009     0.312557882972

  Mulliken Charges: (a.u.)
   Center  Symbol    Alpha    Beta     Spin     Total
       1     H     0.44797  0.44797  0.00000  0.10406
       2     C     3.14086  3.14086  0.00000 -0.28173
       3     C     3.03745  3.03745  0.00000 -0.07491
       4     H     0.44248  0.44248  0.00000  0.11504
       5     H     0.43916  0.43916  0.00000  0.12168
       6     N     3.27664  3.27664  0.00000  0.44671
       7     H     0.43389  0.43389  0.00000  0.13222
       8     H     0.43577  0.43577  0.00000  0.12846
       9     O     4.17121  4.17121  0.00000 -0.34243
      10     O     4.17455  4.17455  0.00000 -0.34910

   Total alpha = 20.00000, Total beta = 20.00000, Total charge =  0.00000
