  ==> Input File <==

--------------------------------------------------------------------------
set {
	reference rhf
	basis cc-pvtz
}

set_num_threads( 4 )
memory 2 gb

molecule MOL {
0 1

H	 -1.577615	 2.338182	 0.375118
C	 -1.579010	 1.638605	 1.200230
C	 -0.278730	 0.851487	 1.250569
H	 -2.426683	 0.979819	 1.067317
H	 -1.717838	 2.194107	 2.120038
C	 0.000000	 0.039916	 0.000014
H	 -0.273700	 0.167431	 2.094926
H	 0.568015	 1.513970	 1.408779
C	 1.286532	 -0.763243	 0.000268
O	 -0.745117	 0.033662	 -0.924725
C	 2.547023	 0.087626	 -0.000114
H	 1.264245	 -1.421103	 -0.864380
H	 1.264290	 -1.420353	 0.865489
H	 2.584452	 0.725630	 -0.872909
H	 3.427035	 -0.544422	 0.000125
H	 2.584484	 0.726356	 0.872143

	symmetry c1
}
set optking {
	frozen_dihedral = ("
		3 6 9 12
	")
}

ee = optimize('scf')
oeprop('DIPOLE', 'QUADRUPOLE', 'MULLIKEN_CHARGES')
f=open( 'psi4out.xyz', 'w' )
f.write( "16  " )
f.write( str(ee) + "\n" )
f.write( MOL.save_string_xyz() )
f.close()
--------------------------------------------------------------------------

    Molecular point group: c1
  Charge       = 0
  Multiplicity = 1
  Basis Set: CC-PVTZ
  Basis Set:
  @DF-RHF Final Energy:  -270.12858063265315
    Total Energy =                       -270.1285806326529269
    Molecular point group: c1
  Basis Set: CC-PVTZ
  Basis Set:
  Basis Set: CC-PVTZ
  Basis Set:
  @DF-RHF Final Energy:  -270.12889101824948
    Total Energy =                       -270.1288910182495329
  Basis Set: CC-PVTZ
  Basis Set:
  Basis Set: CC-PVTZ
  Basis Set:
  @DF-RHF Final Energy:  -270.12916878889348
    Total Energy =                       -270.1291687888930255
  Basis Set: CC-PVTZ
  Basis Set:
  Basis Set: CC-PVTZ
  Basis Set:
  @DF-RHF Final Energy:  -270.12923531620356
    Total Energy =                       -270.1292353162037898
  Basis Set: CC-PVTZ
  Basis Set:
  Basis Set: CC-PVTZ
  Basis Set:
  @DF-RHF Final Energy:  -270.12924006615515
    Total Energy =                       -270.1292400661553188
  Basis Set: CC-PVTZ
  Basis Set:
  Charge       = 0
  Multiplicity = 1
  Basis Set: CC-PVTZ
  Basis Set:

    Orbital Energies (a.u.)
    -----------------------

    Doubly Occupied:

       1A    -20.538271     2A    -11.317092     3A    -11.231894
       4A    -11.230808     5A    -11.227389     6A    -11.211363
       7A     -1.397885     8A     -1.073168     9A     -1.036602
      10A     -0.910848    11A     -0.861048    12A     -0.726598
      13A     -0.664760    14A     -0.639771    15A     -0.632699
      16A     -0.607847    17A     -0.560865    18A     -0.543156
      19A     -0.534648    20A     -0.510782    21A     -0.505419
      22A     -0.496504    23A     -0.483629    24A     -0.398883

  @DF-RHF Final Energy:  -270.12924155629474

   => Energetics <=

    Nuclear Repulsion Energy =            240.8613172308420758
    One-Electron Energy =                -843.2972515717788156
    Two-Electron Energy =                 332.3066927846423368
    DFT Exchange-Correlation Energy =       0.0000000000000000
    Empirical Dispersion Energy =           0.0000000000000000
    PCM Polarization Energy =               0.0000000000000000
    EFP Energy =                            0.0000000000000000
    Total Energy =                       -270.1292415562943461
    Molecular point group: c1
  Basis Set: CC-PVTZ
  Basis Set:

  -Total Gradient:
     Atom            X                  Y                   Z
    ------   -----------------  -----------------  -----------------
       1        0.000008671553    -0.000001041062    -0.000003187140
       2       -0.000008786897    -0.000009142911     0.000044253964
       3        0.000262347889     0.000432913950    -0.000254991577
       4        0.000015654563     0.000000281381     0.000001182335
       5       -0.000011599501     0.000005385681     0.000001138486
       6       -0.000335945732    -0.000534898900     0.000221757226
       7       -0.000013846029     0.000006639745    -0.000021927504
       8        0.000001326359    -0.000001598272     0.000017215424
       9       -0.000235442949    -0.000325716242     0.000466721250
      10       -0.000044623908     0.000028876171    -0.000026164478
      11       -0.000008593427    -0.000030374597    -0.000049696306
      12        0.000327999737     0.000457289855    -0.000378266193
      13        0.000005747606    -0.000032791810    -0.000021080640
      14        0.000017499082     0.000000761684     0.000034874123
      15        0.000031369251     0.000010420340    -0.000004243700
      16       -0.000011777601    -0.000007005015    -0.000027585270

  **** Optimization is complete! (in 6 steps) ****
    Final optimized geometry and variables:
    Molecular point group: c1

    Geometry (in Angstrom), charge = 0, multiplicity = 1:

    H           -1.815427165956     1.996274955050     0.110328221542
    C           -1.814000082649     1.299391555551     0.937514766005
    C           -0.499505566021     0.537405663480     1.006162241668
    H           -2.647406745315     0.624338855952     0.796004681961
    H           -1.974631316307     1.854595602683     1.854009761527
    C           -0.194109714635    -0.273957276200    -0.238448934689
    H           -0.490377355355    -0.143549972733     1.853207721808
    H            0.328548274618     1.219302870542     1.172797825586
    C            1.073865146547    -1.108325788324    -0.236636997746
    O           -0.913433506583    -0.260640256799    -1.184239221149
    C            2.352601742645    -0.265621495652    -0.266583798487
    H            1.033359500137    -1.742661556234    -1.110883689657
    H            1.077907399328    -1.743352507647     0.643846146863
    H            2.355313792881     0.403362178498    -1.119093963259
    H            3.218802910173    -0.909951463006    -0.348036868115
    H            2.470155613130     0.329078525682     0.630461261785

  Mulliken Charges: (a.u.)
   Center  Symbol    Alpha    Beta     Spin     Total
       1     H     0.44732  0.44732  0.00000  0.10536
       2     C     3.14089  3.14089  0.00000 -0.28178
       3     C     3.10722  3.10722  0.00000 -0.21443
       4     H     0.44793  0.44793  0.00000  0.10414
       5     H     0.45096  0.45096  0.00000  0.09808
       6     C     2.86311  2.86311  0.00000  0.27378
       7     H     0.44587  0.44587  0.00000  0.10825
       8     H     0.44470  0.44470  0.00000  0.11061
       9     C     3.09429  3.09429  0.00000 -0.18859
      10     O     4.17311  4.17311  0.00000 -0.34622
      11     C     3.15514  3.15514  0.00000 -0.31028
      12     H     0.43697  0.43697  0.00000  0.12607
      13     H     0.45020  0.45020  0.00000  0.09960
      14     H     0.44613  0.44613  0.00000  0.10773
      15     H     0.44314  0.44314  0.00000  0.11371
      16     H     0.45301  0.45301  0.00000  0.09397

   Total alpha = 24.00000, Total beta = 24.00000, Total charge =  0.00000
