                              Psi4 1.0.54 Driver

  ==> Input File <==

--------------------------------------------------------------------------
set {
	reference rhf
	basis cc-pvtz
}

set_num_threads( 4 )
memory 2 gb

molecule MOL {
0 1

H	 1.880235	 1.696287	 -0.274680
O	 0.999744	 1.352324	 -0.287419
C	 1.050374	 0.054877	 0.000135
C	 -0.318151	 -0.570512	 0.000144
O	 2.069837	 -0.501100	 0.222738
C	 -1.454884	 0.441630	 -0.000560
H	 -0.371613	 -1.223646	 -0.864985
H	 -0.371920	 -1.222758	 0.865929
C	 -2.822577	 -0.232186	 0.000063
H	 -1.359760	 1.084704	 -0.867077
H	 -1.359641	 1.085996	 0.864983
H	 -2.954352	 -0.858985	 -0.875745
H	 -3.615886	 0.505352	 0.000019
H	 -2.953878	 -0.858359	 0.876394

	symmetry c1
}
set optking {
	frozen_dihedral = ("
		2 3 4 7
	")
}

ee,wfn = optimize('scf', return_wfn=True)
oeprop( wfn, 'DIPOLE', 'QUADRUPOLE', 'MULLIKEN_CHARGES')
f=open( 'psi4out.xyz', 'w' )
f.write( "14  " )
f.write( str(ee) + "\n" )
f.write( MOL.save_string_xyz() )
f.close()
--------------------------------------------------------------------------

    Molecular point group: c1
  Charge       = 0
  Multiplicity = 1
  Basis Set: CC-PVTZ
  Basis Set:
  @DF-RHF Final Energy:  -305.99718500948984
    Total Energy =                       -305.9971850094896695
    Molecular point group: c1
  Basis Set: CC-PVTZ
  Basis Set:
  Basis Set: CC-PVTZ
  Basis Set:
  @DF-RHF Final Energy:  -305.99801961877256
    Total Energy =                       -305.9980196187726165
  Basis Set: CC-PVTZ
  Basis Set:
  Basis Set: CC-PVTZ
  Basis Set:
  @DF-RHF Final Energy:  -305.99825091195305
    Total Energy =                       -305.9982509119531642
  Basis Set: CC-PVTZ
  Basis Set:
  Basis Set: CC-PVTZ
  Basis Set:
  @DF-RHF Final Energy:  -305.99834938386039
    Total Energy =                       -305.9983493838605000
  Basis Set: CC-PVTZ
  Basis Set:
  Basis Set: CC-PVTZ
  Basis Set:
  @DF-RHF Final Energy:  -305.99838416546970
    Total Energy =                       -305.9983841654695311
  Basis Set: CC-PVTZ
  Basis Set:
  Basis Set: CC-PVTZ
  Basis Set:
  @DF-RHF Final Energy:  -305.99838771813461
    Total Energy =                       -305.9983877181344951
  Basis Set: CC-PVTZ
  Basis Set:
  Charge       = 0
  Multiplicity = 1
  Basis Set: CC-PVTZ
  Basis Set:

    Orbital Energies (a.u.)
    -----------------------

    Doubly Occupied:

       1A    -20.607149     2A    -20.536656     3A    -11.374486
       4A    -11.240139     5A    -11.228399     6A    -11.217842
       7A     -1.479258     8A     -1.368068     9A     -1.086359
      10A     -0.979290    11A     -0.848475    12A     -0.821193
      13A     -0.703630    14A     -0.682204    15A     -0.668713
      16A     -0.619731    17A     -0.593164    18A     -0.565363
      19A     -0.550358    20A     -0.527439    21A     -0.497940
      22A     -0.493968    23A     -0.470772    24A     -0.439995

  @DF-RHF Final Energy:  -305.99838840098585

   => Energetics <=

    Nuclear Repulsion Energy =            240.8429574166048042
    One-Electron Energy =                -894.4815105727213904
    Two-Electron Energy =                 347.6401647551306269
    DFT Exchange-Correlation Energy =       0.0000000000000000
    Empirical Dispersion Energy =           0.0000000000000000
    PCM Polarization Energy =               0.0000000000000000
    EFP Energy =                            0.0000000000000000
    Total Energy =                       -305.9983884009859594
    Molecular point group: c1
  Basis Set: CC-PVTZ
  Basis Set:

  -Total Gradient:
     Atom            X                  Y                   Z
    ------   -----------------  -----------------  -----------------
       1        0.000049745847     0.000107488532    -0.000013453654
       2        0.000066072457    -0.000083867401     0.000536311060
       3       -0.000058838466    -0.000370058903    -0.000645141379
       4       -0.000236107699     0.000590817291    -0.000161574768
       5        0.000118657351     0.000230831628     0.000007364340
       6        0.000035864197    -0.000045123584    -0.000010528329
       7        0.000099881152    -0.000461281030     0.000299157066
       8       -0.000029771357    -0.000010891392    -0.000012789868
       9       -0.000040412123     0.000039951459     0.000006568458
      10        0.000012830853     0.000018030919     0.000006850847
      11       -0.000007781489    -0.000012241576    -0.000017292429
      12        0.000009852950     0.000008413318     0.000004094685
      13       -0.000019541081    -0.000008154981     0.000000684676
      14       -0.000000452591    -0.000003914281    -0.000000250705

  **** Optimization is complete! (in 7 steps) ****
    Final optimized geometry and variables:
    Molecular point group: c1

    Geometry (in Angstrom), charge = 0, multiplicity = 1:

    H            2.141023179719     1.419514045059    -0.134243431704
    O            1.224300072503     1.193662823963    -0.188504730965
    C            1.102768122632    -0.105729486516     0.053597071862
    C           -0.314172884251    -0.619674710098    -0.020933598502
    O            2.039441012239    -0.787940042059     0.292964277839
    C           -1.426982681901     0.422661989822    -0.036321882264
    H           -0.356743252109    -1.238286733272    -0.912364044881
    H           -0.427830225284    -1.299826161481     0.814149156362
    C           -2.806806175348    -0.224589400862    -0.087250612131
    H           -1.299204477467     1.080007089054    -0.887195943686
    H           -1.350345194843     1.047578783313     0.846388702738
    H           -2.923203131533    -0.832013145444    -0.978589709979
    H           -3.586341857718     0.527506721457    -0.095941092791
    H           -2.973964292137    -0.864748461424     0.772385689902

  Mulliken Charges: (a.u.)
   Center  Symbol    Alpha    Beta     Spin     Total
       1     H     0.38424  0.38424  0.00000  0.23152
       2     O     4.15091  4.15091  0.00000 -0.30182
       3     C     2.81195  2.81195  0.00000  0.37610
       4     C     3.09700  3.09700  0.00000 -0.19400
       5     O     4.19733  4.19733  0.00000 -0.39465
       6     C     3.08411  3.08411  0.00000 -0.16823
       7     H     0.43983  0.43983  0.00000  0.12034
       8     H     0.43555  0.43555  0.00000  0.12890
       9     C     3.15171  3.15171  0.00000 -0.30342
      10     H     0.44555  0.44555  0.00000  0.10890
      11     H     0.44770  0.44770  0.00000  0.10461
      12     H     0.45457  0.45457  0.00000  0.09086
      13     H     0.44541  0.44541  0.00000  0.10919
      14     H     0.45415  0.45415  0.00000  0.09170

   Total alpha = 24.00000, Total beta = 24.00000, Total charge = -0.00000

*** Psi4 exiting successfully. Buy a developer a beer!
