  ==> Input File <==

--------------------------------------------------------------------------
set {
	reference rhf
	basis 6-31G*
}

set_num_threads( 4 )
memory 2 gb

molecule MOL {
0 1

H	 -1.467600	 1.918897	 -0.477500
C	 -0.833519	 1.510513	 0.302567
N	 -0.528168	 0.128977	 -0.000000
H	 -1.381265	 1.566627	 1.236302
H	 0.048751	 2.151105	 0.383233
C	 0.248044	 -0.037491	 -1.209632
H	 -0.045912	 -0.287567	 0.771329
H	 0.998722	 0.743888	 -1.266824
H	 -0.398417	 0.061950	 -2.074060
H	 0.763621	 -0.999315	 -1.275517

	symmetry c1
}
set optking {
	frozen_dihedral = ("
		2 3 6 8
	")
}

ee = optimize('scf')
oeprop('DIPOLE', 'QUADRUPOLE', 'MULLIKEN_CHARGES')
f=open( 'psi4out.xyz', 'w' )
f.write( "10  " )
f.write( str(ee) + "\n" )
f.write( MOL.save_string_xyz() )
f.close()
--------------------------------------------------------------------------

    Molecular point group: c1
  Charge       = 0
  Multiplicity = 1
  Basis Set: 6-31G*
  Basis Set:
  @DF-RHF Final Energy:  -134.23661378748659
    Total Energy =                       -134.2366137874866467
    Molecular point group: c1
  Basis Set: 6-31G*
  Basis Set:
  Basis Set: 6-31G*
  Basis Set:
  @DF-RHF Final Energy:  -134.23769146413125
    Total Energy =                       -134.2376914641312737
  Basis Set: 6-31G*
  Basis Set:
  Basis Set: 6-31G*
  Basis Set:
  @DF-RHF Final Energy:  -134.23787824986084
    Total Energy =                       -134.2378782498608700
  Basis Set: 6-31G*
  Basis Set:
  Charge       = 0
  Multiplicity = 1
  Basis Set: 6-31G*
  Basis Set:

    Orbital Energies (a.u.)
    -----------------------

    Doubly Occupied:

       1A    -15.538400     2A    -11.236120     3A    -11.236009
       4A     -1.199512     5A     -0.947901     6A     -0.854166
       7A     -0.661241     8A     -0.613418     9A     -0.591588
      10A     -0.539742    11A     -0.509284    12A     -0.506340
      13A     -0.362466

  @DF-RHF Final Energy:  -134.23787983983516

   => Energetics <=

    Nuclear Repulsion Energy =             84.6293190303837406
    One-Electron Energy =                -348.1420207180553916
    Two-Electron Energy =                 129.2748218478365345
    DFT Exchange-Correlation Energy =       0.0000000000000000
    Empirical Dispersion Energy =           0.0000000000000000
    PCM Polarization Energy =               0.0000000000000000
    EFP Energy =                            0.0000000000000000
    Total Energy =                       -134.2378798398351307
    Molecular point group: c1
  Basis Set: 6-31G*
  Basis Set:

  -Total Gradient:
     Atom            X                  Y                   Z
    ------   -----------------  -----------------  -----------------
       1       -0.000030087904     0.000025389329    -0.000005573565
       2        0.002112606480     0.000084429404     0.001124008639
       3       -0.003399267608     0.000372469699    -0.002247573622
       4        0.000033111463    -0.000090154298    -0.000016564336
       5        0.000007093777     0.000017696987     0.000027210349
       6        0.003351877958    -0.002269322260     0.002641543666
       7       -0.000006518837    -0.000014806688    -0.000037344781
       8       -0.002044724138     0.001881687576    -0.001547062232
       9       -0.000006609037    -0.000009420718    -0.000002139349
      10       -0.000017482157     0.000002030969     0.000063495231

  **** Optimization is complete! (in 4 steps) ****
    Final optimized geometry and variables:
    Molecular point group: c1

    Geometry (in Angstrom), charge = 0, multiplicity = 1:

    H           -1.118560347782     1.372090181798    -0.167852010535
    C           -0.488382786926     0.956148258711     0.611737132627
    N           -0.174856573476    -0.421263617548     0.297998702490
    H           -1.043030106982     1.000465001486     1.541972442514
    H            0.392244187413     1.596902623165     0.703899713208
    C            0.610940367323    -0.572228819666    -0.910266754347
    H            0.315965912674    -0.829076774370     1.068448143181
    H            1.387346690841     0.188146233482    -1.022979268504
    H           -0.036511622955    -0.494671813210    -1.778715627546
    H            1.072791651712    -1.551934183887    -0.930730681396

  Mulliken Charges: (a.u.)
   Center  Symbol    Alpha    Beta     Spin     Total
       1     H     0.41796  0.41796  0.00000  0.16409
       2     C     3.14615  3.14615  0.00000 -0.29230
       3     N     3.83762  3.83762  0.00000 -0.67524
       4     H     0.41668  0.41668  0.00000  0.16663
       5     H     0.43415  0.43415  0.00000  0.13169
       6     C     3.14558  3.14558  0.00000 -0.29116
       7     H     0.33264  0.33264  0.00000  0.33472
       8     H     0.43363  0.43363  0.00000  0.13274
       9     H     0.41737  0.41737  0.00000  0.16527
      10     H     0.41822  0.41822  0.00000  0.16357

   Total alpha = 13.00000, Total beta = 13.00000, Total charge = -0.00000
