  ==> Input File <==

--------------------------------------------------------------------------
set {
	reference rhf
	basis 6-31G*
}

set_num_threads( 4 )
memory 2 gb

molecule MOL {
0 1

H	 0.656081	 -4.799533	 3.452689
C	 0.821549	 -4.119056	 2.623641
C	 -0.380172	 -3.197426	 2.420105
H	 1.721010	 -3.549327	 2.839526
H	 1.014836	 -4.718484	 1.738444
C	 -0.188700	 -2.224010	 1.261573
H	 -0.571932	 -2.626508	 3.323249
H	 -1.269068	 -3.799628	 2.239526
N	 -1.334563	 -1.347699	 1.118270
H	 0.683513	 -1.604979	 1.453950
H	 0.025346	 -2.783417	 0.344716
C	 -1.217365	 -0.386708	 0.039277
H	 -2.160849	 -1.899394	 0.984391
C	 -2.452633	 0.504241	 -0.042481
H	 -0.343453	 0.229263	 0.233743
H	 -1.047455	 -0.867148	 -0.930099
C	 -3.758029	 -0.289423	 -0.010781
H	 -2.394220	 1.093569	 -0.952170
H	 -2.440793	 1.210787	 0.785871
H	 -3.816659	 -0.981993	 -0.845726
H	 -4.617837	 0.370165	 -0.069296
H	 -3.847478	 -0.867502	 0.904682

	symmetry c1
}
set optking {
	frozen_dihedral = ("
		15 12 14 18
	")
}

ee = optimize('scf')
oeprop('DIPOLE', 'QUADRUPOLE', 'MULLIKEN_CHARGES')
f=open( 'psi4out.xyz', 'w' )
f.write( "22  " )
f.write( str(ee) + "\n" )
f.write( MOL.save_string_xyz() )
f.close()
--------------------------------------------------------------------------

    Molecular point group: c1
  Charge       = 0
  Multiplicity = 1
  Basis Set: 6-31G*
  Basis Set:
  @DF-RHF Final Energy:  -290.37973208390082
    Total Energy =                       -290.3797320839007625
    Molecular point group: c1
  Basis Set: 6-31G*
  Basis Set:
  Basis Set: 6-31G*
  Basis Set:
  @DF-RHF Final Energy:  -290.38027487137691
    Total Energy =                       -290.3802748713768551
  Basis Set: 6-31G*
  Basis Set:
  Basis Set: 6-31G*
  Basis Set:
  @DF-RHF Final Energy:  -290.38111645402665
    Total Energy =                       -290.3811164540265963
  Basis Set: 6-31G*
  Basis Set:
  Basis Set: 6-31G*
  Basis Set:
  @DF-RHF Final Energy:  -290.38118098673976
    Total Energy =                       -290.3811809867398210
  Basis Set: 6-31G*
  Basis Set:
  Basis Set: 6-31G*
  Basis Set:
  @DF-RHF Final Energy:  -290.38118724002055
    Total Energy =                       -290.3811872400203242
  Basis Set: 6-31G*
  Basis Set:
  Charge       = 0
  Multiplicity = 1
  Basis Set: 6-31G*
  Basis Set:

    Orbital Energies (a.u.)
    -----------------------

    Doubly Occupied:

       1A    -15.533188     2A    -11.238264     3A    -11.238035
       4A    -11.213717     5A    -11.213237     6A    -11.209847
       7A    -11.208764     8A     -1.205475     9A     -1.058285
      10A     -1.022701    11A     -0.928157    12A     -0.880343
      13A     -0.804833    14A     -0.786820    15A     -0.669643
      16A     -0.632853    17A     -0.623899    18A     -0.587779
      19A     -0.574603    20A     -0.571152    21A     -0.541938
      22A     -0.529115    23A     -0.504979    24A     -0.486316
      25A     -0.481115    26A     -0.472211    27A     -0.466820
      28A     -0.450609    29A     -0.358651

  @DF-RHF Final Energy:  -290.38118814467646

   => Energetics <=

    Nuclear Repulsion Energy =            317.8886677665235538
    One-Electron Energy =               -1021.5530109066764908
    Two-Electron Energy =                 413.2831549954765933
    DFT Exchange-Correlation Energy =       0.0000000000000000
    Empirical Dispersion Energy =           0.0000000000000000
    PCM Polarization Energy =               0.0000000000000000
    EFP Energy =                            0.0000000000000000
    Total Energy =                       -290.3811881446763437
    Molecular point group: c1
  Basis Set: 6-31G*
  Basis Set:

  -Total Gradient:
     Atom            X                  Y                   Z
    ------   -----------------  -----------------  -----------------
       1       -0.000002919685     0.000003678788     0.000000002959
       2        0.000004381476     0.000010914311    -0.000005950712
       3       -0.000020772941     0.000008634217    -0.000005033216
       4        0.000000850115    -0.000000984552    -0.000001982227
       5       -0.000001135502    -0.000001352430     0.000000600540
       6        0.000005826389     0.000035085952    -0.000012465750
       7       -0.000001413591    -0.000002685975     0.000002184217
       8       -0.000001185967     0.000000622108    -0.000000905352
       9       -0.000057495432    -0.000024941671     0.000004137253
      10        0.000014129402    -0.000000379962    -0.000000391211
      11       -0.000004711352    -0.000000317380    -0.000002026632
      12        0.000180874110    -0.000028491481    -0.004706975810
      13       -0.000011236317    -0.000009974506     0.000020294232
      14        0.002221573571     0.002875206019     0.003011895100
      15       -0.000462785467    -0.000390411021     0.003500616838
      16        0.000001202514     0.000007956377    -0.000018432734
      17        0.000006229036    -0.000023437573    -0.000018048862
      18       -0.001870821731    -0.002465217831    -0.001764911867
      19        0.000012471557     0.000021062616     0.000003322380
      20       -0.000022291561    -0.000008070726    -0.000010457955
      21        0.000010250068    -0.000001553560     0.000004689605
      22       -0.000001018696    -0.000005341724    -0.000000160795

  **** Optimization is complete! (in 6 steps) ****
    Final optimized geometry and variables:
    Molecular point group: c1

    Geometry (in Angstrom), charge = 0, multiplicity = 1:

    H            1.947196908421    -3.189153150105     2.412618024516
    C            2.104204078633    -2.494222665407     1.593963249536
    C            0.865443756116    -1.630613380931     1.360385818881
    H            2.967664063485    -1.883204355846     1.841432884559
    H            2.353300938030    -3.075761315608     0.710783950551
    C            1.044672225041    -0.637977150031     0.216312321614
    H            0.618314512784    -1.078289898684     2.261663286515
    H            0.013237041733    -2.274041170315     1.147527734193
    N           -0.137587394733     0.184773378103     0.047074558037
    H            1.881515372197     0.018295227082     0.439366005141
    H            1.310631546055    -1.178429783270    -0.698408165963
    C           -0.034324122144     1.147690431249    -1.034782829315
    H           -0.928794902827    -0.410140580891    -0.102977973647
    C           -1.225314540965     2.106747639644    -1.073471795707
    H            0.865838083177     1.725462153794    -0.848983044367
    H            0.084804086756     0.664841495989    -2.009653314721
    C           -2.591161046829     1.415588988529    -1.089054969113
    H           -1.143639068244     2.703565557164    -1.978890334581
    H           -1.171080692828     2.780438984516    -0.224508767238
    H           -2.663769659969     0.700506900392    -1.905497967625
    H           -3.385828611120     2.142949850348    -1.221223052648
    H           -2.784710954710     0.890442686654    -0.160024061790

  Mulliken Charges: (a.u.)
   Center  Symbol    Alpha    Beta     Spin     Total
       1     H     0.41772  0.41772  0.00000  0.16456
       2     C     3.24326  3.24326  0.00000 -0.48652
       3     C     3.15602  3.15602  0.00000 -0.31203
       4     H     0.42065  0.42065  0.00000  0.15869
       5     H     0.42162  0.42162  0.00000  0.15676
       6     C     3.04622  3.04622  0.00000 -0.09244
       7     H     0.41303  0.41303  0.00000  0.17394
       8     H     0.42673  0.42673  0.00000  0.14654
       9     N     3.85924  3.85924  0.00000 -0.71847
      10     H     0.42188  0.42188  0.00000  0.15625
      11     H     0.43636  0.43636  0.00000  0.12728
      12     C     3.05426  3.05426  0.00000 -0.10851
      13     H     0.33154  0.33154  0.00000  0.33692
      14     C     3.14879  3.14879  0.00000 -0.29758
      15     H     0.41992  0.41992  0.00000  0.16016
      16     H     0.43533  0.43533  0.00000  0.12934
      17     C     3.25012  3.25012  0.00000 -0.50025
      18     H     0.42360  0.42360  0.00000  0.15279
      19     H     0.41592  0.41592  0.00000  0.16816
      20     H     0.42451  0.42451  0.00000  0.15099
      21     H     0.41725  0.41725  0.00000  0.16549
      22     H     0.41603  0.41603  0.00000  0.16794

   Total alpha = 29.00000, Total beta = 29.00000, Total charge =  0.00000
