  ==> Input File <==

--------------------------------------------------------------------------
set {
	reference rhf
	basis cc-pvtz
}

set_num_threads( 4 )
memory 2 gb

molecule MOL {
0 1

H	 2.342730	 0.877684	 -1.045694
C	 2.360424	 0.000000	 -0.411793
C	 1.173749	 0.000000	 0.526870
H	 3.286567	 0.000000	 0.151574
H	 2.342730	 -0.877684	 -1.045694
O	 -0.000000	 0.000000	 -0.223739
H	 1.203779	 0.876757	 1.172538
H	 1.203779	 -0.876757	 1.172538
C	 -1.173749	 0.000000	 0.526870
C	 -2.309026	 -0.513585	 -0.331421
H	 -1.392380	 1.007804	 0.877616
H	 -1.053114	 -0.628734	 1.408137
H	 -2.442294	 0.117187	 -1.201385
H	 -3.234294	 -0.522329	 0.233315
H	 -2.102669	 -1.521081	 -0.670303

	symmetry c1
}
set optking {
	frozen_dihedral = ("
		11 9 6 3
	")
}

ee = optimize('scf')
oeprop('DIPOLE', 'QUADRUPOLE', 'MULLIKEN_CHARGES')
f=open( 'psi4out.xyz', 'w' )
f.write( "15  " )
f.write( str(ee) + "\n" )
f.write( MOL.save_string_xyz() )
f.close()
--------------------------------------------------------------------------

    Molecular point group: c1
  Charge       = 0
  Multiplicity = 1
  Basis Set: CC-PVTZ
  Basis Set:
  @DF-RHF Final Energy:  -232.23261352359597
    Total Energy =                       -232.2326135235957167
    Molecular point group: c1
  Basis Set: CC-PVTZ
  Basis Set:
  Basis Set: CC-PVTZ
  Basis Set:
  @DF-RHF Final Energy:  -232.23267014095600
    Total Energy =                       -232.2326701409561451
  Basis Set: CC-PVTZ
  Basis Set:
  Basis Set: CC-PVTZ
  Basis Set:
  @DF-RHF Final Energy:  -232.23268218449135
    Total Energy =                       -232.2326821844912388
  Basis Set: CC-PVTZ
  Basis Set:
  Charge       = 0
  Multiplicity = 1
  Basis Set: CC-PVTZ
  Basis Set:

    Orbital Energies (a.u.)
    -----------------------

    Doubly Occupied:

       1A    -20.544778     2A    -11.266424     3A    -11.266058
       4A    -11.207182     5A    -11.206965     6A     -1.380408
       7A     -1.044947     8A     -0.983335     9A     -0.847503
      10A     -0.825912    11A     -0.678609    12A     -0.668512
      13A     -0.614424    14A     -0.593197    15A     -0.549662
      16A     -0.532428    17A     -0.522733    18A     -0.494665
      19A     -0.487548    20A     -0.466353    21A     -0.412525

  @DF-RHF Final Energy:  -232.23268240952706

   => Energetics <=

    Nuclear Repulsion Energy =            191.2982995921453835
    One-Electron Energy =                -693.8736316855881796
    Two-Electron Energy =                 270.3426496839158517
    DFT Exchange-Correlation Energy =       0.0000000000000000
    Empirical Dispersion Energy =           0.0000000000000000
    PCM Polarization Energy =               0.0000000000000000
    EFP Energy =                            0.0000000000000000
    Total Energy =                       -232.2326824095269444
    Molecular point group: c1
  Basis Set: CC-PVTZ
  Basis Set:

  -Total Gradient:
     Atom            X                  Y                   Z
    ------   -----------------  -----------------  -----------------
       1       -0.000006988594    -0.000003486950     0.000007953247
       2        0.000004109557    -0.000010334478    -0.000000297532
       3        0.000006923394    -0.002019272929     0.000022083366
       4        0.000011951565    -0.000001808942    -0.000000399658
       5        0.000003562098     0.000002299393    -0.000002627379
       6       -0.000384495757     0.003030701331    -0.000567412185
       7       -0.000005583929    -0.000003509949    -0.000000818819
       8       -0.000007159457     0.000002832940    -0.000005802983
       9        0.001712686357    -0.001409095138     0.002655376901
      10       -0.000004178041     0.000013427793     0.000002388078
      11       -0.001315105100     0.000401025159    -0.002106098489
      12       -0.000001403161     0.000000551812     0.000001944546
      13       -0.000008139573    -0.000004317255    -0.000006150014
      14       -0.000010593028     0.000000482326    -0.000000932367
      15        0.000004413668     0.000000504886     0.000000793291

  **** Optimization is complete! (in 4 steps) ****
    Final optimized geometry and variables:
    Molecular point group: c1

    Geometry (in Angstrom), charge = 0, multiplicity = 1:

    H            2.323860965769     0.998003420014    -1.062523890499
    C            2.349974599938     0.116595562331    -0.434050674809
    C            1.168727282572     0.103503069472     0.511324410580
    H            3.279414394989     0.118321703360     0.124129262181
    H            2.333334509624    -0.757307136789    -1.073365687997
    O           -0.008822604963     0.091214928076    -0.233708748084
    H            1.196598233787     0.979553501336     1.158622095978
    H            1.209954210261    -0.774025799091     1.154612559204
    C           -1.186223883671     0.098999602347     0.513859520611
    C           -2.323588468928    -0.403959174158    -0.350495789444
    H           -1.404840411031     1.111833969694     0.848527843075
    H           -1.079315696603    -0.528423882854     1.396022252341
    H           -2.427268098570     0.213206929749    -1.234320507565
    H           -3.257404859451    -0.375336035960     0.199917567285
    H           -2.140158215352    -1.423049096435    -0.667723157362

  Mulliken Charges: (a.u.)
   Center  Symbol    Alpha    Beta     Spin     Total
       1     H     0.45148  0.45148  0.00000  0.09703
       2     C     3.13562  3.13562  0.00000 -0.27123
       3     C     2.96639  2.96639  0.00000  0.06722
       4     H     0.45897  0.45897  0.00000  0.08205
       5     H     0.45165  0.45165  0.00000  0.09671
       6     O     4.18012  4.18012  0.00000 -0.36024
       7     H     0.47411  0.47411  0.00000  0.05179
       8     H     0.47257  0.47257  0.00000  0.05486
       9     C     2.96828  2.96828  0.00000  0.06344
      10     C     3.13465  3.13465  0.00000 -0.26930
      11     H     0.46861  0.46861  0.00000  0.06278
      12     H     0.47430  0.47430  0.00000  0.05139
      13     H     0.45093  0.45093  0.00000  0.09814
      14     H     0.45923  0.45923  0.00000  0.08154
      15     H     0.45309  0.45309  0.00000  0.09382

   Total alpha = 21.00000, Total beta = 21.00000, Total charge =  0.00000
