                              Psi4 1.0.54 Driver

  ==> Input File <==

--------------------------------------------------------------------------
set {
	reference rhf
	basis cc-pvtz
}

set_num_threads( 4 )
memory 2 gb

molecule MOL {
0 1

H	 -3.454730	 -0.243629	 -1.116400
O	 -3.515113	 -0.019339	 -0.206321
C	 -2.302264	 0.528872	 0.237390
C	 -1.175688	 -0.398187	 -0.171891
H	 -2.148018	 1.514076	 -0.197759
H	 -2.310727	 0.646384	 1.319032
C	 0.196029	 0.106276	 0.266738
H	 -1.201873	 -0.515469	 -1.250677
H	 -1.365975	 -1.378728	 0.252664
C	 1.330220	 -0.826136	 -0.155230
H	 0.359542	 1.097229	 -0.145561
H	 0.212134	 0.218135	 1.348778
C	 2.719700	 -0.407669	 0.328325
H	 1.339388	 -0.911200	 -1.239363
H	 1.119001	 -1.821953	 0.224128
C	 3.241564	 0.893452	 -0.276737
H	 3.418299	 -1.204729	 0.093035
H	 2.711776	 -0.323368	 1.411960
H	 3.254204	 0.841071	 -1.360784
H	 2.634460	 1.745075	 0.005842
H	 4.254264	 1.092401	 0.054971

	symmetry c1
}
set optking {
	frozen_dihedral = ("
		1 2 3 5
	")
}

ee,wfn = optimize('scf', return_wfn=True)
oeprop( wfn, 'DIPOLE', 'QUADRUPOLE', 'MULLIKEN_CHARGES')
f=open( 'psi4out.xyz', 'w' )
f.write( "21  " )
f.write( str(ee) + "\n" )
f.write( MOL.save_string_xyz() )
f.close()
--------------------------------------------------------------------------

    Molecular point group: c1
  Charge       = 0
  Multiplicity = 1
  Basis Set: CC-PVTZ
  Basis Set:
  @DF-RHF Final Energy:  -310.33086613109379
    Total Energy =                       -310.3308661310934440
    Molecular point group: c1
  Basis Set: CC-PVTZ
  Basis Set:
  Basis Set: CC-PVTZ
  Basis Set:
  @DF-RHF Final Energy:  -310.33238461657919
    Total Energy =                       -310.3323846165790769
  Basis Set: CC-PVTZ
  Basis Set:
  Basis Set: CC-PVTZ
  Basis Set:
  @DF-RHF Final Energy:  -310.33272570786028
    Total Energy =                       -310.3327257078601065
  Basis Set: CC-PVTZ
  Basis Set:
  Charge       = 0
  Multiplicity = 1
  Basis Set: CC-PVTZ
  Basis Set:

    Orbital Energies (a.u.)
    -----------------------

    Doubly Occupied:

       1A    -20.544992     2A    -11.264479     3A    -11.217386
       4A    -11.215969     5A    -11.215889     6A    -11.215066
       7A    -11.208406     8A     -1.363254     9A     -1.090909
      10A     -1.036550    11A     -0.956658    12A     -0.880871
      13A     -0.821530    14A     -0.781964    15A     -0.691532
      16A     -0.645667    17A     -0.625416    18A     -0.618306
      19A     -0.592987    20A     -0.572288    21A     -0.552371
      22A     -0.524398    23A     -0.504854    24A     -0.503027
      25A     -0.479493    26A     -0.464561    27A     -0.459621
      28A     -0.458222    29A     -0.426180

  @DF-RHF Final Energy:  -310.33273038744079

   => Energetics <=

    Nuclear Repulsion Energy =            312.8119759882316089
    One-Electron Energy =               -1040.4237225421388757
    Two-Electron Energy =                 417.2790161664664765
    DFT Exchange-Correlation Energy =       0.0000000000000000
    Empirical Dispersion Energy =           0.0000000000000000
    PCM Polarization Energy =               0.0000000000000000
    EFP Energy =                            0.0000000000000000
    Total Energy =                       -310.3327303874408472
    Molecular point group: c1
  Basis Set: CC-PVTZ
  Basis Set:

  -Total Gradient:
     Atom            X                  Y                   Z
    ------   -----------------  -----------------  -----------------
       1        0.000308020786    -0.000680819305     0.000122162203
       2       -0.000259362274     0.001083455175     0.000114006371
       3        0.000507040874    -0.000549153875    -0.000661517220
       4        0.000043774750    -0.000047446054    -0.000054553429
       5       -0.000443350204     0.000214036539     0.000506112854
       6       -0.000129116244    -0.000009216935    -0.000007319358
       7       -0.000155286256    -0.000006503166    -0.000015625301
       8        0.000024242989    -0.000024940248    -0.000025640051
       9       -0.000026995571     0.000010974880     0.000006317266
      10       -0.000005082074     0.000007070523     0.000016399208
      11        0.000017419516    -0.000005242151     0.000016067918
      12        0.000027036710     0.000011509091    -0.000005434859
      13        0.000049485994    -0.000030462548    -0.000038854987
      14        0.000001857409     0.000001386836     0.000017210248
      15       -0.000011283280     0.000015927237    -0.000005880901
      16        0.000006692414    -0.000002584028     0.000016045935
      17        0.000046287203     0.000011107031     0.000015465766
      18       -0.000005785625     0.000002174339    -0.000018594217
      19       -0.000002863622    -0.000004398564     0.000004953213
      20        0.000006163929    -0.000001033313    -0.000000149068
      21        0.000001102576     0.000004158537    -0.000001171593

  **** Optimization is complete! (in 4 steps) ****
    Final optimized geometry and variables:
    Molecular point group: c1

    Geometry (in Angstrom), charge = 0, multiplicity = 1:

    H           -3.561597883143    -0.218091812721    -1.119748427672
    O           -3.565679961145    -0.038788292576    -0.196974338430
    C           -2.319550281387     0.468470848184     0.195786719585
    C           -1.160091998944    -0.427631451100    -0.207139290180
    H           -2.176765481830     1.471373173221    -0.201447400799
    H           -2.363173843479     0.557205841236     1.273820091825
    C            0.191201488325     0.101327711497     0.265249848984
    H           -1.149235303091    -0.528552404288    -1.291432898347
    H           -1.334230056771    -1.420534483803     0.195593070075
    C            1.357233740773    -0.795148435285    -0.147839278769
    H            0.337192499553     1.103133924755    -0.126255251381
    H            0.180351071401     0.194650824220     1.348738580868
    C            2.724566225904    -0.353015269009     0.376332769141
    H            1.394151986398    -0.858252849032    -1.233033825754
    H            1.161719131700    -1.803026602135     0.207223399471
    C            3.227608715456     0.972549088231    -0.190116708614
    H            3.447924161661    -1.127798437212     0.141703600404
    H            2.689365338668    -0.291294389580     1.460792490047
    H            3.265691759306     0.943164448077    -1.274446733452
    H            2.594067162753     1.803365671901     0.096140667099
    H            4.227492180065     1.188509187992     0.168421166391

  Mulliken Charges: (a.u.)
   Center  Symbol    Alpha    Beta     Spin     Total
       1     H     0.39479  0.39479  0.00000  0.21042
       2     O     4.20150  4.20150  0.00000 -0.40301
       3     C     2.96403  2.96403  0.00000  0.07193
       4     C     3.09626  3.09626  0.00000 -0.19252
       5     H     0.47231  0.47231  0.00000  0.05538
       6     H     0.45623  0.45623  0.00000  0.08753
       7     C     3.10258  3.10258  0.00000 -0.20516
       8     H     0.46273  0.46273  0.00000  0.07453
       9     H     0.44804  0.44804  0.00000  0.10393
      10     C     3.09430  3.09430  0.00000 -0.18861
      11     H     0.45257  0.45257  0.00000  0.09487
      12     H     0.45247  0.45247  0.00000  0.09507
      13     C     3.09034  3.09034  0.00000 -0.18067
      14     H     0.45383  0.45383  0.00000  0.09235
      15     H     0.44845  0.44845  0.00000  0.10310
      16     C     3.15255  3.15255  0.00000 -0.30510
      17     H     0.44816  0.44816  0.00000  0.10368
      18     H     0.45421  0.45421  0.00000  0.09157
      19     H     0.45497  0.45497  0.00000  0.09007
      20     H     0.45376  0.45376  0.00000  0.09247
      21     H     0.44592  0.44592  0.00000  0.10816

   Total alpha = 29.00000, Total beta = 29.00000, Total charge = -0.00000

*** Psi4 exiting successfully. Buy a developer a beer!
