  ==> Input File <==

--------------------------------------------------------------------------
set {
	reference rhf
	basis 6-31G*
}

set_num_threads( 1 )
memory 2 gb

molecule MOL {
0 1

H	 -3.420663	 1.227371	 -1.044276
O	 -3.452007	 0.283848	 -0.965577
C	 -3.181085	 -0.079926	 0.364119
C	 -1.765924	 0.277073	 0.805136
H	 -3.327791	 -1.152017	 0.410903
H	 -3.905698	 0.375695	 1.036898
C	 -1.651217	 1.673921	 1.416835
H	 -1.419356	 -0.467694	 1.522196
H	 -1.107609	 0.195539	 -0.058110
C	 -0.231818	 2.013324	 1.876499
H	 -2.336787	 1.753522	 2.254909
H	 -1.978639	 2.409547	 0.684002
C	 -0.123694	 3.415278	 2.482239
H	 0.092709	 1.269745	 2.600509
H	 0.451008	 1.934911	 1.031393
C	 1.296688	 3.835860	 2.876929
H	 -0.772323	 3.481173	 3.354382
H	 -0.509335	 4.135383	 1.763528
C	 1.906468	 3.021917	 4.019764
H	 1.277199	 4.883439	 3.167598
H	 1.944899	 3.775806	 2.004909
H	 1.272899	 3.053347	 4.902227
H	 2.878804	 3.416738	 4.298181
H	 2.044588	 1.980508	 3.748555

	symmetry c1
}
set optking {
	frozen_dihedral = ("
		20 16 13 17,
		17 13 10 7,
		13 10 7 11,
		11 7 4 3,
		1 2 3 5
	")
}

ee = energy('scf')
oeprop('DIPOLE', 'QUADRUPOLE', 'MULLIKEN_CHARGES')
f=open( 'psi4out.xyz', 'w' )
f.write( "24  " )
f.write( str(ee) + "\n" )
f.write( MOL.save_string_xyz() )
f.close()
--------------------------------------------------------------------------

    Molecular point group: c1

    Geometry (in Angstrom), charge = 0, multiplicity = 1:

       Center              X                  Y                   Z               Mass
    ------------   -----------------  -----------------  -----------------  -----------------
           H         -2.481061602494    -0.554878687319    -2.616610077950     1.007825032070
           O         -2.512405602494    -1.498401687319    -2.537911077950    15.994914619560
           C         -2.241483602494    -1.862175687319    -1.208215077950    12.000000000000
           C         -0.826322602494    -1.505176687319    -0.767198077950    12.000000000000
           H         -2.388189602494    -2.934266687319    -1.161431077950     1.007825032070
           H         -2.966096602494    -1.406554687319    -0.535436077950     1.007825032070
           C         -0.711615602494    -0.108328687319    -0.155499077950    12.000000000000
           H         -0.479754602494    -2.249943687319    -0.050138077950     1.007825032070
           H         -0.168007602494    -1.586710687319    -1.630444077950     1.007825032070
           C          0.707783397506     0.231074312681     0.304164922050    12.000000000000
           H         -1.397185602494    -0.028727687319     0.682574922050     1.007825032070
           H         -1.039037602494     0.627297312681    -0.888332077950     1.007825032070
           C          0.815907397506     1.633028312681     0.909904922050    12.000000000000
           H          1.032310397506    -0.512504687319     1.028174922050     1.007825032070
           H          1.390609397506     0.152661312681    -0.540941077950     1.007825032070
           C          2.236289397506     2.053610312681     1.304594922050    12.000000000000
           H          0.167278397506     1.698923312681     1.782047922050     1.007825032070
           H          0.430266397506     2.353133312681     0.191193922050     1.007825032070
           C          2.846069397506     1.239667312681     2.447429922050    12.000000000000
           H          2.216800397506     3.101189312681     1.595263922050     1.007825032070
           H          2.884500397506     1.993556312681     0.432574922050     1.007825032070
           H          2.212500397506     1.271097312681     3.329892922050     1.007825032070
           H          3.818405397506     1.634488312681     2.725846922050     1.007825032070
           H          2.984189397506     0.198258312681     2.176220922050     1.007825032070

  Charge       = 0
  Multiplicity = 1
  Basis Set: 6-31G*
  Basis Set:

    Orbital Energies (a.u.)
    -----------------------

    Doubly Occupied:

       1A    -20.551682     2A    -11.266122     3A    -11.221341
       4A    -11.217548     5A    -11.217340     6A    -11.216176
       7A    -11.215190     8A    -11.209909     9A     -1.358444
      10A     -1.093727    11A     -1.051681    12A     -0.987636
      13A     -0.917928    14A     -0.852934    15A     -0.801707
      16A     -0.780926    17A     -0.689393    18A     -0.656637
      19A     -0.623504    20A     -0.615872    21A     -0.597476
      22A     -0.587247    23A     -0.561957    24A     -0.535522
      25A     -0.532874    26A     -0.507713    27A     -0.493298
      28A     -0.486672    29A     -0.475962    30A     -0.463322
      31A     -0.458364    32A     -0.442647    33A     -0.423100

  @DF-RHF Final Energy:  -349.24437300486073

   => Energetics <=

    Nuclear Repulsion Energy =            382.8066382873453790
    One-Electron Energy =               -1231.8788556604317819
    Two-Electron Energy =                 499.8278443682254419
    DFT Exchange-Correlation Energy =       0.0000000000000000
    Empirical Dispersion Energy =           0.0000000000000000
    PCM Polarization Energy =               0.0000000000000000
    EFP Energy =                            0.0000000000000000
    Total Energy =                       -349.2443730048610178

  Mulliken Charges: (a.u.)
   Center  Symbol    Alpha    Beta     Spin     Total
       1     H     0.28257  0.28257  0.00000  0.43487
       2     O     4.36992  4.36992  0.00000 -0.73984
       3     C     2.99522  2.99522  0.00000  0.00956
       4     C     3.17126  3.17126  0.00000 -0.34252
       5     H     0.41432  0.41432  0.00000  0.17136
       6     H     0.43086  0.43086  0.00000  0.13827
       7     C     3.15641  3.15641  0.00000 -0.31282
       8     H     0.42160  0.42160  0.00000  0.15679
       9     H     0.41187  0.41187  0.00000  0.17625
      10     C     3.15343  3.15343  0.00000 -0.30687
      11     H     0.42128  0.42128  0.00000  0.15744
      12     H     0.43031  0.43031  0.00000  0.13939
      13     C     3.15258  3.15258  0.00000 -0.30516
      14     H     0.42031  0.42031  0.00000  0.15937
      15     H     0.42247  0.42247  0.00000  0.15506
      16     C     3.15252  3.15252  0.00000 -0.30504
      17     H     0.42417  0.42417  0.00000  0.15166
      18     H     0.42274  0.42274  0.00000  0.15451
      19     C     3.24135  3.24135  0.00000 -0.48270
      20     H     0.42073  0.42073  0.00000  0.15853
      21     H     0.42300  0.42300  0.00000  0.15400
      22     H     0.42227  0.42227  0.00000  0.15546
      23     H     0.41881  0.41881  0.00000  0.16238
      24     H     0.41998  0.41998  0.00000  0.16004

   Total alpha = 33.00000, Total beta = 33.00000, Total charge =  0.00000
