                              Psi4 1.0.54 Driver

  ==> Input File <==

--------------------------------------------------------------------------
set {
	reference rhf
	basis cc-pvtz
}

set_num_threads( 4 )
memory 2 gb

molecule MOL {
0 1

O	 -2.817697	 1.304178	 0.001046
C	 -2.664672	 0.129869	 0.003507
C	 -3.797908	 -0.860100	 -0.001145
O	 -1.481217	 -0.452708	 0.001092
H	 -4.408836	 -0.679689	 -0.875387
H	 -3.443486	 -1.878443	 -0.002770
H	 -4.412123	 -0.683688	 0.871605
C	 -0.332055	 0.384012	 -0.000250
C	 0.892252	 -0.506059	 -0.000295
H	 -0.360822	 1.020205	 -0.874146
H	 -0.359817	 1.021310	 0.872861
C	 2.188199	 0.299473	 -0.001416
H	 0.857046	 -1.152781	 -0.871031
H	 0.857910	 -1.151798	 0.871202
C	 3.437151	 -0.577593	 -0.000991
H	 2.209565	 0.950707	 -0.871712
H	 2.210062	 0.952234	 0.867721
C	 4.504568	 -0.096978	 0.976065
H	 3.853569	 -0.607964	 -1.003852
H	 3.157592	 -1.598399	 0.243731
H	 4.829881	 0.909770	 0.736326
H	 5.376351	 -0.740342	 0.951887
H	 4.128395	 -0.088032	 1.993546

	symmetry c1
}
set optking {
	frozen_dihedral = ("
		19 15 12 16
	")
}

ee,wfn = optimize('scf', return_wfn=True)
oeprop( wfn, 'DIPOLE', 'QUADRUPOLE', 'MULLIKEN_CHARGES')
f=open( 'psi4out.xyz', 'w' )
f.write( "23  " )
f.write( str(ee) + "\n" )
f.write( MOL.save_string_xyz() )
f.close()
--------------------------------------------------------------------------

    Molecular point group: c1
  Charge       = 0
  Multiplicity = 1
  Basis Set: CC-PVTZ
  Basis Set:
  @DF-RHF Final Energy:  -423.12988091629336
    Total Energy =                       -423.1298809162937005
    Molecular point group: c1
  Basis Set: CC-PVTZ
  Basis Set:
  Basis Set: CC-PVTZ
  Basis Set:
  @DF-RHF Final Energy:  -423.12999406695332
    Total Energy =                       -423.1299940669528041
  Basis Set: CC-PVTZ
  Basis Set:
  Basis Set: CC-PVTZ
  Basis Set:
  @DF-RHF Final Energy:  -423.13009582449035
    Total Energy =                       -423.1300958244903541
  Basis Set: CC-PVTZ
  Basis Set:
  Basis Set: CC-PVTZ
  Basis Set:
  @DF-RHF Final Energy:  -423.13024097275843
    Total Energy =                       -423.1302409727585427
  Basis Set: CC-PVTZ
  Basis Set:
  Basis Set: CC-PVTZ
  Basis Set:
  @DF-RHF Final Energy:  -423.13024211885573
    Total Energy =                       -423.1302421188557901
  Basis Set: CC-PVTZ
  Basis Set:
  Charge       = 0
  Multiplicity = 1
  Basis Set: CC-PVTZ
  Basis Set:

    Orbital Energies (a.u.)
    -----------------------

    Doubly Occupied:

       1A    -20.595911     2A    -20.529504     3A    -11.366378
       4A    -11.279201     5A    -11.230664     6A    -11.222489
       7A    -11.221267     8A    -11.219375     9A    -11.211096
      10A     -1.471132    11A     -1.363977    12A     -1.093811
      13A     -1.042346    14A     -1.004090    15A     -0.931227
      16A     -0.842975    17A     -0.802700    18A     -0.775980
      19A     -0.694336    20A     -0.688354    21A     -0.671957
      22A     -0.642855    23A     -0.610335    24A     -0.592085
      25A     -0.583777    26A     -0.571445    27A     -0.553827
      28A     -0.535858    29A     -0.526135    30A     -0.504343
      31A     -0.497468    32A     -0.475993    33A     -0.466705
      34A     -0.465276    35A     -0.455328    36A     -0.438661

  @DF-RHF Final Energy:  -423.13024225311591

   => Energetics <=

    Nuclear Repulsion Energy =            450.7508140335860958
    One-Electron Energy =               -1469.4043980253379686
    Two-Electron Energy =                 595.5233417386359633
    DFT Exchange-Correlation Energy =       0.0000000000000000
    Empirical Dispersion Energy =           0.0000000000000000
    PCM Polarization Energy =               0.0000000000000000
    EFP Energy =                            0.0000000000000000
    Total Energy =                       -423.1302422531159664
    Molecular point group: c1
  Basis Set: CC-PVTZ
  Basis Set:

  -Total Gradient:
     Atom            X                  Y                   Z
    ------   -----------------  -----------------  -----------------
       1       -0.000004231402     0.000002665081    -0.000015349185
       2        0.000019170227    -0.000010148755     0.000039603209
       3       -0.000001315055    -0.000000182647    -0.000003114709
       4       -0.000014287167     0.000006346858    -0.000026096976
       5       -0.000006364992    -0.000004900902    -0.000004940146
       6       -0.000001658381     0.000001814189    -0.000001063134
       7        0.000008568149     0.000004724804    -0.000005922492
       8        0.000001357386     0.000000187176     0.000036686647
       9        0.000001501580    -0.000016846722     0.000010108397
      10       -0.000007137130     0.000003323083    -0.000008082912
      11        0.000003847558    -0.000000970796    -0.000008206800
      12        0.002642152740     0.003759755089     0.002549640545
      13        0.000007334164    -0.000006939361     0.000003094886
      14       -0.000016504211     0.000001099085     0.000000310647
      15       -0.002894483534    -0.004152579258    -0.001443545138
      16       -0.001734885154    -0.002484902636    -0.001921212211
      17        0.000014549626    -0.000031936569    -0.000004074860
      18       -0.000007409978     0.000008984942     0.000018121617
      19        0.002004613705     0.002880953157     0.000780909475
      20       -0.000015393038     0.000035779978     0.000005549343
      21       -0.000003412561    -0.000001478551     0.000005530863
      22       -0.000008192057     0.000001894923    -0.000004669340
      23        0.000012179516     0.000003357837    -0.000003277728

  **** Optimization is complete! (in 6 steps) ****
    Final optimized geometry and variables:
    Molecular point group: c1

    Geometry (in Angstrom), charge = 0, multiplicity = 1:

    O           -2.802001859155     1.327666998640    -0.188616477207
    C           -2.643296887767     0.154128199391    -0.176832495691
    C           -3.771292740962    -0.841626327567    -0.205637760248
    O           -1.457539222633    -0.422171813152    -0.137129430523
    H           -4.358494458305    -0.670523809356    -1.097892999585
    H           -3.412050582354    -1.858192817042    -0.189930057301
    H           -4.410383255262    -0.661974808104     0.648461540650
    C           -0.313369596946     0.420464374335    -0.106742717335
    C            0.915110329594    -0.462478370928    -0.066020079503
    H           -0.318628947074     1.053556840595    -0.983472613286
    H           -0.370477418101     1.061321841371     0.762581872095
    C            2.208230891161     0.350463364895    -0.022245268991
    H            0.914230443350    -1.108777127589    -0.938198264472
    H            0.855935184405    -1.109880981298     0.803037664524
    C            3.470251828456    -0.530905089365    -0.037519907962
    H            2.219276582006     1.012963002969    -0.882210513702
    H            2.204816432825     0.979006989577     0.862570473028
    C            4.558074554907    -0.034654160010     0.912163420290
    H            3.884278205421    -0.550694771254    -1.039871553738
    H            3.212978368227    -1.552606222246     0.219676029022
    H            4.850930722723     0.982284261152     0.672505901407
    H            5.444177721423    -0.656349496009     0.853525759194
    H            4.213081232728    -0.043712858749     1.940745691059

  Mulliken Charges: (a.u.)
   Center  Symbol    Alpha    Beta     Spin     Total
       1     O     4.20243  4.20243  0.00000 -0.40486
       2     C     2.81501  2.81501  0.00000  0.36998
       3     C     3.13999  3.13999  0.00000 -0.27997
       4     O     4.14487  4.14487  0.00000 -0.28975
       5     H     0.44211  0.44211  0.00000  0.11578
       6     H     0.44189  0.44189  0.00000  0.11622
       7     H     0.44213  0.44213  0.00000  0.11574
       8     C     2.97916  2.97916  0.00000  0.04168
       9     C     3.08327  3.08327  0.00000 -0.16654
      10     H     0.45420  0.45420  0.00000  0.09160
      11     H     0.45421  0.45421  0.00000  0.09157
      12     C     3.10053  3.10053  0.00000 -0.20105
      13     H     0.44982  0.44982  0.00000  0.10037
      14     H     0.45097  0.45097  0.00000  0.09805
      15     C     3.08657  3.08657  0.00000 -0.17314
      16     H     0.45066  0.45066  0.00000  0.09869
      17     H     0.45203  0.45203  0.00000  0.09594
      18     C     3.14798  3.14798  0.00000 -0.29595
      19     H     0.45109  0.45109  0.00000  0.09781
      20     H     0.45304  0.45304  0.00000  0.09391
      21     H     0.45368  0.45368  0.00000  0.09265
      22     H     0.44885  0.44885  0.00000  0.10229
      23     H     0.45551  0.45551  0.00000  0.08897

   Total alpha = 36.00000, Total beta = 36.00000, Total charge =  0.00000

*** Psi4 exiting successfully. Buy a developer a beer!
