  ==> Input File <==

--------------------------------------------------------------------------
set {
	reference rhf
	basis 6-31G*
}

set_num_threads( 1 )
memory 2 gb

molecule MOL {
0 1

H	 -2.646374	 -0.642757	 1.268656
C	 -2.083525	 -0.384536	 0.393091
O	 -0.807605	 -0.127164	 0.768327
F	 -2.118945	 -1.383102	 -0.486752
F	 -2.621877	 0.670592	 -0.209486
C	 0.084052	 0.273579	 -0.209957
C	 -0.733925	 0.585062	 -1.456573
Cl	 1.269357	 -0.999594	 -0.543571
H	 0.626750	 1.159901	 0.068765
F	 0.051458	 0.988229	 -2.432673
F	 -1.575571	 1.560778	 -1.178995
F	 -1.421678	 -0.451750	 -1.868871

	symmetry c1
}
set optking {
	frozen_dihedral = ("
		10 7 6 9,
		6 3 2 4
	")
}

ee = energy('scf')
oeprop('DIPOLE', 'QUADRUPOLE', 'MULLIKEN_CHARGES')
f=open( 'psi4out.xyz', 'w' )
f.write( "12  " )
f.write( str(ee) + "\n" )
f.write( MOL.save_string_xyz() )
f.close()
--------------------------------------------------------------------------

    Molecular point group: c1

    Geometry (in Angstrom), charge = 0, multiplicity = 1:

       Center              X                  Y                   Z               Mass
    ------------   -----------------  -----------------  -----------------  -----------------
           H         -1.834295792638    -0.618458661784     2.018777953991     1.007825032070
           C         -1.271446792638    -0.360237661784     1.143212953991    12.000000000000
           O          0.004473207362    -0.102865661784     1.518448953991    15.994914619560
           F         -1.306866792638    -1.358803661784     0.263369953991    18.998403224000
           F         -1.809798792638     0.694890338216     0.540635953991    18.998403224000
           C          0.896130207362     0.297877338216     0.540164953991    12.000000000000
           C          0.078153207362     0.609360338216    -0.706451046009    12.000000000000
          CL          2.081435207362    -0.975295661784     0.206550953991    34.968852682000
           H          1.438828207362     1.184199338216     0.818886953991     1.007825032070
           F          0.863536207362     1.012527338216    -1.682551046009    18.998403224000
           F         -0.763492792638     1.585076338216    -0.428873046009    18.998403224000
           F         -0.609599792638    -0.427451661784    -1.118749046009    18.998403224000

  Charge       = 0
  Multiplicity = 1
  Basis Set: 6-31G*
  Basis Set:

    Orbital Energies (a.u.)
    -----------------------

    Doubly Occupied:

       1A   -104.843938     2A    -26.352644     3A    -26.338503
       4A    -26.325773     5A    -26.315514     6A    -26.312685
       7A    -20.645956     8A    -11.519940     9A    -11.478417
      10A    -11.401265    11A    -10.578753    12A     -8.048104
      13A     -8.044563    14A     -8.044477    15A     -1.776700
      16A     -1.704619    17A     -1.678550    18A     -1.642600
      19A     -1.604076    20A     -1.486346    21A     -1.177536
      22A     -1.040980    23A     -1.009872    24A     -0.905757
      25A     -0.892614    26A     -0.867604    27A     -0.850699
      28A     -0.806653    29A     -0.789875    30A     -0.772592
      31A     -0.741980    32A     -0.730238    33A     -0.692218
      34A     -0.690171    35A     -0.680014    36A     -0.668077
      37A     -0.663214    38A     -0.643446    39A     -0.624979
      40A     -0.579934    41A     -0.556071    42A     -0.528993
      43A     -0.521145    44A     -0.476892    45A     -0.468254

  @DF-RHF Final Energy: -1146.12798070843837

   => Energetics <=

    Nuclear Repulsion Energy =            802.9944378247706709
    One-Electron Energy =               -3189.1985333691873166
    Two-Electron Energy =                1240.0761148359783874
    DFT Exchange-Correlation Energy =       0.0000000000000000
    Empirical Dispersion Energy =           0.0000000000000000
    PCM Polarization Energy =               0.0000000000000000
    EFP Energy =                            0.0000000000000000
    Total Energy =                      -1146.1279807084383719

  Mulliken Charges: (a.u.)
   Center  Symbol    Alpha    Beta     Spin     Total
       1     H     0.39328  0.39328  0.00000  0.21344
       2     C     2.56042  2.56042  0.00000  0.87916
       3     O     4.31556  4.31556  0.00000 -0.63112
       4     F     4.68817  4.68817  0.00000 -0.37634
       5     F     4.68498  4.68498  0.00000 -0.36997
       6     C     3.00006  3.00006  0.00000 -0.00013
       7     C     2.47790  2.47790  0.00000  1.04420
       8    CL     8.50047  8.50047  0.00000 -0.00094
       9     H     0.36733  0.36733  0.00000  0.26533
      10     F     4.67524  4.67524  0.00000 -0.35048
      11     F     4.67214  4.67214  0.00000 -0.34428
      12     F     4.66444  4.66444  0.00000 -0.32888

   Total alpha = 45.00000, Total beta = 45.00000, Total charge =  0.00000
