  ==> Input File <==

--------------------------------------------------------------------------
set {
	reference rhf
	basis 6-31G*
}

set_num_threads( 1 )
memory 2 gb

molecule MOL {
0 1

H	 2.265791	 -1.587526	 2.671030
O	 1.950446	 -1.551965	 1.773228
C	 1.171372	 -0.477477	 1.651018
C	 0.624473	 -0.343591	 0.253101
O	 0.961761	 0.257168	 2.560619
C	 -0.265902	 0.883932	 0.072916
H	 1.475192	 -0.333228	 -0.420354
H	 0.081240	 -1.258699	 0.031227
C	 -1.728698	 0.646073	 0.462102
H	 -0.209144	 1.219470	 -0.958188
H	 0.135059	 1.692851	 0.673903
C	 -2.482460	 -0.343073	 -0.431425
H	 -2.245265	 1.602650	 0.432430
H	 -1.779332	 0.308348	 1.496285
C	 -3.960546	 -0.461025	 -0.060175
H	 -2.395034	 -0.026811	 -1.468912
H	 -2.024850	 -1.327147	 -0.371646
H	 -4.472726	 -1.168004	 -0.705284
H	 -4.465146	 0.496508	 -0.151489
H	 -4.081218	 -0.800940	 0.964585

	symmetry c1
}
set optking {
	frozen_dihedral = ("
		16 12 9 6,
		12 9 6 10,
		5 3 4 7,
		1 2 3 5
	")
}

ee = energy('scf')
oeprop('DIPOLE', 'QUADRUPOLE', 'MULLIKEN_CHARGES')
f=open( 'psi4out.xyz', 'w' )
f.write( "20  " )
f.write( str(ee) + "\n" )
f.write( MOL.save_string_xyz() )
f.close()
--------------------------------------------------------------------------

    Molecular point group: c1

    Geometry (in Angstrom), charge = 0, multiplicity = 1:

       Center              X                  Y                   Z               Mass
    ------------   -----------------  -----------------  -----------------  -----------------
           H          2.704910992759    -1.389015141856     1.853510534221     1.007825032070
           O          2.389565992759    -1.353454141856     0.955708534221    15.994914619560
           C          1.610491992759    -0.278966141856     0.833498534221    12.000000000000
           C          1.063592992759    -0.145080141856    -0.564418465779    12.000000000000
           O          1.400880992759     0.455678858144     1.743099534221    15.994914619560
           C          0.173217992759     1.082442858144    -0.744603465779    12.000000000000
           H          1.914311992759    -0.134717141856    -1.237873465779     1.007825032070
           H          0.520359992759    -1.060188141856    -0.786292465779     1.007825032070
           C         -1.289578007241     0.844583858144    -0.355417465779    12.000000000000
           H          0.229975992759     1.417980858144    -1.775707465779     1.007825032070
           H          0.574178992759     1.891361858144    -0.143616465779     1.007825032070
           C         -2.043340007241    -0.144562141856    -1.248944465779    12.000000000000
           H         -1.806145007241     1.801160858144    -0.385089465779     1.007825032070
           H         -1.340212007241     0.506858858144     0.678765534221     1.007825032070
           C         -3.521426007241    -0.262514141856    -0.877694465779    12.000000000000
           H         -1.955914007241     0.171699858144    -2.286431465779     1.007825032070
           H         -1.585730007241    -1.128636141856    -1.189165465779     1.007825032070
           H         -4.033606007241    -0.969493141856    -1.522803465779     1.007825032070
           H         -4.026026007241     0.695018858144    -0.969008465779     1.007825032070
           H         -3.642098007241    -0.602429141856     0.147065534221     1.007825032070

  Charge       = 0
  Multiplicity = 1
  Basis Set: 6-31G*
  Basis Set:

    Orbital Energies (a.u.)
    -----------------------

    Doubly Occupied:

       1A    -20.613245     2A    -20.552498     3A    -11.381598
       4A    -11.239292     5A    -11.221593     6A    -11.218276
       7A    -11.215324     8A    -11.210405     9A     -1.475352
      10A     -1.366599    11A     -1.094820    12A     -1.039025
      13A     -0.958369    14A     -0.869837    15A     -0.816214
      16A     -0.773318    17A     -0.701671    18A     -0.690256
      19A     -0.662531    20A     -0.634602    21A     -0.599827
      22A     -0.593713    23A     -0.574828    24A     -0.555409
      25A     -0.534508    26A     -0.510244    27A     -0.501047
      28A     -0.481646    29A     -0.465384    30A     -0.463601
      31A     -0.454352    32A     -0.443820

  @DF-RHF Final Energy:  -383.94664752680603

   => Energetics <=

    Nuclear Repulsion Energy =            383.1634774972502555
    One-Electron Energy =               -1282.3939555325291622
    Two-Electron Energy =                 515.2838305084736703
    DFT Exchange-Correlation Energy =       0.0000000000000000
    Empirical Dispersion Energy =           0.0000000000000000
    PCM Polarization Energy =               0.0000000000000000
    EFP Energy =                            0.0000000000000000
    Total Energy =                       -383.9466475268052363

  Mulliken Charges: (a.u.)
   Center  Symbol    Alpha    Beta     Spin     Total
       1     H     0.26783  0.26783  0.00000  0.46435
       2     O     4.35081  4.35081  0.00000 -0.70162
       3     C     2.62475  2.62475  0.00000  0.75050
       4     C     3.21394  3.21394  0.00000 -0.42788
       5     O     4.27942  4.27942  0.00000 -0.55884
       6     C     3.16046  3.16046  0.00000 -0.32092
       7     H     0.39537  0.39537  0.00000  0.20925
       8     H     0.39634  0.39634  0.00000  0.20733
       9     C     3.15708  3.15708  0.00000 -0.31416
      10     H     0.41835  0.41835  0.00000  0.16331
      11     H     0.40107  0.40107  0.00000  0.19787
      12     C     3.15454  3.15454  0.00000 -0.30908
      13     H     0.41932  0.41932  0.00000  0.16136
      14     H     0.41388  0.41388  0.00000  0.17224
      15     C     3.23881  3.23881  0.00000 -0.47762
      16     H     0.42326  0.42326  0.00000  0.15348
      17     H     0.42448  0.42448  0.00000  0.15105
      18     H     0.41912  0.41912  0.00000  0.16176
      19     H     0.42071  0.42071  0.00000  0.15858
      20     H     0.42048  0.42048  0.00000  0.15904

   Total alpha = 32.00000, Total beta = 32.00000, Total charge = -0.00000
