  ==> Input File <==

--------------------------------------------------------------------------
set {
	reference rhf
	basis 6-31G*
}

set_num_threads( 4 )
memory 2 gb

molecule MOL {
0 1

H	 -2.503778	 -0.545042	 0.663764
N	 -1.732901	 0.094659	 0.666892
C	 -0.563778	 -0.502042	 0.037919
H	 -1.542287	 0.313835	 1.626258
C	 0.575259	 0.508231	 -0.048326
H	 -0.847533	 -0.807206	 -0.964854
H	 -0.211206	 -1.400815	 0.550408
C	 1.954651	 -0.143624	 0.035137
H	 0.475158	 1.060484	 -0.977307
H	 0.469181	 1.234488	 0.755973
H	 2.103292	 -0.853109	 -0.774172
H	 2.742821	 0.599562	 -0.030094
H	 2.083613	 -0.679371	 0.971560

	symmetry c1
}
set optking {
	frozen_dihedral = ("
		6 3 5 9
	")
}

ee = optimize('scf')
oeprop('DIPOLE', 'QUADRUPOLE', 'MULLIKEN_CHARGES')
f=open( 'psi4out.xyz', 'w' )
f.write( "13  " )
f.write( str(ee) + "\n" )
f.write( MOL.save_string_xyz() )
f.close()
--------------------------------------------------------------------------

    Molecular point group: c1
  Charge       = 0
  Multiplicity = 1
  Basis Set: 6-31G*
  Basis Set:
  @DF-RHF Final Energy:  -173.27871471946398
    Total Energy =                       -173.2787147194639488
    Molecular point group: c1
  Basis Set: 6-31G*
  Basis Set:
  Basis Set: 6-31G*
  Basis Set:
  @DF-RHF Final Energy:  -173.27903641583211
    Total Energy =                       -173.2790364158321097
  Basis Set: 6-31G*
  Basis Set:
  Basis Set: 6-31G*
  Basis Set:
  @DF-RHF Final Energy:  -173.27912921896529
    Total Energy =                       -173.2791292189653518
  Basis Set: 6-31G*
  Basis Set:
  Basis Set: 6-31G*
  Basis Set:
  @DF-RHF Final Energy:  -173.27913033501079
    Total Energy =                       -173.2791303350108763
  Basis Set: 6-31G*
  Basis Set:
  Charge       = 0
  Multiplicity = 1
  Basis Set: 6-31G*
  Basis Set:

    Orbital Energies (a.u.)
    -----------------------

    Doubly Occupied:

       1A    -15.532453     2A    -11.240428     3A    -11.212203
       4A    -11.208802     5A     -1.175845     6A     -1.033678
       7A     -0.897854     8A     -0.799351     9A     -0.666804
      10A     -0.618517    11A     -0.606914    12A     -0.566090
      13A     -0.532952    14A     -0.489623    15A     -0.477821
      16A     -0.466729    17A     -0.380881

  @DF-RHF Final Energy:  -173.27913052671570

   => Energetics <=

    Nuclear Repulsion Energy =            131.7138009725572090
    One-Electron Energy =                -494.1719716375940834
    Two-Electron Energy =                 189.1790401383212554
    DFT Exchange-Correlation Energy =       0.0000000000000000
    Empirical Dispersion Energy =           0.0000000000000000
    PCM Polarization Energy =               0.0000000000000000
    EFP Energy =                            0.0000000000000000
    Total Energy =                       -173.2791305267155906
    Molecular point group: c1
  Basis Set: 6-31G*
  Basis Set:

  -Total Gradient:
     Atom            X                  Y                   Z
    ------   -----------------  -----------------  -----------------
       1       -0.000000046122     0.000009854521     0.000004286394
       2        0.000010343425    -0.000025000712     0.000002093311
       3        0.004691899579    -0.005227471561    -0.000292829273
       4        0.000004536910    -0.000009283453    -0.000018828776
       5       -0.004233983067     0.004916324198     0.002739450878
       6       -0.003288723496     0.003640356067    -0.000185647080
       7        0.000004652216     0.000026789417    -0.000008790675
       8        0.000000223574     0.000002162060     0.000020072727
       9        0.002803110218    -0.003319990044    -0.002262818264
      10       -0.000001765502    -0.000015828078     0.000006448743
      11       -0.000010647271    -0.000007219472    -0.000000857059
      12        0.000006667056     0.000001858702    -0.000003079547
      13        0.000013732479     0.000007448355     0.000000498622

  **** Optimization is complete! (in 5 steps) ****
    Final optimized geometry and variables:
    Molecular point group: c1

    Geometry (in Angstrom), charge = 0, multiplicity = 1:

    H           -2.560110662857    -0.514636489075     0.414987741985
    N           -1.784592322732     0.118730395519     0.448581963354
    C           -0.594027375587    -0.488371463591    -0.134358624471
    H           -1.631049092252     0.339183682080     1.414263857482
    C            0.544147015727     0.536695376030    -0.214448485024
    H           -0.873121921848    -0.796089091913    -1.136530966253
    H           -0.260126196001    -1.376803831269     0.404981757838
    C            1.927976687008    -0.114994895505    -0.178656012085
    H            0.453995796456     1.096065314881    -1.140120151480
    H            0.452614079288     1.246178397277     0.602686986282
    H            2.044348336269    -0.834513544420    -0.984934139411
    H            2.713807879007     0.626243769441    -0.285013057551
    H            2.093221381329    -0.641469936302     0.757336073831

  Mulliken Charges: (a.u.)
   Center  Symbol    Alpha    Beta     Spin     Total
       1     H     0.33319  0.33319  0.00000  0.33362
       2     N     3.92205  3.92205  0.00000 -0.84411
       3     C     3.06235  3.06235  0.00000 -0.12471
       4     H     0.33577  0.33577  0.00000  0.32845
       5     C     3.15023  3.15023  0.00000 -0.30046
       6     H     0.41904  0.41904  0.00000  0.16192
       7     H     0.43263  0.43263  0.00000  0.13474
       8     C     3.24459  3.24459  0.00000 -0.48918
       9     H     0.41589  0.41589  0.00000  0.16823
      10     H     0.42069  0.42069  0.00000  0.15863
      11     H     0.42204  0.42204  0.00000  0.15593
      12     H     0.41873  0.41873  0.00000  0.16255
      13     H     0.42280  0.42280  0.00000  0.15439

   Total alpha = 17.00000, Total beta = 17.00000, Total charge = -0.00000
