                              Psi4 1.0.54 Driver

  ==> Input File <==

--------------------------------------------------------------------------
set {
	reference rhf
	basis cc-pvtz
}

set_num_threads( 4 )
memory 2 gb

molecule MOL {
0 1

O	 -2.081319	 -0.951530	 -0.502732
N	 -1.613558	 0.006676	 0.014756
C	 -0.329345	 -0.171618	 0.743966
O	 -2.068523	 1.100482	 -0.024385
C	 0.835904	 0.041968	 -0.213982
H	 -0.346048	 -1.174374	 1.137184
H	 -0.333613	 0.555559	 1.538590
C	 2.177039	 -0.130175	 0.494460
H	 0.754456	 -0.665923	 -1.030569
H	 0.765464	 1.037260	 -0.637266
C	 2.459640	 -1.583049	 0.860211
H	 2.190889	 0.478317	 1.393895
H	 2.972725	 0.243307	 -0.143351
H	 1.697534	 -1.973946	 1.525111
H	 2.482911	 -2.211048	 -0.023414
H	 3.416051	 -1.677479	 1.359733

	symmetry c1
}
set optking {
	frozen_dihedral = ("
		11 8 5 9
	")
}

ee,wfn = optimize('scf', return_wfn=True)
oeprop( wfn, 'DIPOLE', 'QUADRUPOLE', 'MULLIKEN_CHARGES')
f=open( 'psi4out.xyz', 'w' )
f.write( "16  " )
f.write( str(ee) + "\n" )
f.write( MOL.save_string_xyz() )
f.close()
--------------------------------------------------------------------------

    Molecular point group: c1
  Charge       = 0
  Multiplicity = 1
  Basis Set: CC-PVTZ
  Basis Set:
  @DF-RHF Final Energy:  -360.90733800040493
    Total Energy =                       -360.9073380004051614
    Molecular point group: c1
  Basis Set: CC-PVTZ
  Basis Set:
  Basis Set: CC-PVTZ
  Basis Set:
  @DF-RHF Final Energy:  -360.90768955123849
    Total Energy =                       -360.9076895512387182
  Basis Set: CC-PVTZ
  Basis Set:
  Basis Set: CC-PVTZ
  Basis Set:
  @DF-RHF Final Energy:  -360.90737960484239
    Total Energy =                       -360.9073796048423901
  Basis Set: CC-PVTZ
  Basis Set:
  Basis Set: CC-PVTZ
  Basis Set:
  @DF-RHF Final Energy:  -360.90777682520076
    Total Energy =                       -360.9077768252009832
  Basis Set: CC-PVTZ
  Basis Set:
  Basis Set: CC-PVTZ
  Basis Set:
  @DF-RHF Final Energy:  -360.90756602980071
    Total Energy =                       -360.9075660298004777
  Basis Set: CC-PVTZ
  Basis Set:
  Basis Set: CC-PVTZ
  Basis Set:
  @DF-RHF Final Energy:  -360.90784614299150
    Total Energy =                       -360.9078461429913887
  Basis Set: CC-PVTZ
  Basis Set:
  Charge       = 0
  Multiplicity = 1
  Basis Set: CC-PVTZ
  Basis Set:

    Orbital Energies (a.u.)
    -----------------------

    Doubly Occupied:

       1A    -20.589532     2A    -20.589362     3A    -15.836011
       4A    -11.295742     5A    -11.251032     6A    -11.242044
       7A    -11.227762     8A     -1.635031     9A     -1.419226
      10A     -1.136461    11A     -1.058371    12A     -0.951085
      13A     -0.852150    14A     -0.821017    15A     -0.761105
      16A     -0.737477    17A     -0.725682    18A     -0.667593
      19A     -0.631006    20A     -0.603464    21A     -0.571574
      22A     -0.549351    23A     -0.513458    24A     -0.501290
      25A     -0.496105    26A     -0.485173    27A     -0.470962
      28A     -0.451895

  @DF-RHF Final Energy:  -360.90784682546644

   => Energetics <=

    Nuclear Repulsion Energy =            316.1042252135684976
    One-Electron Energy =               -1117.8822238521729560
    Two-Electron Energy =                 440.8701518131385342
    DFT Exchange-Correlation Energy =       0.0000000000000000
    Empirical Dispersion Energy =           0.0000000000000000
    PCM Polarization Energy =               0.0000000000000000
    EFP Energy =                            0.0000000000000000
    Total Energy =                       -360.9078468254659242
    Molecular point group: c1
  Basis Set: CC-PVTZ
  Basis Set:

  -Total Gradient:
     Atom            X                  Y                   Z
    ------   -----------------  -----------------  -----------------
       1       -0.000097910191     0.000199383040    -0.000020278516
       2        0.000161674722    -0.000132468322     0.000121221315
       3        0.000015463736     0.000009941741     0.000018823343
       4       -0.000133675999    -0.000048895537    -0.000128991257
       5        0.000621939761     0.000750418697    -0.000990365124
       6        0.000034476915     0.000004245478    -0.000000146516
       7       -0.000002417248    -0.000005868112     0.000025397685
       8       -0.000544678725    -0.000016022121     0.001001758277
       9       -0.000375780806    -0.000666118359     0.000580643666
      10        0.000009840328    -0.000021412732     0.000017352614
      11        0.000291541974    -0.000093476582    -0.000613686867
      12       -0.000005248099    -0.000018210840     0.000004663626
      13        0.000029603248     0.000017931524    -0.000006122494
      14       -0.000005067172    -0.000001427979    -0.000003765143
      15       -0.000002621540     0.000010822201     0.000001557933
      16        0.000002859088     0.000011157900    -0.000008062544

  **** Optimization is complete! (in 7 steps) ****
    Final optimized geometry and variables:
    Molecular point group: c1

    Geometry (in Angstrom), charge = 0, multiplicity = 1:

    O           -1.964721239053    -0.666778308731    -0.741409841435
    N           -1.491704262397     0.267705342561    -0.186349276865
    C           -0.221612528610     0.047715940913     0.556472355132
    O           -1.931711280435     1.368265306250    -0.197633157870
    C            0.958002277210     0.259228945544    -0.387832681152
    H           -0.271701261970    -0.959424203455     0.932033764707
    H           -0.219571699831     0.762490361589     1.362456638423
    C            2.305741145027     0.085203838047     0.315173556358
    H            0.875017943125    -0.443266099327    -1.208974097108
    H            0.889113885044     1.258230284421    -0.799957775521
    C            2.641653914202    -1.355509417164     0.691666559822
    H            2.338633582517     0.715744445094     1.198878067917
    H            3.075322400884     0.459770334748    -0.350299878544
    H            1.943343044885    -1.765029106347     1.412577986067
    H            2.629728511927    -1.997518035529    -0.182106847557
    H            3.629734785810    -1.413126758528     1.131651629738

  Mulliken Charges: (a.u.)
   Center  Symbol    Alpha    Beta     Spin     Total
       1     O     4.17402  4.17402  0.00000 -0.34804
       2     N     3.27507  3.27507  0.00000  0.44986
       3     C     3.04206  3.04206  0.00000 -0.08413
       4     O     4.17381  4.17381  0.00000 -0.34762
       5     C     3.10847  3.10847  0.00000 -0.21693
       6     H     0.43378  0.43378  0.00000  0.13244
       7     H     0.43410  0.43410  0.00000  0.13179
       8     C     3.09830  3.09830  0.00000 -0.19660
       9     H     0.43765  0.43765  0.00000  0.12471
      10     H     0.43151  0.43151  0.00000  0.13697
      11     C     3.15008  3.15008  0.00000 -0.30016
      12     H     0.45013  0.45013  0.00000  0.09974
      13     H     0.44231  0.44231  0.00000  0.11539
      14     H     0.45559  0.45559  0.00000  0.08883
      15     H     0.45010  0.45010  0.00000  0.09980
      16     H     0.44302  0.44302  0.00000  0.11396

   Total alpha = 28.00000, Total beta = 28.00000, Total charge = -0.00000

*** Psi4 exiting successfully. Buy a developer a beer!
