  ==> Input File <==

--------------------------------------------------------------------------
set {
	reference rhf
	basis cc-pvtz
}

set_num_threads( 4 )
memory 2 gb

molecule MOL {
0 1

H	 1.128311	 0.207724	 1.465118
C	 1.134565	 0.093781	 0.372499
C	 0.062554	 0.862911	 -0.350953
O	 1.948932	 -0.587720	 -0.146651
C	 -0.445908	 2.063635	 0.453002
H	 -0.741391	 0.182378	 -0.600032
H	 0.504109	 1.215726	 -1.280267
C	 -1.205315	 1.670289	 1.716818
H	 -1.090176	 2.655890	 -0.186315
H	 0.392632	 2.703547	 0.713405
H	 -2.069762	 1.061548	 1.476564
H	 -1.552874	 2.549180	 2.246340
H	 -0.583315	 1.099645	 2.397639

	symmetry c1
}
set optking {
	frozen_dihedral = ("
		6 3 2 4
	")
}

ee = optimize('scf')
oeprop('DIPOLE', 'QUADRUPOLE', 'MULLIKEN_CHARGES')
f=open( 'psi4out.xyz', 'w' )
f.write( "13  " )
f.write( str(ee) + "\n" )
f.write( MOL.save_string_xyz() )
f.close()
--------------------------------------------------------------------------

    Molecular point group: c1
  Charge       = 0
  Multiplicity = 1
  Basis Set: CC-PVTZ
  Basis Set:
  @DF-RHF Final Energy:  -231.06740828424697
    Total Energy =                       -231.0674082842469659
    Molecular point group: c1
  Basis Set: CC-PVTZ
  Basis Set:
  Basis Set: CC-PVTZ
  Basis Set:
  @DF-RHF Final Energy:  -231.06829643883347
    Total Energy =                       -231.0682964388333858
  Basis Set: CC-PVTZ
  Basis Set:
  Basis Set: CC-PVTZ
  Basis Set:
  @DF-RHF Final Energy:  -231.06847097553486
    Total Energy =                       -231.0684709755347797
  Basis Set: CC-PVTZ
  Basis Set:
  Basis Set: CC-PVTZ
  Basis Set:
  @DF-RHF Final Energy:  -231.06848602466567
    Total Energy =                       -231.0684860246654182
  Basis Set: CC-PVTZ
  Basis Set:
  Basis Set: CC-PVTZ
  Basis Set:
  @DF-RHF Final Energy:  -231.06856516615730
    Total Energy =                       -231.0685651661571853
  Basis Set: CC-PVTZ
  Basis Set:
  Basis Set: CC-PVTZ
  Basis Set:
  @DF-RHF Final Energy:  -231.06858191630528
    Total Energy =                       -231.0685819163052201
  Basis Set: CC-PVTZ
  Basis Set:
  Charge       = 0
  Multiplicity = 1
  Basis Set: CC-PVTZ
  Basis Set:

    Orbital Energies (a.u.)
    -----------------------

    Doubly Occupied:

       1A    -20.551305     2A    -11.322235     3A    -11.235898
       4A    -11.234714     5A    -11.223664     6A     -1.406871
       7A     -1.088073     8A     -0.974191     9A     -0.850726
      10A     -0.791701    11A     -0.670642    12A     -0.653203
      13A     -0.616979    14A     -0.596109    15A     -0.582248
      16A     -0.528142    17A     -0.508602    18A     -0.494363
      19A     -0.486169    20A     -0.411748

  @DF-RHF Final Energy:  -231.06858132424185

   => Energetics <=

    Nuclear Repulsion Energy =            172.2872936931068466
    One-Electron Energy =                -654.2565869648578882
    Two-Electron Energy =                 250.9007119475091372
    DFT Exchange-Correlation Energy =       0.0000000000000000
    Empirical Dispersion Energy =           0.0000000000000000
    PCM Polarization Energy =               0.0000000000000000
    EFP Energy =                            0.0000000000000000
    Total Energy =                       -231.0685813242419044
    Molecular point group: c1
  Basis Set: CC-PVTZ
  Basis Set:

  -Total Gradient:
     Atom            X                  Y                   Z
    ------   -----------------  -----------------  -----------------
       1       -0.000104698163     0.000067234648     0.000029373677
       2        0.000172271488     0.000456828398    -0.000310976119
       3       -0.000613624299    -0.000530674596     0.000746988530
       4       -0.000075598306    -0.000220926320    -0.000004235484
       5        0.000355746809     0.000187779315    -0.000033923115
       6        0.000124232742    -0.000086474583    -0.000194786030
       7        0.000081415426     0.000291369661    -0.000015299407
       8       -0.000018967275    -0.000163175295    -0.000109621273
       9        0.000044098216    -0.000027915993    -0.000092521492
      10       -0.000009589578     0.000023421251     0.000032688933
      11        0.000012604812    -0.000022028737     0.000023453396
      12        0.000029679253     0.000037415104    -0.000073964986
      13        0.000002428871    -0.000012852853     0.000002823367

  **** Optimization is complete! (in 7 steps) ****
    Final optimized geometry and variables:
    Molecular point group: c1

    Geometry (in Angstrom), charge = 0, multiplicity = 1:

    H            0.998969129104    -0.597624021602     1.022785564072
    C            0.897827204679    -0.713198452187    -0.062863263375
    C           -0.238474543025     0.036662877291    -0.714898941195
    O            1.656536085005    -1.400897690873    -0.653905535512
    C           -0.738438286432     1.241685722843     0.083329355672
    H           -1.045147473933    -0.676355485082    -0.866573859745
    H            0.102213312740     0.331628115780    -1.699615502784
    C           -1.578016455902     0.872675785042     1.303961532038
    H           -1.331101121219     1.865474220446    -0.575689478494
    H            0.108568533344     1.849301695171     0.390122772291
    H           -2.462261307635     0.317426456850     1.010244995058
    H           -1.904345630535     1.761884927683     1.829652458373
    H           -1.026494643488     0.261579990237     2.009474819422

  Mulliken Charges: (a.u.)
   Center  Symbol    Alpha    Beta     Spin     Total
       1     H     0.46221  0.46221  0.00000  0.07558
       2     C     2.90728  2.90728  0.00000  0.18544
       3     C     3.08838  3.08838  0.00000 -0.17675
       4     O     4.16603  4.16603  0.00000 -0.33206
       5     C     3.10314  3.10314  0.00000 -0.20627
       6     H     0.44539  0.44539  0.00000  0.10922
       7     H     0.43455  0.43455  0.00000  0.13090
       8     C     3.14831  3.14831  0.00000 -0.29662
       9     H     0.44395  0.44395  0.00000  0.11211
      10     H     0.44875  0.44875  0.00000  0.10251
      11     H     0.45247  0.45247  0.00000  0.09506
      12     H     0.44479  0.44479  0.00000  0.11042
      13     H     0.45476  0.45476  0.00000  0.09047

   Total alpha = 20.00000, Total beta = 20.00000, Total charge = -0.00000
