  ==> Input File <==

--------------------------------------------------------------------------
set {
	reference rhf
	basis cc-pvtz
}

set_num_threads( 4 )
memory 2 gb

molecule MOL {
0 1

H	 2.190573	 -0.629143	 -0.208718
O	 1.355408	 -0.529451	 0.208662
C	 0.700177	 0.619554	 -0.266242
C	 -0.713111	 0.588314	 0.266177
H	 0.678680	 0.627133	 -1.351786
H	 1.199747	 1.521489	 0.077736
O	 -1.421673	 -0.521378	 -0.196983
H	 -1.244794	 1.469161	 -0.069059
H	 -0.685100	 0.604721	 1.352683
H	 -2.056831	 -0.763917	 0.453996

	symmetry c1
}
set optking {
	frozen_dihedral = ("
		10 7 4 3
	")
}

ee = optimize('scf')
oeprop('DIPOLE', 'QUADRUPOLE', 'MULLIKEN_CHARGES')
f=open( 'psi4out.xyz', 'w' )
f.write( "10  " )
f.write( str(ee) + "\n" )
f.write( MOL.save_string_xyz() )
f.close()
--------------------------------------------------------------------------

    Molecular point group: c1
  Charge       = 0
  Multiplicity = 1
  Basis Set: CC-PVTZ
  Basis Set:
  @DF-RHF Final Energy:  -229.02228399554645
    Total Energy =                       -229.0222839955463883
    Molecular point group: c1
  Basis Set: CC-PVTZ
  Basis Set:
  Basis Set: CC-PVTZ
  Basis Set:
  @DF-RHF Final Energy:  -229.02388403778559
    Total Energy =                       -229.0238840377855070
  Basis Set: CC-PVTZ
  Basis Set:
  Basis Set: CC-PVTZ
  Basis Set:
  @DF-RHF Final Energy:  -229.02407278422822
    Total Energy =                       -229.0240727842283377
  Basis Set: CC-PVTZ
  Basis Set:
  Basis Set: CC-PVTZ
  Basis Set:
  @DF-RHF Final Energy:  -229.02411534362926
    Total Energy =                       -229.0241153436292336
  Basis Set: CC-PVTZ
  Basis Set:
  Basis Set: CC-PVTZ
  Basis Set:
  @DF-RHF Final Energy:  -229.02412019398076
    Total Energy =                       -229.0241201939806217
  Basis Set: CC-PVTZ
  Basis Set:
  Charge       = 0
  Multiplicity = 1
  Basis Set: CC-PVTZ
  Basis Set:

    Orbital Energies (a.u.)
    -----------------------

    Doubly Occupied:

       1A    -20.546579     2A    -20.545326     3A    -11.268284
       4A    -11.267536     5A     -1.375103     6A     -1.355121
       7A     -1.003749     8A     -0.832433     9A     -0.719387
      10A     -0.709587    11A     -0.615541    12A     -0.598853
      13A     -0.595559    14A     -0.529367    15A     -0.474728
      16A     -0.446221    17A     -0.442537

  @DF-RHF Final Energy:  -229.02412106819122

   => Energetics <=

    Nuclear Repulsion Energy =            133.5034856599652358
    One-Electron Energy =                -578.4033875184977660
    Two-Electron Energy =                 215.8757807903414232
    DFT Exchange-Correlation Energy =       0.0000000000000000
    Empirical Dispersion Energy =           0.0000000000000000
    PCM Polarization Energy =               0.0000000000000000
    EFP Energy =                            0.0000000000000000
    Total Energy =                       -229.0241210681911070
    Molecular point group: c1
  Basis Set: CC-PVTZ
  Basis Set:

  -Total Gradient:
     Atom            X                  Y                   Z
    ------   -----------------  -----------------  -----------------
       1        0.000034012675     0.000058138235     0.000057001803
       2       -0.000050710606    -0.000061585564    -0.000076592644
       3        0.000112956134    -0.000095389791     0.000148744249
       4       -0.000063340712     0.000091098140    -0.000114250067
       5       -0.000014807506    -0.000004639926    -0.000012209582
       6        0.000004657129    -0.000014061359    -0.000032648127
       7       -0.000190193074     0.000182610036    -0.000089030983
       8       -0.000006982746    -0.000001977632     0.000006794562
       9        0.000000982082     0.000016900710     0.000012689612
      10        0.000173426626    -0.000171092850     0.000099501178

  **** Optimization is complete! (in 6 steps) ****
    Final optimized geometry and variables:
    Molecular point group: c1

    Geometry (in Angstrom), charge = 0, multiplicity = 1:

    H            2.223518270738    -0.629795375854    -0.196705448855
    O            1.422232147624    -0.496796345261     0.274216305965
    C            0.697993180437     0.558983817463    -0.290994875414
    C           -0.699594396063     0.560424787392     0.276140652592
    H            0.636525428955     0.459450960065    -1.370632128635
    H            1.168186671848     1.513185589049    -0.062990487191
    O           -1.430009831098    -0.502230205280    -0.269438663079
    H           -1.174962107018     1.507943379606     0.034179322266
    H           -0.635383242265     0.480294941363     1.356473230869
    H           -2.075382141263    -0.804409646504     0.340717538273

  Mulliken Charges: (a.u.)
   Center  Symbol    Alpha    Beta     Spin     Total
       1     H     0.39418  0.39418  0.00000  0.21164
       2     O     4.19688  4.19688  0.00000 -0.39377
       3     C     2.95944  2.95944  0.00000  0.08112
       4     C     2.96299  2.96299  0.00000  0.07402
       5     H     0.47112  0.47112  0.00000  0.05775
       6     H     0.47810  0.47810  0.00000  0.04380
       7     O     4.19947  4.19947  0.00000 -0.39894
       8     H     0.47581  0.47581  0.00000  0.04839
       9     H     0.47032  0.47032  0.00000  0.05937
      10     H     0.39168  0.39168  0.00000  0.21663

   Total alpha = 17.00000, Total beta = 17.00000, Total charge = -0.00000
