                              Psi4 1.0.54 Driver

  ==> Input File <==

--------------------------------------------------------------------------
set {
	reference rhf
	basis cc-pvtz
}

set_num_threads( 4 )
memory 2 gb

molecule MOL {
0 1

H	 -1.088256	 -1.364742	 0.152233
O	 -1.432053	 -0.565244	 -0.200812
C	 -0.727158	 0.534527	 0.310686
C	 0.680222	 0.664433	 -0.252229
H	 -1.306802	 1.408001	 0.044211
H	 -0.690821	 0.490158	 1.397609
C	 0.913400	 1.947279	 -1.044682
H	 1.388006	 0.606521	 0.568088
H	 0.865658	 -0.194024	 -0.892006
H	 0.795846	 2.827174	 -0.421713
H	 1.917276	 1.975524	 -1.450869
H	 0.219534	 2.027929	 -1.875947

	symmetry c1
}
set optking {
	frozen_dihedral = ("
		8 4 3 2
	")
}

ee,wfn = optimize('scf', return_wfn=True)
oeprop( wfn, 'DIPOLE', 'QUADRUPOLE', 'MULLIKEN_CHARGES')
f=open( 'psi4out.xyz', 'w' )
f.write( "12  " )
f.write( str(ee) + "\n" )
f.write( MOL.save_string_xyz() )
f.close()
--------------------------------------------------------------------------

    Molecular point group: c1
  Charge       = 0
  Multiplicity = 1
  Basis Set: CC-PVTZ
  Basis Set:
  @DF-RHF Final Energy:  -193.18437097962428
    Total Energy =                       -193.1843709796244184
    Molecular point group: c1
  Basis Set: CC-PVTZ
  Basis Set:
  Basis Set: CC-PVTZ
  Basis Set:
  @DF-RHF Final Energy:  -193.18472487595520
    Total Energy =                       -193.1847248759553111
  Basis Set: CC-PVTZ
  Basis Set:
  Basis Set: CC-PVTZ
  Basis Set:
  @DF-RHF Final Energy:  -193.18479647205268
    Total Energy =                       -193.1847964720525965
  Basis Set: CC-PVTZ
  Basis Set:
  Basis Set: CC-PVTZ
  Basis Set:
  @DF-RHF Final Energy:  -193.18479975564904
    Total Energy =                       -193.1847997556489531
  Basis Set: CC-PVTZ
  Basis Set:
  Charge       = 0
  Multiplicity = 1
  Basis Set: CC-PVTZ
  Basis Set:

    Orbital Energies (a.u.)
    -----------------------

    Doubly Occupied:

       1A    -20.545560     2A    -11.265806     3A    -11.216891
       4A    -11.211376     5A     -1.363230     6A     -1.049671
       7A     -0.918508     8A     -0.820089     9A     -0.689056
      10A     -0.628253    11A     -0.619067    12A     -0.579344
      13A     -0.534792    14A     -0.518064    15A     -0.488702
      16A     -0.465385    17A     -0.430270

  @DF-RHF Final Energy:  -193.18480044151710

   => Energetics <=

    Nuclear Repulsion Energy =            131.2034646503970521
    One-Electron Energy =                -522.0884073289720391
    Two-Electron Energy =                 197.7001422370579178
    DFT Exchange-Correlation Energy =       0.0000000000000000
    Empirical Dispersion Energy =           0.0000000000000000
    PCM Polarization Energy =               0.0000000000000000
    EFP Energy =                            0.0000000000000000
    Total Energy =                       -193.1848004415170692
    Molecular point group: c1
  Basis Set: CC-PVTZ
  Basis Set:

  -Total Gradient:
     Atom            X                  Y                   Z
    ------   -----------------  -----------------  -----------------
       1       -0.000013424302     0.000076776557    -0.000009558050
       2        0.000016222543    -0.000031360306     0.000051810235
       3        0.000018486564     0.000023181323     0.000020461162
       4        0.000015222661     0.000021874016    -0.000049814064
       5        0.000020074470    -0.000040806110    -0.000025688077
       6       -0.000013226119    -0.000041458049    -0.000005418641
       7        0.000033118705    -0.000001569355     0.000005622148
       8       -0.000041594051    -0.000004397650     0.000011436550
       9       -0.000023045054     0.000004256231    -0.000001578583
      10       -0.000006405762    -0.000006807968     0.000015098524
      11        0.000002106323     0.000017892750     0.000003509790
      12       -0.000007535979    -0.000017581435    -0.000015880993

  **** Optimization is complete! (in 5 steps) ****
    Final optimized geometry and variables:
    Molecular point group: c1

    Geometry (in Angstrom), charge = 0, multiplicity = 1:

    H           -0.883294766385    -1.967691715616     0.366981713707
    O           -1.279242061481    -1.161765973041     0.089978729068
    C           -0.559590833144    -0.072925726159     0.606766246682
    C            0.865035374192     0.046391232582     0.037419277860
    H           -1.139527538485     0.802373242263     0.348256074237
    H           -0.531908068119    -0.127022681736     1.691371826232
    C            1.101021937287     1.333826980488    -0.746812145860
    H            1.592307404782    -0.021633220767     0.840011709378
    H            1.038709829219    -0.804072509025    -0.612416185954
    H            0.949343272704     2.206780220822    -0.120459123138
    H            2.112378894501     1.378039638755    -1.133844780935
    H            0.417935403681     1.405588409118    -1.585971361367

  Mulliken Charges: (a.u.)
   Center  Symbol    Alpha    Beta     Spin     Total
       1     H     0.39468  0.39468  0.00000  0.21063
       2     O     4.20201  4.20201  0.00000 -0.40401
       3     C     2.96857  2.96857  0.00000  0.06287
       4     C     3.09095  3.09095  0.00000 -0.18190
       5     H     0.45872  0.45872  0.00000  0.08256
       6     H     0.46864  0.46864  0.00000  0.06272
       7     C     3.15111  3.15111  0.00000 -0.30222
       8     H     0.45472  0.45472  0.00000  0.09057
       9     H     0.45453  0.45453  0.00000  0.09095
      10     H     0.45547  0.45547  0.00000  0.08906
      11     H     0.44993  0.44993  0.00000  0.10015
      12     H     0.45068  0.45068  0.00000  0.09863

   Total alpha = 17.00000, Total beta = 17.00000, Total charge =  0.00000

*** Psi4 exiting successfully. Buy a developer a beer!
