  ==> Input File <==

--------------------------------------------------------------------------
set {
	reference rhf
	basis cc-pvtz
}

set_num_threads( 4 )
memory 2 gb

molecule MOL {
0 1

O	 -0.294688	 1.318815	 -0.000872
C	 -0.448732	 0.145721	 -0.000187
C	 -1.780748	 -0.548101	 0.000195
O	 0.550743	 -0.719877	 0.000412
H	 -1.859389	 -1.183260	 -0.872613
H	 -2.570236	 0.185547	 -0.001342
H	 -1.860233	 -1.180337	 0.875064
C	 0.230224	 -2.079424	 0.219421
H	 -0.237674	 -2.209531	 1.183875
H	 1.164983	 -2.614787	 0.183417
H	 -0.437287	 -2.441543	 -0.548251

	symmetry c1
}
set optking {
	frozen_dihedral = ("
		8 4 2 1
	")
}

ee = optimize('scf')
oeprop('DIPOLE', 'QUADRUPOLE', 'MULLIKEN_CHARGES')
f=open( 'psi4out.xyz', 'w' )
f.write( "11  " )
f.write( str(ee) + "\n" )
f.write( MOL.save_string_xyz() )
f.close()
--------------------------------------------------------------------------

    Molecular point group: c1
  Charge       = 0
  Multiplicity = 1
  Basis Set: CC-PVTZ
  Basis Set:
  @DF-RHF Final Energy:  -266.91525816678836
    Total Energy =                       -266.9152581667884192
    Molecular point group: c1
  Basis Set: CC-PVTZ
  Basis Set:
  Basis Set: CC-PVTZ
  Basis Set:
  @DF-RHF Final Energy:  -266.91441913253561
    Total Energy =                       -266.9144191325357838
  Basis Set: CC-PVTZ
  Basis Set:
  Basis Set: CC-PVTZ
  Basis Set:
  @DF-RHF Final Energy:  -266.92277180352664
    Total Energy =                       -266.9227718035265866
  Basis Set: CC-PVTZ
  Basis Set:
  Basis Set: CC-PVTZ
  Basis Set:
  @DF-RHF Final Energy:  -266.92460272672497
    Total Energy =                       -266.9246027267249701
  Basis Set: CC-PVTZ
  Basis Set:
  @DF-RHF Final Energy:  -266.92427376255949
    Total Energy =                       -266.9242737625595510
  Basis Set: CC-PVTZ
  Basis Set:
  @DF-RHF Final Energy:  -266.92456878781593
    Total Energy =                       -266.9245687878160425
  Basis Set: CC-PVTZ
  Basis Set:
  Basis Set: CC-PVTZ
  Basis Set:
  @DF-RHF Final Energy:  -266.92509450400325
    Total Energy =                       -266.9250945040033116
  Basis Set: CC-PVTZ
  Basis Set:
  Basis Set: CC-PVTZ
  Basis Set:
  @DF-RHF Final Energy:  -266.92509606257590
    Total Energy =                       -266.9250960625758466
  Basis Set: CC-PVTZ
  Basis Set:
  Charge       = 0
  Multiplicity = 1
  Basis Set: CC-PVTZ
  Basis Set:

    Orbital Energies (a.u.)
    -----------------------

    Doubly Occupied:

       1A    -20.597726     2A    -20.529489     3A    -11.370703
       4A    -11.295705     5A    -11.242931     6A     -1.468694
       7A     -1.369855     8A     -1.023462     9A     -0.986300
      10A     -0.785807    11A     -0.701049    12A     -0.689974
      13A     -0.681667    14A     -0.602553    15A     -0.596986
      16A     -0.577918    17A     -0.548749    18A     -0.519380
      19A     -0.452897    20A     -0.439408

  @DF-RHF Final Energy:  -266.92509681320013

   => Energetics <=

    Nuclear Repulsion Energy =            183.2981990155342942
    One-Electron Energy =                -727.4840886751705966
    Two-Electron Energy =                 277.2607928464360043
    DFT Exchange-Correlation Energy =       0.0000000000000000
    Empirical Dispersion Energy =           0.0000000000000000
    PCM Polarization Energy =               0.0000000000000000
    EFP Energy =                            0.0000000000000000
    Total Energy =                       -266.9250968132003550
    Molecular point group: c1
  Basis Set: CC-PVTZ
  Basis Set:

  -Total Gradient:
     Atom            X                  Y                   Z
    ------   -----------------  -----------------  -----------------
       1        0.000021194376     0.000035756103     0.001096379808
       2        0.000112598319    -0.000022767172    -0.001027379967
       3       -0.000007066861    -0.000003430198     0.000003645395
       4       -0.000232131255    -0.000142925071    -0.000987007756
       5       -0.000000058041    -0.000005488857    -0.000004499500
       6        0.000012957642    -0.000000109558    -0.000001770297
       7       -0.000005633860    -0.000011832363     0.000003934928
       8        0.000104185587     0.000128164486     0.000908765634
       9       -0.000002890522     0.000027660052     0.000002752298
      10        0.000002647519     0.000004233776     0.000002010458
      11       -0.000005802903    -0.000009261198     0.000003168999

  **** Optimization is complete! (in 9 steps) ****
    Final optimized geometry and variables:
    Molecular point group: c1

    Geometry (in Angstrom), charge = 0, multiplicity = 1:

    O            0.085554138812     1.680243090245    -0.050229187088
    C           -0.139752286629     0.523610790967    -0.043672768125
    C           -1.541591819084    -0.034287622033    -0.060305759757
    O            0.875356877812    -0.336707400542    -0.036008503598
    H           -1.695363473719    -0.653780396540    -0.934990174778
    H           -2.229976016653     0.793578652166    -0.079827886096
    H           -1.731909864133    -0.641114736457     0.815565301543
    C            0.703148387566    -1.714779716027     0.177153853460
    H            0.279490942570    -1.914523159163     1.152785732064
    H            1.689038610852    -2.147462186721     0.130370743274
    H            0.085573486422    -2.168283383166    -0.586535049201

  Mulliken Charges: (a.u.)
   Center  Symbol    Alpha    Beta     Spin     Total
       1     O     4.18009  4.18009  0.00000 -0.36018
       2     C     2.81181  2.81181  0.00000  0.37639
       3     C     3.16628  3.16628  0.00000 -0.33256
       4     O     4.12706  4.12706  0.00000 -0.25412
       5     H     0.44543  0.44543  0.00000  0.10914
       6     H     0.42560  0.42560  0.00000  0.14880
       7     H     0.44785  0.44785  0.00000  0.10429
       8     C     3.04183  3.04183  0.00000 -0.08367
       9     H     0.45963  0.45963  0.00000  0.08074
      10     H     0.43266  0.43266  0.00000  0.13467
      11     H     0.46175  0.46175  0.00000  0.07650

   Total alpha = 20.00000, Total beta = 20.00000, Total charge =  0.00000
