  ==> Input File <==

--------------------------------------------------------------------------
set {
	reference rhf
	basis cc-pvtz
}

set_num_threads( 4 )
memory 2 gb

molecule MOL {
0 1

H	 -1.088256	 -1.364742	 0.152233
O	 -1.432053	 -0.565244	 -0.200812
C	 -0.727158	 0.534527	 0.310686
C	 0.680222	 0.664433	 -0.252229
H	 -1.306802	 1.408001	 0.044211
H	 -0.690821	 0.490158	 1.397609
C	 0.731086	 1.243741	 -1.662854
H	 1.266114	 1.283119	 0.419478
H	 1.134063	 -0.322824	 -0.250674
H	 0.340404	 2.254985	 -1.692440
H	 1.749722	 1.284208	 -2.029319
H	 0.155133	 0.639649	 -2.357338

	symmetry c1
}
set optking {
	frozen_dihedral = ("
		8 4 3 2
	")
}

ee = optimize('scf')
oeprop('DIPOLE', 'QUADRUPOLE', 'MULLIKEN_CHARGES')
f=open( 'psi4out.xyz', 'w' )
f.write( "12  " )
f.write( str(ee) + "\n" )
f.write( MOL.save_string_xyz() )
f.close()
--------------------------------------------------------------------------

    Molecular point group: c1
  Charge       = 0
  Multiplicity = 1
  Basis Set: CC-PVTZ
  Basis Set:
  @DF-RHF Final Energy:  -193.18954121554103
    Total Energy =                       -193.1895412155408565
    Molecular point group: c1
  Basis Set: CC-PVTZ
  Basis Set:
  Basis Set: CC-PVTZ
  Basis Set:
  @DF-RHF Final Energy:  -193.18983074083411
    Total Energy =                       -193.1898307408341964
  Basis Set: CC-PVTZ
  Basis Set:
  Basis Set: CC-PVTZ
  Basis Set:
  @DF-RHF Final Energy:  -193.18986756560602
    Total Energy =                       -193.1898675656059083
  Basis Set: CC-PVTZ
  Basis Set:
  Basis Set: CC-PVTZ
  Basis Set:
  @DF-RHF Final Energy:  -193.18987137875706
    Total Energy =                       -193.1898713787570330
  Basis Set: CC-PVTZ
  Basis Set:
  Charge       = 0
  Multiplicity = 1
  Basis Set: CC-PVTZ
  Basis Set:

    Orbital Energies (a.u.)
    -----------------------

    Doubly Occupied:

       1A    -20.546185     2A    -11.266107     3A    -11.218492
       4A    -11.207763     5A     -1.364394     6A     -1.050388
       7A     -0.921574     8A     -0.817763     9A     -0.682379
      10A     -0.635996    11A     -0.626533    12A     -0.568805
      13A     -0.531858    14A     -0.525158    15A     -0.484801
      16A     -0.468691    17A     -0.431899

  @DF-RHF Final Energy:  -193.18987166315856

   => Energetics <=

    Nuclear Repulsion Energy =            132.7178190562229929
    One-Electron Energy =                -525.1178108009780772
    Two-Electron Energy =                 199.2101200815965001
    DFT Exchange-Correlation Energy =       0.0000000000000000
    Empirical Dispersion Energy =           0.0000000000000000
    PCM Polarization Energy =               0.0000000000000000
    EFP Energy =                            0.0000000000000000
    Total Energy =                       -193.1898716631585842
    Molecular point group: c1
  Basis Set: CC-PVTZ
  Basis Set:

  -Total Gradient:
     Atom            X                  Y                   Z
    ------   -----------------  -----------------  -----------------
       1        0.000005298722     0.000007516906     0.000004721608
       2        0.001022677873    -0.001748856269     0.002251425185
       3       -0.001144437883     0.001672130845    -0.002602298311
       4       -0.000916242647     0.003282157654    -0.001573657610
       5       -0.000009807091    -0.000024460490    -0.000013353863
       6       -0.000019583046    -0.000012907065     0.000003586976
       7        0.000019247445    -0.000018463149     0.000003256555
       8        0.001051472954    -0.003136379452     0.001936658463
       9        0.000004977110    -0.000010721704    -0.000010223802
      10        0.000016920352    -0.000013008157     0.000015793035
      11       -0.000021310136     0.000011641832    -0.000001207284
      12       -0.000009213654    -0.000008650950    -0.000014700952

  **** Optimization is complete! (in 5 steps) ****
    Final optimized geometry and variables:
    Molecular point group: c1

    Geometry (in Angstrom), charge = 0, multiplicity = 1:

    H           -0.789352301087    -1.782777112279     0.488531470588
    O           -1.214592207031    -0.983238308399     0.237534135272
    C           -0.511959487014     0.111449834337     0.764125758296
    C            0.899198775854     0.238015773921     0.202987063024
    H           -1.097362567579     0.989499045818     0.523682966369
    H           -0.470583691200     0.037913915656     1.848025644684
    C            0.948449323905     0.783411937905    -1.218693621873
    H            1.493010384728     0.848294063527     0.877289731560
    H            1.361033460050    -0.747206096104     0.230075275422
    H            0.566152252027     1.797862478175    -1.258222593281
    H            1.962771086777     0.796700485892    -1.600150973710
    H            0.346975622993     0.175439830296    -1.883541130392

  Mulliken Charges: (a.u.)
   Center  Symbol    Alpha    Beta     Spin     Total
       1     H     0.39469  0.39469  0.00000  0.21061
       2     O     4.20462  4.20462  0.00000 -0.40924
       3     C     2.96993  2.96993  0.00000  0.06015
       4     C     3.08475  3.08475  0.00000 -0.16950
       5     H     0.46107  0.46107  0.00000  0.07786
       6     H     0.46412  0.46412  0.00000  0.07175
       7     C     3.14899  3.14899  0.00000 -0.29799
       8     H     0.45473  0.45473  0.00000  0.09053
       9     H     0.46340  0.46340  0.00000  0.07320
      10     H     0.45571  0.45571  0.00000  0.08858
      11     H     0.45024  0.45024  0.00000  0.09951
      12     H     0.44773  0.44773  0.00000  0.10455

   Total alpha = 17.00000, Total beta = 17.00000, Total charge =  0.00000
