  ==> Input File <==

--------------------------------------------------------------------------
set {
	reference rhf
	basis 6-31G*
}

set_num_threads( 1 )
memory 2 gb

molecule MOL {
0 1

O	 -2.379264	 -0.793025	 -0.729440
C	 -1.921153	 0.064240	 -0.045697
C	 -2.710380	 1.179928	 0.584149
O	 -0.632575	 0.154573	 0.251549
H	 -2.333155	 2.135658	 0.238852
H	 -3.753334	 1.078026	 0.323961
H	 -2.591508	 1.149840	 1.661053
C	 0.160891	 -1.019931	 0.106212
C	 1.589627	 -0.672828	 0.480843
H	 0.089836	 -1.367806	 -0.916050
H	 -0.238459	 -1.792301	 0.749618
C	 2.246377	 0.346236	 -0.452210
H	 2.163194	 -1.597435	 0.473358
H	 1.604769	 -0.303424	 1.502885
C	 3.691736	 0.652107	 -0.061850
H	 2.219579	 -0.032311	 -1.472055
H	 1.666466	 1.263317	 -0.447249
H	 4.134505	 1.377213	 -0.737283
H	 4.305508	 -0.243868	 -0.089969
H	 3.748266	 1.059562	 0.943567

	symmetry c1
}
set optking {
	frozen_dihedral = ("
		16 12 9 8,
		2 4 8 10,
		12 9 8 10
	")
}

ee = energy('scf')
oeprop('DIPOLE', 'QUADRUPOLE', 'MULLIKEN_CHARGES')
f=open( 'psi4out.xyz', 'w' )
f.write( "20  " )
f.write( str(ee) + "\n" )
f.write( MOL.save_string_xyz() )
f.close()
--------------------------------------------------------------------------

    Molecular point group: c1

    Geometry (in Angstrom), charge = 0, multiplicity = 1:

       Center              X                  Y                   Z               Mass
    ------------   -----------------  -----------------  -----------------  -----------------
           O         -2.375929624833    -0.785554913464    -0.746166559949    15.994914619560
           C         -1.917818624833     0.071710086536    -0.062423559949    12.000000000000
           C         -2.707045624833     1.187398086536     0.567422440051    12.000000000000
           O         -0.629240624833     0.162043086536     0.234822440051    15.994914619560
           H         -2.329820624833     2.143128086536     0.222125440051     1.007825032070
           H         -3.749999624833     1.085496086536     0.307234440051     1.007825032070
           H         -2.588173624833     1.157310086536     1.644326440051     1.007825032070
           C          0.164225375167    -1.012460913464     0.089485440051    12.000000000000
           C          1.592961375167    -0.665357913464     0.464116440051    12.000000000000
           H          0.093170375167    -1.360335913464    -0.932776559949     1.007825032070
           H         -0.235124624833    -1.784830913464     0.732891440051     1.007825032070
           C          2.249711375167     0.353706086536    -0.468936559949    12.000000000000
           H          2.166528375167    -1.589964913464     0.456631440051     1.007825032070
           H          1.608103375167    -0.295953913464     1.486158440051     1.007825032070
           C          3.695070375167     0.659577086536    -0.078576559949    12.000000000000
           H          2.222913375167    -0.024840913464    -1.488781559949     1.007825032070
           H          1.669800375167     1.270787086536    -0.463975559949     1.007825032070
           H          4.137839375167     1.384683086536    -0.754009559949     1.007825032070
           H          4.308842375167    -0.236397913464    -0.106695559949     1.007825032070
           H          3.751600375167     1.067032086536     0.926840440051     1.007825032070

  Charge       = 0
  Multiplicity = 1
  Basis Set: 6-31G*
  Basis Set:

    Orbital Energies (a.u.)
    -----------------------

    Doubly Occupied:

       1A    -20.599616     2A    -20.544830     3A    -11.374694
       4A    -11.283265     5A    -11.233422     6A    -11.225748
       7A    -11.220129     8A    -11.213124     9A     -1.467303
      10A     -1.362392    11A     -1.085844    12A     -1.027664
      13A     -0.981841    14A     -0.880421    15A     -0.811026
      16A     -0.775228    17A     -0.691230    18A     -0.681671
      19A     -0.666970    20A     -0.630910    21A     -0.602195
      22A     -0.592315    23A     -0.573359    24A     -0.546456
      25A     -0.543778    26A     -0.538586    27A     -0.507617
      28A     -0.483917    29A     -0.474409    30A     -0.472578
      31A     -0.448906    32A     -0.437454

  @DF-RHF Final Energy:  -383.94326745693121

   => Energetics <=

    Nuclear Repulsion Energy =            385.0370701473438544
    One-Electron Energy =               -1286.0027637044076982
    Two-Electron Energy =                 517.0224261001326340
    DFT Exchange-Correlation Energy =       0.0000000000000000
    Empirical Dispersion Energy =           0.0000000000000000
    PCM Polarization Energy =               0.0000000000000000
    EFP Energy =                            0.0000000000000000
    Total Energy =                       -383.9432674569311530

  Mulliken Charges: (a.u.)
   Center  Symbol    Alpha    Beta     Spin     Total
       1     O     4.28112  4.28112  0.00000 -0.56225
       2     C     2.61888  2.61888  0.00000  0.76223
       3     C     3.28212  3.28212  0.00000 -0.56424
       4     O     4.30940  4.30940  0.00000 -0.61881
       5     H     0.40004  0.40004  0.00000  0.19992
       6     H     0.39720  0.39720  0.00000  0.20560
       7     H     0.40178  0.40178  0.00000  0.19644
       8     C     3.00370  3.00370  0.00000 -0.00739
       9     C     3.16454  3.16454  0.00000 -0.32907
      10     H     0.40625  0.40625  0.00000  0.18749
      11     H     0.41274  0.41274  0.00000  0.17453
      12     C     3.15502  3.15502  0.00000 -0.31003
      13     H     0.41846  0.41846  0.00000  0.16307
      14     H     0.41520  0.41520  0.00000  0.16960
      15     C     3.24045  3.24045  0.00000 -0.48091
      16     H     0.42185  0.42185  0.00000  0.15630
      17     H     0.41134  0.41134  0.00000  0.17732
      18     H     0.41733  0.41733  0.00000  0.16533
      19     H     0.42178  0.42178  0.00000  0.15643
      20     H     0.42079  0.42079  0.00000  0.15843

   Total alpha = 32.00000, Total beta = 32.00000, Total charge =  0.00000
