                              Psi4 1.0.54 Driver

  ==> Input File <==

--------------------------------------------------------------------------
set {
	reference rhf
	basis cc-pvtz
}

set_num_threads( 4 )
memory 2 gb

molecule MOL {
0 1

H	 -0.471500	 -1.595450	 0.295097
N	 -0.625934	 -0.663929	 -0.000707
C	 -1.978635	 -0.158664	 0.001017
C	 0.444773	 0.066839	 -0.383000
H	 -2.519057	 -0.493535	 -0.876362
H	 -1.938890	 0.917202	 -0.004137
H	 -2.514266	 -0.485137	 0.884506
C	 1.767494	 -0.662845	 -0.300600
O	 0.366717	 1.201103	 -0.752360
H	 1.756539	 -1.538817	 -0.938683
H	 2.554040	 0.002089	 -0.617264
H	 1.957649	 -0.989344	 0.715205

	symmetry c1
}
set optking {
	frozen_dihedral = ("
		4 2 3 5
	")
}

ee,wfn = optimize('scf', return_wfn=True)
oeprop( wfn, 'DIPOLE', 'QUADRUPOLE', 'MULLIKEN_CHARGES')
f=open( 'psi4out.xyz', 'w' )
f.write( "12  " )
f.write( str(ee) + "\n" )
f.write( MOL.save_string_xyz() )
f.close()
--------------------------------------------------------------------------

    Molecular point group: c1
  Charge       = 0
  Multiplicity = 1
  Basis Set: CC-PVTZ
  Basis Set:
  @DF-RHF Final Energy:  -247.10093055786061
    Total Energy =                       -247.1009305578608064
    Molecular point group: c1
  Basis Set: CC-PVTZ
  Basis Set:
  Basis Set: CC-PVTZ
  Basis Set:
  @DF-RHF Final Energy:  -247.10098559785075
    Total Energy =                       -247.1009855978506380
  Basis Set: CC-PVTZ
  Basis Set:
  Basis Set: CC-PVTZ
  Basis Set:
  @DF-RHF Final Energy:  -247.10087183761576
    Total Energy =                       -247.1008718376158413
  Basis Set: CC-PVTZ
  Basis Set:
  Basis Set: CC-PVTZ
  Basis Set:
  @DF-RHF Final Energy:  -247.10104783494717
    Total Energy =                       -247.1010478349469395
  Basis Set: CC-PVTZ
  Basis Set:
  @DF-RHF Final Energy:  -247.10105625664423
    Total Energy =                       -247.1010562566443696
  @DF-RHF Final Energy:  -247.10106581929321
    Total Energy =                       -247.1010658192931828
  @DF-RHF Final Energy:  -247.10106746689863
    Total Energy =                       -247.1010674668985985
  @DF-RHF Final Energy:  -247.10106876452210
    Total Energy =                       -247.1010687645220401
  @DF-RHF Final Energy:  -247.10107339308911
    Total Energy =                       -247.1010733930891092
  @DF-RHF Final Energy:  -247.09947607609672
    Total Energy =                       -247.0994760760968347
  @DF-RHF Final Energy:  -247.10110080298026
    Total Energy =                       -247.1011008029805680
  @DF-RHF Final Energy:  -247.10113858469961
    Total Energy =                       -247.1011385846996973
  @DF-RHF Final Energy:  -247.10083517613816
    Total Energy =                       -247.1008351761381618
  @DF-RHF Final Energy:  -247.10121991689758
    Total Energy =                       -247.1012199168974917
  Basis Set: CC-PVTZ
  Basis Set:
  @DF-RHF Final Energy:  -247.10123034082437
    Total Energy =                       -247.1012303408244861
  Basis Set: CC-PVTZ
  Basis Set:
  Basis Set: CC-PVTZ
  Basis Set:
  @DF-RHF Final Energy:  -247.10122681189000
    Total Energy =                       -247.1012268118900010
  Basis Set: CC-PVTZ
  Basis Set:
  Basis Set: CC-PVTZ
  Basis Set:
  @DF-RHF Final Energy:  -247.10124162043442
    Total Energy =                       -247.1012416204345072
  Basis Set: CC-PVTZ
  Basis Set:
  Charge       = 0
  Multiplicity = 1
  Basis Set: CC-PVTZ
  Basis Set:

    Orbital Energies (a.u.)
    -----------------------

    Doubly Occupied:

       1A    -20.503811     2A    -15.577320     3A    -11.336631
       4A    -11.253145     5A    -11.228433     6A     -1.387164
       7A     -1.232107     8A     -1.016101     9A     -0.934305
      10A     -0.789748    11A     -0.691071    12A     -0.652442
      13A     -0.635138    14A     -0.587013    15A     -0.583114
      16A     -0.554250    17A     -0.547048    18A     -0.507873
      19A     -0.416542    20A     -0.390204

  @DF-RHF Final Energy:  -247.10124216295273

   => Energetics <=

    Nuclear Repulsion Energy =            181.7068302758486595
    One-Electron Energy =                -695.9692275598015385
    Two-Electron Energy =                 267.1611551210002062
    DFT Exchange-Correlation Energy =       0.0000000000000000
    Empirical Dispersion Energy =           0.0000000000000000
    PCM Polarization Energy =               0.0000000000000000
    EFP Energy =                            0.0000000000000000
    Total Energy =                       -247.1012421629526443
    Molecular point group: c1
  Basis Set: CC-PVTZ
  Basis Set:

  -Total Gradient:
     Atom            X                  Y                   Z
    ------   -----------------  -----------------  -----------------
       1        0.000013962678    -0.000010622617    -0.000001643058
       2       -0.000035739458    -0.000182693117    -0.000228884417
       3        0.000083083128     0.000269195204    -0.000142675249
       4       -0.000029101289    -0.000036739678     0.000242815471
       5       -0.000069915003    -0.000158555825     0.000163020218
       6       -0.000003907999     0.000011522229     0.000000214110
       7        0.000016884078    -0.000001151327     0.000010721092
       8       -0.000020449631     0.000013590475    -0.000050374051
       9        0.000003068230     0.000088955408    -0.000031790147
      10        0.000016004596    -0.000015948087    -0.000019424672
      11        0.000035704734     0.000041622097     0.000018925102
      12       -0.000009594064    -0.000019174762     0.000039095599

  **** Optimization is complete! (in 18 steps) ****
    Final optimized geometry and variables:
    Molecular point group: c1

    Geometry (in Angstrom), charge = 0, multiplicity = 1:

    H           -0.428507733253    -1.418995851191     0.881129325942
    N           -0.589831274859    -0.543131611626     0.451548082479
    C           -1.948133969028    -0.060165499957     0.363289646467
    C            0.455027975346     0.088944453807    -0.122442131418
    H           -2.515368322568    -0.590877393235    -0.393300269673
    H           -1.926921486277     0.985770441459     0.107529768419
    H           -2.444766403947    -0.181096164006     1.317295289658
    C            1.794101849766    -0.599986156632     0.016894072867
    O            0.348483930076     1.122792553025    -0.714771547849
    H            2.064703848606    -1.016979798425    -0.945233633763
    H            2.535305927256     0.141016337482     0.278125368489
    H            1.796277550540    -1.390643018914     0.755545159285

  Mulliken Charges: (a.u.)
   Center  Symbol    Alpha    Beta     Spin     Total
       1     H     0.40988  0.40988  0.00000  0.18023
       2     N     3.61585  3.61585  0.00000 -0.23169
       3     C     3.08295  3.08295  0.00000 -0.16589
       4     C     2.84183  2.84183  0.00000  0.31634
       5     H     0.45711  0.45711  0.00000  0.08578
       6     H     0.43221  0.43221  0.00000  0.13557
       7     H     0.45540  0.45540  0.00000  0.08921
       8     C     3.14344  3.14344  0.00000 -0.28688
       9     O     4.22109  4.22109  0.00000 -0.44218
      10     H     0.44309  0.44309  0.00000  0.11382
      11     H     0.43821  0.43821  0.00000  0.12359
      12     H     0.45895  0.45895  0.00000  0.08210

   Total alpha = 20.00000, Total beta = 20.00000, Total charge = -0.00000

*** Psi4 exiting successfully. Buy a developer a beer!
