  ==> Input File <==

--------------------------------------------------------------------------
set {
	reference rhf
	basis 6-31G*
}

set_num_threads( 4 )
memory 2 gb

molecule MOL {
0 1

H	 -0.944757	 -0.000069	 1.678017
O	 -0.042387	 -0.000390	 1.388199
C	 -0.001487	 0.000018	 -0.026623
C	 -1.405770	 0.251167	 -0.579393
C	 0.974385	 1.074393	 -0.510395
C	 0.490659	 -1.390647	 -0.411673
H	 -1.416584	 0.216056	 -1.664081
H	 -1.770557	 1.230157	 -0.277047
H	 -2.096278	 -0.495424	 -0.202805
H	 1.058973	 1.074285	 -1.592492
H	 0.641727	 2.063922	 -0.205266
H	 1.958356	 0.905549	 -0.087111
H	 0.557381	 -1.494849	 -1.489836
H	 -0.187810	 -2.146437	 -0.032266
H	 1.470638	 -1.572546	 0.014880

	symmetry c1
}
set optking {
	frozen_dihedral = ("
		4 3 2 1
	")
}

ee = optimize('scf')
oeprop('DIPOLE', 'QUADRUPOLE', 'MULLIKEN_CHARGES')
f=open( 'psi4out.xyz', 'w' )
f.write( "15  " )
f.write( str(ee) + "\n" )
f.write( MOL.save_string_xyz() )
f.close()
--------------------------------------------------------------------------

    Molecular point group: c1
  Charge       = 0
  Multiplicity = 1
  Basis Set: 6-31G*
  Basis Set:
  @DF-RHF Final Energy:  -232.15001031550031
    Total Energy =                       -232.1500103155004240
    Molecular point group: c1
  Basis Set: 6-31G*
  Basis Set:
  Basis Set: 6-31G*
  Basis Set:
  @DF-RHF Final Energy:  -232.15077935334378
    Total Energy =                       -232.1507793533437507
  Basis Set: 6-31G*
  Basis Set:
  Basis Set: 6-31G*
  Basis Set:
  @DF-RHF Final Energy:  -232.15101783182308
    Total Energy =                       -232.1510178318233102
  Basis Set: 6-31G*
  Basis Set:
  Basis Set: 6-31G*
  Basis Set:
  @DF-RHF Final Energy:  -232.15100395860594
    Total Energy =                       -232.1510039586059975
  Basis Set: 6-31G*
  Basis Set:
  Basis Set: 6-31G*
  Basis Set:
  @DF-RHF Final Energy:  -232.15102624585242
    Total Energy =                       -232.1510262458522789
  Basis Set: 6-31G*
  Basis Set:
  Charge       = 0
  Multiplicity = 1
  Basis Set: 6-31G*
  Basis Set:

    Orbital Energies (a.u.)
    -----------------------

    Doubly Occupied:

       1A    -20.546732     2A    -11.282027     3A    -11.218614
       4A    -11.204582     5A    -11.204428     6A     -1.358085
       7A     -1.063794     8A     -0.945670     9A     -0.935314
      10A     -0.775643    11A     -0.669194    12A     -0.622669
      13A     -0.620982    14A     -0.575215    15A     -0.556343
      16A     -0.533263    17A     -0.516745    18A     -0.508690
      19A     -0.501520    20A     -0.456842    21A     -0.422495

  @DF-RHF Final Energy:  -232.15102575068590

   => Energetics <=

    Nuclear Repulsion Energy =            200.2475404437920474
    One-Electron Energy =                -711.7594353730659122
    Two-Electron Energy =                 279.3608691785880183
    DFT Exchange-Correlation Energy =       0.0000000000000000
    Empirical Dispersion Energy =           0.0000000000000000
    PCM Polarization Energy =               0.0000000000000000
    EFP Energy =                            0.0000000000000000
    Total Energy =                       -232.1510257506858466
    Molecular point group: c1
  Basis Set: 6-31G*
  Basis Set:

  -Total Gradient:
     Atom            X                  Y                   Z
    ------   -----------------  -----------------  -----------------
       1        0.000007160209     0.001102613701    -0.000052316266
       2       -0.000053061225    -0.001602173773     0.000037699541
       3        0.000170342913     0.001149609131    -0.000017599205
       4       -0.000115637222    -0.000624185101     0.000026292185
       5        0.000005281812    -0.000010063626    -0.000049609556
       6        0.000001538714     0.000007254700     0.000051684934
       7       -0.000000380710     0.000021730665    -0.000018259114
       8       -0.000031251209    -0.000037823270     0.000022637356
       9        0.000024222637    -0.000023130338    -0.000018742298
      10       -0.000015680181     0.000026988228     0.000005676882
      11        0.000013041555     0.000014073161     0.000006513518
      12       -0.000002365462    -0.000034859832    -0.000005505049
      13        0.000000647051     0.000010789246     0.000005084922
      14       -0.000003090270     0.000012577610     0.000000901086
      15       -0.000000768612    -0.000013400504     0.000005541066

  **** Optimization is complete! (in 6 steps) ****
    Final optimized geometry and variables:
    Molecular point group: c1

    Geometry (in Angstrom), charge = 0, multiplicity = 1:

    H           -0.903479606679     0.086389363529     1.711823334028
    O           -0.013949649977     0.057081090787     1.392421773324
    C            0.002760966173    -0.001208723881    -0.026010304898
    C           -1.400247161758     0.251424102596    -0.578593308069
    C            0.974524698747     1.076940678197    -0.499221151507
    C            0.496138407540    -1.390660343328    -0.429341107236
    H           -1.404088691898     0.228184547268    -1.662789550900
    H           -1.768196524058     1.223613098918    -0.262568399296
    H           -2.094777446976    -0.508558383891    -0.228845399048
    H            1.080968628052     1.065421640817    -1.579688826974
    H            0.626328683691     2.058569612084    -0.196107666690
    H            1.951082266009     0.916529561688    -0.056063510090
    H            0.574722069384    -1.486680798870    -1.508216858681
    H           -0.184149313985    -2.154420088605    -0.066050415348
    H            1.471676065264    -1.578832227405     0.004906672899

  Mulliken Charges: (a.u.)
   Center  Symbol    Alpha    Beta     Spin     Total
       1     H     0.27957  0.27957  0.00000  0.44086
       2     O     4.38355  4.38355  0.00000 -0.76709
       3     C     2.84458  2.84458  0.00000  0.31083
       4     C     3.26039  3.26039  0.00000 -0.52077
       5     C     3.23175  3.23175  0.00000 -0.46351
       6     C     3.23171  3.23171  0.00000 -0.46343
       7     H     0.41426  0.41426  0.00000  0.17147
       8     H     0.41619  0.41619  0.00000  0.16763
       9     H     0.42000  0.42000  0.00000  0.16000
      10     H     0.42566  0.42566  0.00000  0.14867
      11     H     0.41860  0.41860  0.00000  0.16280
      12     H     0.41300  0.41300  0.00000  0.17401
      13     H     0.42590  0.42590  0.00000  0.14819
      14     H     0.42163  0.42163  0.00000  0.15673
      15     H     0.41320  0.41320  0.00000  0.17361

   Total alpha = 21.00000, Total beta = 21.00000, Total charge = -0.00000
