                              Psi4 1.0.54 Driver

  ==> Input File <==

--------------------------------------------------------------------------
set {
	reference rhf
	basis cc-pvtz
}

set_num_threads( 4 )
memory 2 gb

molecule MOL {
0 1

H	 -1.088256	 -1.364742	 0.152233
O	 -1.432053	 -0.565244	 -0.200812
C	 -0.727158	 0.534527	 0.310686
C	 0.680222	 0.664433	 -0.252229
H	 -1.306802	 1.408001	 0.044211
H	 -0.690821	 0.490158	 1.397609
C	 1.773645	 0.190747	 0.700711
H	 0.735039	 0.104886	 -1.180202
H	 0.846136	 1.708895	 -0.501670
H	 1.675654	 -0.865604	 0.925754
H	 2.755777	 0.334957	 0.266922
H	 1.743799	 0.738921	 1.637499

	symmetry c1
}
set optking {
	frozen_dihedral = ("
		8 4 3 2
	")
}

ee,wfn = optimize('scf', return_wfn=True)
oeprop( wfn, 'DIPOLE', 'QUADRUPOLE', 'MULLIKEN_CHARGES')
f=open( 'psi4out.xyz', 'w' )
f.write( "12  " )
f.write( str(ee) + "\n" )
f.write( MOL.save_string_xyz() )
f.close()
--------------------------------------------------------------------------

    Molecular point group: c1
  Charge       = 0
  Multiplicity = 1
  Basis Set: CC-PVTZ
  Basis Set:
  @DF-RHF Final Energy:  -193.18577876570876
    Total Energy =                       -193.1857787657087897
    Molecular point group: c1
  Basis Set: CC-PVTZ
  Basis Set:
  Basis Set: CC-PVTZ
  Basis Set:
  @DF-RHF Final Energy:  -193.18614612663220
    Total Energy =                       -193.1861461266321669
  Basis Set: CC-PVTZ
  Basis Set:
  Basis Set: CC-PVTZ
  Basis Set:
  @DF-RHF Final Energy:  -193.18624000213541
    Total Energy =                       -193.1862400021353210
  Basis Set: CC-PVTZ
  Basis Set:
  Basis Set: CC-PVTZ
  Basis Set:
  @DF-RHF Final Energy:  -193.18624241649451
    Total Energy =                       -193.1862424164943945
  Basis Set: CC-PVTZ
  Basis Set:
  Charge       = 0
  Multiplicity = 1
  Basis Set: CC-PVTZ
  Basis Set:

    Orbital Energies (a.u.)
    -----------------------

    Doubly Occupied:

       1A    -20.546202     2A    -11.265758     3A    -11.216491
       4A    -11.214748     5A     -1.363436     6A     -1.050930
       7A     -0.923226     8A     -0.815432     9A     -0.695885
      10A     -0.640737    11A     -0.594550    12A     -0.581281
      13A     -0.557580    14A     -0.509982    15A     -0.488187
      16A     -0.466103    17A     -0.433186

  @DF-RHF Final Energy:  -193.18624300525408

   => Energetics <=

    Nuclear Repulsion Energy =            131.8564745864754855
    One-Electron Energy =                -523.3580063575440136
    Two-Electron Energy =                 198.3152887658144437
    DFT Exchange-Correlation Energy =       0.0000000000000000
    Empirical Dispersion Energy =           0.0000000000000000
    PCM Polarization Energy =               0.0000000000000000
    EFP Energy =                            0.0000000000000000
    Total Energy =                       -193.1862430052540844
    Molecular point group: c1
  Basis Set: CC-PVTZ
  Basis Set:

  -Total Gradient:
     Atom            X                  Y                   Z
    ------   -----------------  -----------------  -----------------
       1       -0.000037265785     0.000090675953    -0.000020040565
       2       -0.001182094945     0.001933785734    -0.002628138791
       3        0.001905838980    -0.003510570821     0.004099008925
       4       -0.001871850518     0.005129646512    -0.003775397103
       5       -0.000003131228    -0.000006897433     0.000003550791
       6        0.000004616683    -0.000011160689    -0.000027536687
       7        0.000037339216    -0.000006431817    -0.000009320489
       8        0.001180425637    -0.003607838751     0.002296881494
       9       -0.000023927480    -0.000018432534     0.000038420633
      10       -0.000001186628     0.000007638433    -0.000001796817
      11       -0.000007419307    -0.000011627256     0.000014300996
      12       -0.000001344625     0.000011212668     0.000010067614

  **** Optimization is complete! (in 5 steps) ****
    Final optimized geometry and variables:
    Molecular point group: c1

    Geometry (in Angstrom), charge = 0, multiplicity = 1:

    H           -1.094517547453    -1.521395272717    -0.056970940626
    O           -1.471060453851    -0.718032659564    -0.367187115077
    C           -0.774725132873     0.381317212088     0.160234888895
    C            0.653889307623     0.511244242011    -0.381297350607
    H           -1.358760376108     1.244714716934    -0.126524639141
    H           -0.769218934021     0.345189395373     1.246682831362
    C            1.718221121730    -0.025369765738     0.575297161084
    H            0.705627141068    -0.051243787937    -1.306252986583
    H            0.868428211743     1.548298321171    -0.612488756074
    H            1.537661985719    -1.067538254205     0.822323630004
    H            2.707884405279     0.038168104427     0.138357271317
    H            1.729898971629     0.534003278461     1.504587687889

  Mulliken Charges: (a.u.)
   Center  Symbol    Alpha    Beta     Spin     Total
       1     H     0.39471  0.39471  0.00000  0.21057
       2     O     4.20188  4.20188  0.00000 -0.40377
       3     C     2.97026  2.97026  0.00000  0.05948
       4     C     3.09677  3.09677  0.00000 -0.19353
       5     H     0.45270  0.45270  0.00000  0.09461
       6     H     0.47232  0.47232  0.00000  0.05537
       7     C     3.14831  3.14831  0.00000 -0.29661
       8     H     0.44806  0.44806  0.00000  0.10388
       9     H     0.45300  0.45300  0.00000  0.09401
      10     H     0.46023  0.46023  0.00000  0.07953
      11     H     0.44717  0.44717  0.00000  0.10565
      12     H     0.45460  0.45460  0.00000  0.09081

   Total alpha = 17.00000, Total beta = 17.00000, Total charge =  0.00000

*** Psi4 exiting successfully. Buy a developer a beer!
