                              Psi4 1.0.54 Driver

  ==> Input File <==

--------------------------------------------------------------------------
set {
	reference rhf
	basis cc-pvtz
}

set_num_threads( 4 )
memory 2 gb

molecule MOL {
0 1

O	 -2.374409	 1.338660	 -0.336961
C	 -2.104891	 0.204655	 -0.107126
C	 -0.881910	 -0.448129	 -0.720509
C	 -2.949910	 -0.638219	 0.818225
C	 -0.836155	 -0.216780	 -2.236169
H	 -0.940224	 -1.509815	 -0.516713
H	 0.021457	 -0.061402	 -0.260904
C	 0.378237	 -0.875863	 -2.886837
H	 -1.752371	 -0.601317	 -2.666177
H	 -0.816520	 0.850403	 -2.443619
C	 0.506376	 -0.628592	 -4.390946
H	 0.345258	 -1.946520	 -2.700867
H	 1.277330	 -0.509972	 -2.398617
C	 -0.596211	 -1.260555	 -5.236997
H	 1.464514	 -1.018653	 -4.719781
H	 0.536227	 0.441804	 -4.577210
H	 -0.652578	 -2.330721	 -5.066245
H	 -0.405751	 -1.104939	 -6.292592
H	 -1.569655	 -0.839432	 -5.017133
H	 -3.440322	 -1.417144	 0.243099
H	 -3.694377	 -0.025850	 1.303346
H	 -2.331085	 -1.129829	 1.560495

	symmetry c1
}
set optking {
	frozen_dihedral = ("
		6 3 2 1
	")
}

ee,wfn = optimize('scf', return_wfn=True)
oeprop( wfn, 'DIPOLE', 'QUADRUPOLE', 'MULLIKEN_CHARGES')
f=open( 'psi4out.xyz', 'w' )
f.write( "22  " )
f.write( str(ee) + "\n" )
f.write( MOL.save_string_xyz() )
f.close()
--------------------------------------------------------------------------

    Molecular point group: c1
  Charge       = 0
  Multiplicity = 1
  Basis Set: CC-PVTZ
  Basis Set:
  @DF-RHF Final Energy:  -348.22265025633470
    Total Energy =                       -348.2226502563347594
    Molecular point group: c1
  Basis Set: CC-PVTZ
  Basis Set:
  Basis Set: CC-PVTZ
  Basis Set:
  @DF-RHF Final Energy:  -348.22297929066292
    Total Energy =                       -348.2229792906623516
  Basis Set: CC-PVTZ
  Basis Set:
  Basis Set: CC-PVTZ
  Basis Set:
  @DF-RHF Final Energy:  -348.22348662979743
    Total Energy =                       -348.2234866297973781
  Basis Set: CC-PVTZ
  Basis Set:
  Basis Set: CC-PVTZ
  Basis Set:
  @DF-RHF Final Energy:  -348.22364256426317
    Total Energy =                       -348.2236425642634572
  Basis Set: CC-PVTZ
  Basis Set:
  Basis Set: CC-PVTZ
  Basis Set:
  @DF-RHF Final Energy:  -348.22368900205930
    Total Energy =                       -348.2236890020587907
  Basis Set: CC-PVTZ
  Basis Set:
  Charge       = 0
  Multiplicity = 1
  Basis Set: CC-PVTZ
  Basis Set:

    Orbital Energies (a.u.)
    -----------------------

    Doubly Occupied:

       1A    -20.537129     2A    -11.320412     3A    -11.228922
       4A    -11.227250     5A    -11.219371     6A    -11.217063
       7A    -11.215833     8A    -11.208079     9A     -1.397893
      10A     -1.093298    11A     -1.044035    12A     -1.002425
      13A     -0.937013    14A     -0.856188    15A     -0.783662
      16A     -0.732850    17A     -0.658204    18A     -0.651567
      19A     -0.630307    20A     -0.613222    21A     -0.604223
      22A     -0.583696    23A     -0.558623    24A     -0.550137
      25A     -0.525077    26A     -0.520440    27A     -0.500567
      28A     -0.483872    29A     -0.466282    30A     -0.463225
      31A     -0.461431    32A     -0.399301

  @DF-RHF Final Energy:  -348.22368848339539

   => Energetics <=

    Nuclear Repulsion Energy =            372.8842624724508710
    One-Electron Energy =               -1210.8327073747730083
    Two-Electron Energy =                 489.7247564189268587
    DFT Exchange-Correlation Energy =       0.0000000000000000
    Empirical Dispersion Energy =           0.0000000000000000
    PCM Polarization Energy =               0.0000000000000000
    EFP Energy =                            0.0000000000000000
    Total Energy =                       -348.2236884833952217
    Molecular point group: c1
  Basis Set: CC-PVTZ
  Basis Set:

  -Total Gradient:
     Atom            X                  Y                   Z
    ------   -----------------  -----------------  -----------------
       1        0.000774763575     0.000217323074     0.001019121474
       2       -0.001063844290    -0.000620291293    -0.000953782051
       3       -0.000771571305    -0.000053632038    -0.001427714890
       4        0.000129523270    -0.000187915112     0.000087619574
       5        0.000179629788     0.000055643206     0.000046273099
       6        0.000702114200     0.000301691023     0.001123816673
       7        0.000097716029     0.000111249862     0.000094901017
       8       -0.000065713525    -0.000097680995    -0.000004285692
       9       -0.000006310176    -0.000024982007     0.000095684275
      10        0.000102425363    -0.000011747350     0.000120465913
      11       -0.000028042950    -0.000001539492    -0.000007365781
      12        0.000019393682    -0.000014327273     0.000004670303
      13       -0.000054258167     0.000011077455    -0.000029821748
      14        0.000010295724    -0.000003564751    -0.000013664180
      15       -0.000007717202    -0.000000159855     0.000009243824
      16       -0.000011206703    -0.000006089989     0.000007063123
      17       -0.000000889185     0.000006439315     0.000000230788
      18       -0.000001204882    -0.000006137403     0.000013373273
      19        0.000017843054     0.000001716600    -0.000005725173
      20        0.000143400852     0.000245639795     0.000099444150
      21       -0.000015776179     0.000014408897    -0.000036626290
      22       -0.000150570970     0.000062878330    -0.000242921686

  **** Optimization is complete! (in 6 steps) ****
    Final optimized geometry and variables:
    Molecular point group: c1

    Geometry (in Angstrom), charge = 0, multiplicity = 1:

    O           -1.324613325401     1.610832759247     1.544415718938
    C           -1.039236042636     0.483808619339     1.787348071323
    C            0.161929995317    -0.182472524821     1.139455746728
    C           -1.828989690640    -0.336266016445     2.777357740206
    C            0.265343015869     0.086127221383    -0.360064357398
    H            0.154934909872    -1.246789840825     1.346591708479
    H            1.036296657097     0.220769981360     1.645930561094
    C            1.510641241228    -0.544627068991    -0.978961909492
    H           -0.627342058113    -0.293011703237    -0.846266680543
    H            0.273414603101     1.156855978326    -0.521078938648
    C            1.700707328205    -0.247430249900    -2.467371704989
    H            1.485312869579    -1.622072326036    -0.830427125201
    H            2.384408526348    -0.185314282782    -0.442160559436
    C            0.643486073274    -0.862490130075    -3.381092336340
    H            2.676657920222    -0.616282880306    -2.767272051648
    H            1.724421830164     0.828500125043    -2.616396423524
    H            0.590115886572    -1.938249907188    -3.246365539530
    H            0.879205271868    -0.672782145715    -4.421865182670
    H           -0.342514224188    -0.455467603782    -3.192832788289
    H           -2.274944729461    -1.185623206723     2.270770958066
    H           -2.601790517600     0.266479224927     3.228991953308
    H           -1.170452030900    -0.731280704645     3.543123201530

  Mulliken Charges: (a.u.)
   Center  Symbol    Alpha    Beta     Spin     Total
       1     O     4.17507  4.17507  0.00000 -0.35015
       2     C     2.85915  2.85915  0.00000  0.28171
       3     C     3.10584  3.10584  0.00000 -0.21169
       4     C     3.15313  3.15313  0.00000 -0.30626
       5     C     3.09297  3.09297  0.00000 -0.18594
       6     H     0.44627  0.44627  0.00000  0.10746
       7     H     0.44364  0.44364  0.00000  0.11272
       8     C     3.09651  3.09651  0.00000 -0.19302
       9     H     0.45177  0.45177  0.00000  0.09646
      10     H     0.43809  0.43809  0.00000  0.12382
      11     C     3.09022  3.09022  0.00000 -0.18043
      12     H     0.45471  0.45471  0.00000  0.09058
      13     H     0.44882  0.44882  0.00000  0.10236
      14     C     3.15274  3.15274  0.00000 -0.30548
      15     H     0.44832  0.44832  0.00000  0.10336
      16     H     0.45268  0.45268  0.00000  0.09465
      17     H     0.45575  0.45575  0.00000  0.08851
      18     H     0.44580  0.44580  0.00000  0.10839
      19     H     0.45242  0.45242  0.00000  0.09517
      20     H     0.45002  0.45002  0.00000  0.09995
      21     H     0.43642  0.43642  0.00000  0.12717
      22     H     0.44966  0.44966  0.00000  0.10068

   Total alpha = 32.00000, Total beta = 32.00000, Total charge = -0.00000

*** Psi4 exiting successfully. Buy a developer a beer!
