  ==> Input File <==

--------------------------------------------------------------------------
set {
	reference rhf
	basis cc-pvtz
}

set_num_threads( 4 )
memory 2 gb

molecule MOL {
0 1

H	 1.166964	 -1.062386	 0.758429
O	 1.324748	 -0.612467	 -0.052206
C	 0.706474	 0.636793	 -0.025501
C	 1.236665	 1.619073	 -1.031311
H	 0.856569	 1.032009	 0.972286
H	 -0.369066	 0.540196	 -0.161823
C	 2.267461	 1.427215	 -1.824379
H	 0.698556	 2.551703	 -1.074762
H	 2.838834	 0.519006	 -1.798639
H	 2.580903	 2.183339	 -2.518707

	symmetry c1
}
set optking {
	frozen_dihedral = ("
		5 3 2 1
	")
}

ee = optimize('scf')
oeprop('DIPOLE', 'QUADRUPOLE', 'MULLIKEN_CHARGES')
f=open( 'psi4out.xyz', 'w' )
f.write( "10  " )
f.write( str(ee) + "\n" )
f.write( MOL.save_string_xyz() )
f.close()
--------------------------------------------------------------------------

    Molecular point group: c1
  Charge       = 0
  Multiplicity = 1
  Basis Set: CC-PVTZ
  Basis Set:
  @DF-RHF Final Energy:  -191.99596142400469
    Total Energy =                       -191.9959614240048609
    Molecular point group: c1
  Basis Set: CC-PVTZ
  Basis Set:
  Basis Set: CC-PVTZ
  Basis Set:
  @DF-RHF Final Energy:  -191.99718573251164
    Total Energy =                       -191.9971857325116957
  Basis Set: CC-PVTZ
  Basis Set:
  Basis Set: CC-PVTZ
  Basis Set:
  @DF-RHF Final Energy:  -191.99754957694483
    Total Energy =                       -191.9975495769446638
  Basis Set: CC-PVTZ
  Basis Set:
  Basis Set: CC-PVTZ
  Basis Set:
  @DF-RHF Final Energy:  -191.99755667357323
    Total Energy =                       -191.9975566735732286
  Basis Set: CC-PVTZ
  Basis Set:
  Charge       = 0
  Multiplicity = 1
  Basis Set: CC-PVTZ
  Basis Set:

    Orbital Energies (a.u.)
    -----------------------

    Doubly Occupied:

       1A    -20.553736     2A    -11.278103     3A    -11.223737
       4A    -11.207807     5A     -1.373979     6A     -1.058574
       7A     -0.926082     8A     -0.756724     9A     -0.713955
      10A     -0.641822    11A     -0.618007    12A     -0.592743
      13A     -0.517644    14A     -0.490083    15A     -0.457590
      16A     -0.360387

  @DF-RHF Final Energy:  -191.99755741712005

   => Energetics <=

    Nuclear Repulsion Energy =            119.6376767378832398
    One-Electron Energy =                -497.7285208203039701
    Two-Electron Energy =                 186.0932866653007522
    DFT Exchange-Correlation Energy =       0.0000000000000000
    Empirical Dispersion Energy =           0.0000000000000000
    PCM Polarization Energy =               0.0000000000000000
    EFP Energy =                            0.0000000000000000
    Total Energy =                       -191.9975574171199924
    Molecular point group: c1
  Basis Set: CC-PVTZ
  Basis Set:

  -Total Gradient:
     Atom            X                  Y                   Z
    ------   -----------------  -----------------  -----------------
       1        0.000686518437     0.000359343035     0.000344732121
       2       -0.001037445748    -0.000511602119    -0.000357684816
       3        0.000903550091     0.000521983958    -0.000235041691
       4        0.000035682049     0.000014847993     0.000056510377
       5       -0.000589611027    -0.000353593153     0.000186245025
       6        0.000040487471    -0.000016513216    -0.000003071243
       7        0.000030919911     0.000008984237     0.000069124370
       8       -0.000022837487     0.000009623648    -0.000017745329
       9       -0.000010340920    -0.000019844212    -0.000021032303
      10       -0.000036922776    -0.000013230171    -0.000022036510

  **** Optimization is complete! (in 5 steps) ****
    Final optimized geometry and variables:
    Molecular point group: c1

    Geometry (in Angstrom), charge = 0, multiplicity = 1:

    H           -0.150734502070    -1.760153557483     1.389842556440
    O           -0.008344519121    -1.273076238853     0.600307200466
    C           -0.683364001639    -0.051700633768     0.663765462341
    C           -0.135260839708     0.920516851576    -0.334727374604
    H           -0.605736202715     0.383445047412     1.658408031788
    H           -1.744977047696    -0.192486601834     0.466703137444
    C            0.875618421487     0.700469512205    -1.144051061354
    H           -0.647753882921     1.867615689861    -0.360406537413
    H            1.401200811265    -0.233898865401    -1.142933620159
    H            1.201821603266     1.454905703671    -1.834704619853

  Mulliken Charges: (a.u.)
   Center  Symbol    Alpha    Beta     Spin     Total
       1     H     0.39398  0.39398  0.00000  0.21204
       2     O     4.19214  4.19214  0.00000 -0.38427
       3     C     2.93866  2.93866  0.00000  0.12268
       4     C     3.08158  3.08158  0.00000 -0.16316
       5     H     0.47514  0.47514  0.00000  0.04971
       6     H     0.47356  0.47356  0.00000  0.05288
       7     C     3.17037  3.17037  0.00000 -0.34074
       8     H     0.42399  0.42399  0.00000  0.15201
       9     H     0.42028  0.42028  0.00000  0.15944
      10     H     0.43029  0.43029  0.00000  0.13942

   Total alpha = 16.00000, Total beta = 16.00000, Total charge = -0.00000
