  ==> Input File <==

--------------------------------------------------------------------------
set {
	reference rhf
	basis 6-31G*
}

set_num_threads( 1 )
memory 2 gb

molecule MOL {
0 1

H	 2.016982	 -1.292687	 -0.850321
O	 2.016064	 -0.864478	 0.000222
C	 1.050492	 0.053836	 0.000068
C	 -0.318135	 -0.576402	 0.000164
O	 1.285279	 1.218255	 -0.000078
C	 -1.454360	 0.441875	 -0.000474
H	 -0.374042	 -1.230163	 -0.866135
H	 -0.374274	 -1.229227	 0.867154
C	 -2.826123	 -0.230780	 0.000056
H	 -1.357605	 1.085198	 -0.868380
H	 -1.357504	 1.086451	 0.866496
H	 -2.959731	 -0.858053	 -0.876869
H	 -3.619374	 0.509403	 -0.000080
H	 -2.959371	 -0.857318	 0.877556

	symmetry c1
}
set optking {
	frozen_dihedral = ("
		7 4 6 10,
		2 3 4 7
	")
}

ee = energy('scf')
oeprop('DIPOLE', 'QUADRUPOLE', 'MULLIKEN_CHARGES')
f=open( 'psi4out.xyz', 'w' )
f.write( "14  " )
f.write( str(ee) + "\n" )
f.write( MOL.save_string_xyz() )
f.close()
--------------------------------------------------------------------------

    Molecular point group: c1

    Geometry (in Angstrom), charge = 0, multiplicity = 1:

       Center              X                  Y                   Z               Mass
    ------------   -----------------  -----------------  -----------------  -----------------
           H          2.026563665531    -1.282610972186    -0.840586305056     1.007825032070
           O          2.025645665531    -0.854401972186     0.009956694944    15.994914619560
           C          1.060073665531     0.063912027814     0.009802694944    12.000000000000
           C         -0.308553334469    -0.566325972186     0.009898694944    12.000000000000
           O          1.294860665531     1.228331027814     0.009656694944    15.994914619560
           C         -1.444778334469     0.451951027814     0.009260694944    12.000000000000
           H         -0.364460334469    -1.220086972186    -0.856400305056     1.007825032070
           H         -0.364692334469    -1.219150972186     0.876888694944     1.007825032070
           C         -2.816541334469    -0.220703972186     0.009790694944    12.000000000000
           H         -1.348023334469     1.095274027814    -0.858645305056     1.007825032070
           H         -1.347922334469     1.096527027814     0.876230694944     1.007825032070
           H         -2.950149334469    -0.847976972186    -0.867134305056     1.007825032070
           H         -3.609792334469     0.519479027814     0.009654694944     1.007825032070
           H         -2.949789334469    -0.847241972186     0.887290694944     1.007825032070

  Charge       = 0
  Multiplicity = 1
  Basis Set: 6-31G*
  Basis Set:

    Orbital Energies (a.u.)
    -----------------------

    Doubly Occupied:

       1A    -20.601116     2A    -20.559777     3A    -11.380598
       4A    -11.245389     5A    -11.227912     6A    -11.219573
       7A     -1.469229     8A     -1.370672     9A     -1.085183
      10A     -0.977637    11A     -0.851798    12A     -0.806829
      13A     -0.716609    14A     -0.677194    15A     -0.663730
      16A     -0.634557    17A     -0.580663    18A     -0.564048
      19A     -0.546531    20A     -0.504024    21A     -0.496661
      22A     -0.485900    23A     -0.480417    24A     -0.444084

  @DF-RHF Final Energy:  -305.85807916854151

   => Energetics <=

    Nuclear Repulsion Energy =            240.1530692873980399
    One-Electron Energy =                -892.8420563675994117
    Two-Electron Energy =                 346.8309079116604039
    DFT Exchange-Correlation Energy =       0.0000000000000000
    Empirical Dispersion Energy =           0.0000000000000000
    PCM Polarization Energy =               0.0000000000000000
    EFP Energy =                            0.0000000000000000
    Total Energy =                       -305.8580791685409963

  Mulliken Charges: (a.u.)
   Center  Symbol    Alpha    Beta     Spin     Total
       1     H     0.26708  0.26708  0.00000  0.46584
       2     O     4.35485  4.35485  0.00000 -0.70971
       3     C     2.63073  2.63073  0.00000  0.73853
       4     C     3.21321  3.21321  0.00000 -0.42643
       5     O     4.25270  4.25270  0.00000 -0.50540
       6     C     3.15277  3.15277  0.00000 -0.30553
       7     H     0.41358  0.41358  0.00000  0.17284
       8     H     0.39642  0.39642  0.00000  0.20715
       9     C     3.24291  3.24291  0.00000 -0.48583
      10     H     0.41107  0.41107  0.00000  0.17787
      11     H     0.40801  0.40801  0.00000  0.18398
      12     H     0.42223  0.42223  0.00000  0.15554
      13     H     0.41392  0.41392  0.00000  0.17216
      14     H     0.42051  0.42051  0.00000  0.15898

   Total alpha = 24.00000, Total beta = 24.00000, Total charge =  0.00000
