  ==> Input File <==

--------------------------------------------------------------------------
set {
	reference rhf
	basis cc-pvtz
}

set_num_threads( 4 )
memory 2 gb

molecule MOL {
0 1

H	 1.938708	 -1.341693	 1.019670
C	 1.117632	 -0.676548	 1.227632
O	 0.462329	 -0.453336	 -0.000137
H	 1.504054	 0.248243	 1.637094
H	 0.454179	 -1.143819	 1.944379
C	 -0.590565	 0.341382	 0.000062
O	 -1.693898	 -0.053880	 0.000252
H	 -0.340426	 1.403822	 0.000200

	symmetry c1
}
set optking {
	frozen_dihedral = ("
		2 3 6 7
	")
}

ee = optimize('scf')
oeprop('DIPOLE', 'QUADRUPOLE', 'MULLIKEN_CHARGES')
f=open( 'psi4out.xyz', 'w' )
f.write( "8  " )
f.write( str(ee) + "\n" )
f.write( MOL.save_string_xyz() )
f.close()
--------------------------------------------------------------------------

    Molecular point group: c1
  Charge       = 0
  Multiplicity = 1
  Basis Set: CC-PVTZ
  Basis Set:
  @DF-RHF Final Energy:  -227.85909159429994
    Total Energy =                       -227.8590915943001960
    Molecular point group: c1
  Basis Set: CC-PVTZ
  Basis Set:
  Basis Set: CC-PVTZ
  Basis Set:
  @DF-RHF Final Energy:  -227.85917577338540
    Total Energy =                       -227.8591757733853171
  Basis Set: CC-PVTZ
  Basis Set:
  Basis Set: CC-PVTZ
  Basis Set:
  @DF-RHF Final Energy:  -227.85929553987157
    Total Energy =                       -227.8592955398716526
  Basis Set: CC-PVTZ
  Basis Set:
  Basis Set: CC-PVTZ
  Basis Set:
  @DF-RHF Final Energy:  -227.85953435543172
    Total Energy =                       -227.8595343554317196
  Basis Set: CC-PVTZ
  Basis Set:
  Basis Set: CC-PVTZ
  Basis Set:
  @DF-RHF Final Energy:  -227.85956671817331
    Total Energy =                       -227.8595667181733404
  Basis Set: CC-PVTZ
  Basis Set:
  Charge       = 0
  Multiplicity = 1
  Basis Set: CC-PVTZ
  Basis Set:

    Orbital Energies (a.u.)
    -----------------------

    Doubly Occupied:

       1A    -20.591139     2A    -20.563129     3A    -11.376515
       4A    -11.298162     5A     -1.473754     6A     -1.386111
       7A     -0.986361     8A     -0.837855     9A     -0.740559
      10A     -0.691150    11A     -0.670422    12A     -0.627740
      13A     -0.565628    14A     -0.515716    15A     -0.476673
      16A     -0.461181

  @DF-RHF Final Energy:  -227.85956700753758

   => Energetics <=

    Nuclear Repulsion Energy =            121.9535113206259922
    One-Electron Energy =                -553.1019681481636781
    Two-Electron Energy =                 203.2888898200000654
    DFT Exchange-Correlation Energy =       0.0000000000000000
    Empirical Dispersion Energy =           0.0000000000000000
    PCM Polarization Energy =               0.0000000000000000
    EFP Energy =                            0.0000000000000000
    Total Energy =                       -227.8595670075376347
    Molecular point group: c1
  Basis Set: CC-PVTZ
  Basis Set:

  -Total Gradient:
     Atom            X                  Y                   Z
    ------   -----------------  -----------------  -----------------
       1        0.000009948285    -0.000005406381     0.000007047314
       2       -0.000936398705    -0.001280883346     0.000334715749
       3        0.001406953589     0.001908927303     0.000610035529
       4       -0.000013999319    -0.000006684532    -0.000000282100
       5       -0.000026474012     0.000021372422    -0.000035232320
       6       -0.000486987429    -0.000622281926    -0.003084272399
       7        0.000036187095    -0.000002032104     0.002168459892
       8        0.000010770493    -0.000013011437    -0.000000471666

  **** Optimization is complete! (in 6 steps) ****
    Final optimized geometry and variables:
    Molecular point group: c1

    Geometry (in Angstrom), charge = 0, multiplicity = 1:

    H            2.141444722408    -1.084077574969     0.695760487873
    C            1.281143480110    -0.466542219723     0.892874885582
    O            0.625793448579    -0.274698879015    -0.343321540942
    H            1.609525392235     0.479091717633     1.311870619048
    H            0.625286045932    -0.965996514138     1.593679260948
    C           -0.422095004080     0.556495594608    -0.324602589466
    O           -1.537558293653     0.204925460512    -0.287311946759
    H           -0.134429452877     1.607277732159    -0.359020154150

  Mulliken Charges: (a.u.)
   Center  Symbol    Alpha    Beta     Spin     Total
       1     H     0.44332  0.44332  0.00000  0.11336
       2     C     3.02280  3.02280  0.00000 -0.04560
       3     O     4.15156  4.15156  0.00000 -0.30312
       4     H     0.46721  0.46721  0.00000  0.06558
       5     H     0.45513  0.45513  0.00000  0.08974
       6     C     2.83155  2.83155  0.00000  0.33691
       7     O     4.16105  4.16105  0.00000 -0.32210
       8     H     0.46738  0.46738  0.00000  0.06524

   Total alpha = 16.00000, Total beta = 16.00000, Total charge = -0.00000
