  ==> Input File <==

--------------------------------------------------------------------------
set {
	reference rhf
	basis 6-31G*
}

set_num_threads( 4 )
memory 2 gb

molecule MOL {
0 1

H	 -2.508706	 -0.620617	 0.747695
O	 -2.176272	 0.126401	 1.225021
C	 -1.099140	 0.691395	 0.526768
C	 0.150279	 -0.161666	 0.656800
H	 -1.334371	 0.837385	 -0.523809
H	 -0.918617	 1.664366	 0.961728
O	 1.171513	 0.459272	 -0.058250
H	 -0.037684	 -1.163404	 0.265429
H	 0.413308	 -0.266496	 1.707709
C	 2.397842	 -0.198080	 -0.002151
H	 2.508049	 -0.905315	 -0.822092
H	 3.173794	 0.550865	 -0.078850
H	 2.517602	 -0.735921	 0.936026

	symmetry c1
}
set optking {
	frozen_dihedral = ("
		4 7 10 13
	")
}

ee = optimize('scf')
oeprop('DIPOLE', 'QUADRUPOLE', 'MULLIKEN_CHARGES')
f=open( 'psi4out.xyz', 'w' )
f.write( "13  " )
f.write( str(ee) + "\n" )
f.write( MOL.save_string_xyz() )
f.close()
--------------------------------------------------------------------------

    Molecular point group: c1
  Charge       = 0
  Multiplicity = 1
  Basis Set: 6-31G*
  Basis Set:
  @DF-RHF Final Energy:  -267.94852961050708
    Total Energy =                       -267.9485296105070802
    Molecular point group: c1
  Basis Set: 6-31G*
  Basis Set:
  Basis Set: 6-31G*
  Basis Set:
  @DF-RHF Final Energy:  -267.94863309607695
    Total Energy =                       -267.9486330960772307
  Basis Set: 6-31G*
  Basis Set:
  Basis Set: 6-31G*
  Basis Set:
  @DF-RHF Final Energy:  -267.94867391036559
    Total Energy =                       -267.9486739103653008
  Basis Set: 6-31G*
  Basis Set:
  Charge       = 0
  Multiplicity = 1
  Basis Set: 6-31G*
  Basis Set:

    Orbital Energies (a.u.)
    -----------------------

    Doubly Occupied:

       1A    -20.560491     2A    -20.560012     3A    -11.271202
       4A    -11.270074     5A    -11.268701     6A     -1.386405
       7A     -1.364756     8A     -1.018447     9A     -0.913519
      10A     -0.841753    11A     -0.709256    12A     -0.672220
      13A     -0.659352    14A     -0.637382    15A     -0.594916
      16A     -0.571104    17A     -0.545383    18A     -0.490467
      19A     -0.481428    20A     -0.438168    21A     -0.418872

  @DF-RHF Final Energy:  -267.94867422160081

   => Energetics <=

    Nuclear Repulsion Energy =            190.0605717422768635
    One-Electron Energy =                -742.6706766521037935
    Two-Electron Energy =                 284.6614306882259484
    DFT Exchange-Correlation Energy =       0.0000000000000000
    Empirical Dispersion Energy =           0.0000000000000000
    PCM Polarization Energy =               0.0000000000000000
    EFP Energy =                            0.0000000000000000
    Total Energy =                       -267.9486742216010384
    Molecular point group: c1
  Basis Set: 6-31G*
  Basis Set:

  -Total Gradient:
     Atom            X                  Y                   Z
    ------   -----------------  -----------------  -----------------
       1        0.000004897702     0.000007012034    -0.000001388462
       2       -0.000054230716     0.000013919600     0.000035732121
       3       -0.000008401558    -0.000051756167     0.000000932338
       4        0.000559307552     0.001285846819     0.001951684461
       5        0.000017413367     0.000005648650     0.000003902230
       6       -0.000010131359    -0.000003023492     0.000000626714
       7       -0.001096978990    -0.002568729941    -0.003162869312
       8       -0.000000521933     0.000005178483     0.000005372797
       9        0.000002486172     0.000009371448    -0.000016296443
      10        0.001842930574     0.003754730237     0.002424165110
      11       -0.000012431232    -0.000006748750     0.000001291442
      12        0.000014921353     0.000000210051     0.000003766249
      13       -0.001259260938    -0.002451658972    -0.001246919248

  **** Optimization is complete! (in 4 steps) ****
    Final optimized geometry and variables:
    Molecular point group: c1

    Geometry (in Angstrom), charge = 0, multiplicity = 1:

    H           -2.586329959236    -0.779083140855     0.268819582825
    O           -2.248914881166    -0.035177361144     0.747481233732
    C           -1.167534476040     0.523713332319     0.050409879760
    C            0.077034416931    -0.336049559958     0.182421157311
    H           -1.400863929346     0.670815204317    -1.000310939152
    H           -0.981483618026     1.495711130641     0.485225879047
    O            1.103482741537     0.285654190795    -0.525717926376
    H           -0.117576433672    -1.335701418815    -0.211205997907
    H            0.336222744781    -0.443250519505     1.233309579429
    C            2.341723557292    -0.356234005257    -0.475552299874
    H            2.438753121916    -1.070998284149    -1.289819966515
    H            3.116767528651     0.391942355610    -0.572682273021
    H            2.475245982578    -0.897547496111     0.457160011986

  Mulliken Charges: (a.u.)
   Center  Symbol    Alpha    Beta     Spin     Total
       1     H     0.28126  0.28126  0.00000  0.43747
       2     O     4.37093  4.37093  0.00000 -0.74187
       3     C     3.00483  3.00483  0.00000 -0.00966
       4     C     2.99649  2.99649  0.00000  0.00702
       5     H     0.42228  0.42228  0.00000  0.15543
       6     H     0.40847  0.40847  0.00000  0.18305
       7     O     4.31007  4.31007  0.00000 -0.62014
       8     H     0.43792  0.43792  0.00000  0.12417
       9     H     0.42260  0.42260  0.00000  0.15480
      10     C     3.07786  3.07786  0.00000 -0.15572
      11     H     0.42589  0.42589  0.00000  0.14822
      12     H     0.41270  0.41270  0.00000  0.17461
      13     H     0.42869  0.42869  0.00000  0.14262

   Total alpha = 21.00000, Total beta = 21.00000, Total charge =  0.00000
