  ==> Input File <==

--------------------------------------------------------------------------
set {
	reference rhf
	basis 6-31G*
}

set_num_threads( 4 )
memory 2 gb

molecule MOL {
0 1

H	 -3.226553	 0.609723	 -0.577358
C	 -2.471152	 0.084721	 -1.158637
O	 -1.392607	 -0.295399	 -0.366433
H	 -2.907962	 -0.815461	 -1.568529
H	 -2.158170	 0.728758	 -1.979421
C	 -0.719715	 0.768384	 0.229244
C	 0.719720	 0.768376	 -0.229267
H	 -1.185038	 1.714362	 -0.050570
H	 -0.750528	 0.687237	 1.313896
O	 1.392611	 -0.295398	 0.366430
H	 0.750534	 0.687200	 -1.313918
H	 1.185043	 1.714359	 0.050526
C	 2.706965	 -0.449871	 -0.062409
H	 2.756559	 -0.644779	 -1.131878
H	 3.305899	 0.433456	 0.155466
H	 3.125548	 -1.294566	 0.467107

	symmetry c1
}
set optking {
	frozen_dihedral = ("
		2 3 6 7
	")
}

ee = optimize('scf')
oeprop('DIPOLE', 'QUADRUPOLE', 'MULLIKEN_CHARGES')
f=open( 'psi4out.xyz', 'w' )
f.write( "16  " )
f.write( str(ee) + "\n" )
f.write( MOL.save_string_xyz() )
f.close()
--------------------------------------------------------------------------

    Molecular point group: c1
  Charge       = 0
  Multiplicity = 1
  Basis Set: 6-31G*
  Basis Set:
  @DF-RHF Final Energy:  -306.97277348682485
    Total Energy =                       -306.9727734868249627
    Molecular point group: c1
  Basis Set: 6-31G*
  Basis Set:
  Basis Set: 6-31G*
  Basis Set:
  @DF-RHF Final Energy:  -306.97323147345708
    Total Energy =                       -306.9732314734569627
  Basis Set: 6-31G*
  Basis Set:
  Basis Set: 6-31G*
  Basis Set:
  @DF-RHF Final Energy:  -306.97335625945595
    Total Energy =                       -306.9733562594560112
  Basis Set: 6-31G*
  Basis Set:
  Charge       = 0
  Multiplicity = 1
  Basis Set: 6-31G*
  Basis Set:

    Orbital Energies (a.u.)
    -----------------------

    Doubly Occupied:

       1A    -20.553602     2A    -20.550714     3A    -11.268983
       4A    -11.268331     5A    -11.265820     6A    -11.263630
       7A     -1.386308     8A     -1.368433     9A     -1.029448
      10A     -0.938393    11A     -0.895625    12A     -0.821415
      13A     -0.685303    14A     -0.676769    15A     -0.657153
      16A     -0.637820    17A     -0.622215    18A     -0.603321
      19A     -0.558878    20A     -0.526628    21A     -0.510698
      22A     -0.477851    23A     -0.469358    24A     -0.415541
      25A     -0.406694

  @DF-RHF Final Energy:  -306.97335794865342

   => Energetics <=

    Nuclear Repulsion Energy =            258.9269376135005132
    One-Electron Energy =                -932.0827277758775153
    Two-Electron Energy =                 366.1824322137237004
    DFT Exchange-Correlation Energy =       0.0000000000000000
    Empirical Dispersion Energy =           0.0000000000000000
    PCM Polarization Energy =               0.0000000000000000
    EFP Energy =                            0.0000000000000000
    Total Energy =                       -306.9733579486533017
    Molecular point group: c1
  Basis Set: 6-31G*
  Basis Set:

  -Total Gradient:
     Atom            X                  Y                   Z
    ------   -----------------  -----------------  -----------------
       1        0.000038420901     0.000009184175     0.000010280793
       2       -0.000087115452    -0.000106175198    -0.000080560523
       3       -0.000050221534     0.000055557848    -0.000041580988
       4       -0.000034544040     0.000003462505    -0.000030954925
       5        0.000038080277    -0.000004020570     0.000051294226
       6        0.000034926198    -0.000084363063     0.000054161243
       7       -0.000006499522     0.000195475688     0.000056239332
       8        0.000019786769    -0.000006666186    -0.000009221410
       9        0.000075444645     0.000045414288     0.000000655948
      10       -0.000030346770    -0.000070396090     0.000000348959
      11       -0.000000648056    -0.000053364842     0.000034746491
      12        0.000013502646    -0.000004458998    -0.000019193171
      13       -0.000013374329     0.000022079532    -0.000038954361
      14        0.000009693875    -0.000003568997     0.000002224691
      15        0.000002903767    -0.000000030371     0.000003366941
      16       -0.000010009371     0.000001870280     0.000007146753

  **** Optimization is complete! (in 4 steps) ****
    Final optimized geometry and variables:
    Molecular point group: c1

    Geometry (in Angstrom), charge = 0, multiplicity = 1:

    H           -3.295773136942     0.503194180447    -0.380020735709
    C           -2.531867072120    -0.031966119992    -0.940513147917
    O           -1.448668623612    -0.375642001332    -0.136223823191
    H           -2.958518969693    -0.951094779377    -1.318095288908
    H           -2.228878175064     0.584324150701    -1.785227782874
    C           -0.748933832613     0.692909238161     0.434945702785
    C            0.699624563658     0.692609226604    -0.004675417816
    H           -1.198069593487     1.643656178199     0.156883137729
    H           -0.792593637740     0.604803666491     1.515045064580
    O            1.349522195808    -0.400306464462     0.561205894997
    H            0.749871429040     0.649243288583    -1.091891121817
    H            1.174443202251     1.622010878234     0.314830918230
    C            2.668999404312    -0.556748190201     0.149513875534
    H            2.735011503263    -0.713798172083    -0.925405432008
    H            3.274721453012     0.310433975094     0.409076258838
    H            3.067617514968    -1.425318685161     0.655169354860

  Mulliken Charges: (a.u.)
   Center  Symbol    Alpha    Beta     Spin     Total
       1     H     0.42954  0.42954  0.00000  0.14092
       2     C     3.07956  3.07956  0.00000 -0.15912
       3     O     4.30193  4.30193  0.00000 -0.60386
       4     H     0.41146  0.41146  0.00000  0.17708
       5     H     0.43241  0.43241  0.00000  0.13519
       6     C     2.99771  2.99771  0.00000  0.00458
       7     C     2.98979  2.98979  0.00000  0.02042
       8     H     0.43061  0.43061  0.00000  0.13879
       9     H     0.41293  0.41293  0.00000  0.17413
      10     O     4.29949  4.29949  0.00000 -0.59898
      11     H     0.42922  0.42922  0.00000  0.14156
      12     H     0.43449  0.43449  0.00000  0.13101
      13     C     3.07915  3.07915  0.00000 -0.15831
      14     H     0.42898  0.42898  0.00000  0.14204
      15     H     0.43191  0.43191  0.00000  0.13617
      16     H     0.41082  0.41082  0.00000  0.17837

   Total alpha = 25.00000, Total beta = 25.00000, Total charge =  0.00000
