                              Psi4 1.0.54 Driver

  ==> Input File <==

--------------------------------------------------------------------------
set {
	reference rhf
	basis cc-pvtz
}

set_num_threads( 4 )
memory 2 gb

molecule MOL {
0 1

H	 2.867672	 -0.456275	 0.875795
C	 2.403497	 -0.020426	 0.000000
N	 0.989899	 -0.304564	 0.000000
H	 2.867672	 -0.456275	 -0.875795
H	 2.620366	 1.051270	 0.000000
C	 0.493171	 -0.641469	 1.318076
C	 0.631530	 -1.329812	 -0.958127
H	 0.982212	 -1.537563	 1.712535
H	 0.705912	 0.174765	 1.998686
C	 -1.004452	 -0.875190	 1.265697
H	 0.945790	 -1.018637	 -1.947641
H	 1.130978	 -2.277680	 -0.734872
C	 -0.869647	 -1.545847	 -0.952021
H	 -1.368863	 -1.216455	 2.224535
H	 -1.509265	 0.055962	 1.016263
O	 -1.329168	 -1.859447	 0.329245
H	 -1.136617	 -2.371888	 -1.596234
H	 -1.367485	 -0.649399	 -1.316215

	symmetry c1
}
set optking {
	frozen_dihedral = ("
		6 3 2 5
	")
}

ee,wfn = optimize('scf', return_wfn=True)
oeprop( wfn, 'DIPOLE', 'QUADRUPOLE', 'MULLIKEN_CHARGES')
f=open( 'psi4out.xyz', 'w' )
f.write( "18  " )
f.write( str(ee) + "\n" )
f.write( MOL.save_string_xyz() )
f.close()
--------------------------------------------------------------------------

    Molecular point group: c1
  Charge       = 0
  Multiplicity = 1
  Basis Set: CC-PVTZ
  Basis Set:
  @DF-RHF Final Energy:  -325.14021518582030
    Total Energy =                       -325.1402151858204661
    Molecular point group: c1
  Basis Set: CC-PVTZ
  Basis Set:
  Basis Set: CC-PVTZ
  Basis Set:
  @DF-RHF Final Energy:  -325.14080584938159
    Total Energy =                       -325.1408058493818203
  Basis Set: CC-PVTZ
  Basis Set:
  Basis Set: CC-PVTZ
  Basis Set:
  @DF-RHF Final Energy:  -325.14091429981357
    Total Energy =                       -325.1409142998137440
  Basis Set: CC-PVTZ
  Basis Set:
  Basis Set: CC-PVTZ
  Basis Set:
  @DF-RHF Final Energy:  -325.14091729466679
    Total Energy =                       -325.1409172946669059
  Basis Set: CC-PVTZ
  Basis Set:
  Charge       = 0
  Multiplicity = 1
  Basis Set: CC-PVTZ
  Basis Set:

    Orbital Energies (a.u.)
    -----------------------

    Doubly Occupied:

       1A    -20.547066     2A    -15.542973     3A    -11.263715
       4A    -11.263665     5A    -11.242427     6A    -11.242334
       7A    -11.238761     8A     -1.386052     9A     -1.230430
      10A     -1.038500    11A     -0.981148    12A     -0.883132
      13A     -0.870359    14A     -0.774743    15A     -0.684529
      16A     -0.645641    17A     -0.644039    18A     -0.631809
      19A     -0.629423    20A     -0.573115    21A     -0.557298
      22A     -0.547135    23A     -0.526316    24A     -0.500322
      25A     -0.483123    26A     -0.453327    27A     -0.409905
      28A     -0.353336

  @DF-RHF Final Energy:  -325.14091762456133

   => Energetics <=

    Nuclear Repulsion Energy =            341.5445379278239670
    One-Electron Energy =               -1119.0816594828963844
    Two-Electron Energy =                 452.3962039305115468
    DFT Exchange-Correlation Energy =       0.0000000000000000
    Empirical Dispersion Energy =           0.0000000000000000
    PCM Polarization Energy =               0.0000000000000000
    EFP Energy =                            0.0000000000000000
    Total Energy =                       -325.1409176245608705
    Molecular point group: c1
  Basis Set: CC-PVTZ
  Basis Set:

  -Total Gradient:
     Atom            X                  Y                   Z
    ------   -----------------  -----------------  -----------------
       1       -0.000004238062    -0.000010641993    -0.000004247052
       2        0.000203388695    -0.001030952516     0.004995264099
       3       -0.000817384133     0.004069614626    -0.000396900193
       4        0.000009170413    -0.000013247265    -0.000004968177
       5       -0.000006486553    -0.000073863079    -0.004094574611
       6        0.000612097665    -0.002964559646    -0.000539749752
       7        0.000013844179     0.000046325521     0.000026251403
       8        0.000008369528    -0.000006350294     0.000003441756
       9       -0.000003273495    -0.000004589321     0.000006605819
      10       -0.000015163056    -0.000001060730     0.000015522786
      11       -0.000002480185    -0.000005799597     0.000000978987
      12        0.000006278651    -0.000004705972     0.000001633882
      13       -0.000018459544     0.000012638688    -0.000014787954
      14       -0.000003407794    -0.000003359875    -0.000000629649
      15        0.000004433068     0.000002800952     0.000000704476
      16        0.000011149545    -0.000011835210     0.000003844857
      17       -0.000000059904    -0.000002233719     0.000005778234
      18        0.000002220979     0.000001819425    -0.000004168909

  **** Optimization is complete! (in 5 steps) ****
    Final optimized geometry and variables:
    Molecular point group: c1

    Geometry (in Angstrom), charge = 0, multiplicity = 1:

    H            2.750220418790     0.486912594718     0.688745644688
    C            2.232249536472     0.917573354419    -0.164902021021
    N            0.809664334167     0.625017242954    -0.159018715047
    H            2.694361883422     0.514162867433    -1.057668128865
    H            2.407490812023     1.987397016272    -0.182699193666
    C            0.311985052900     0.307094680295     1.164198935634
    C            0.431451898219    -0.414526704411    -1.096774391973
    H            0.787446733785    -0.594538054692     1.561509005890
    H            0.542540794115     1.123351933083     1.839787956558
    C           -1.189882338269     0.101307360474     1.124479115288
    H            0.742901764522    -0.127447318609    -2.093953745062
    H            0.911989769612    -1.368683810464    -0.859858115688
    C           -1.073854837487    -0.601191932666    -1.083553207113
    H           -1.553567658860    -0.222080690860     2.089942827236
    H           -1.678853411641     1.039034157732     0.868009917010
    O           -1.538684760722    -0.887560034898     0.201973831506
    H           -1.357891585164    -1.430529604916    -1.716384960828
    H           -1.553414118105     0.300260186445    -1.460090909913

  Mulliken Charges: (a.u.)
   Center  Symbol    Alpha    Beta     Spin     Total
       1     H     0.46314  0.46314  0.00000  0.07372
       2     C     3.09141  3.09141  0.00000 -0.18282
       3     N     3.61999  3.61999  0.00000 -0.23998
       4     H     0.45741  0.45741  0.00000  0.08517
       5     H     0.44886  0.44886  0.00000  0.10227
       6     C     3.04259  3.04259  0.00000 -0.08519
       7     C     3.04054  3.04054  0.00000 -0.08109
       8     H     0.46832  0.46832  0.00000  0.06335
       9     H     0.45349  0.45349  0.00000  0.09302
      10     C     2.98430  2.98430  0.00000  0.03139
      11     H     0.45389  0.45389  0.00000  0.09223
      12     H     0.46881  0.46881  0.00000  0.06239
      13     C     2.98459  2.98459  0.00000  0.03082
      14     H     0.45011  0.45011  0.00000  0.09978
      15     H     0.46798  0.46798  0.00000  0.06404
      16     O     4.18644  4.18644  0.00000 -0.37288
      17     H     0.45000  0.45000  0.00000  0.10000
      18     H     0.46812  0.46812  0.00000  0.06375

   Total alpha = 28.00000, Total beta = 28.00000, Total charge = -0.00000

*** Psi4 exiting successfully. Buy a developer a beer!
