  ==> Input File <==

--------------------------------------------------------------------------
set {
	reference rhf
	basis cc-pvtz
}

set_num_threads( 4 )
memory 2 gb

molecule MOL {
0 1

H	 0.094127	 -0.945449	 -1.614066
C	 -0.584234	 -1.309887	 -0.846020
O	 -1.401606	 -0.295183	 -0.366624
H	 -1.219227	 -2.070808	 -1.275755
H	 0.007127	 -1.757353	 -0.049182
C	 -0.718530	 0.758693	 0.228682
C	 0.718529	 0.758687	 -0.228709
H	 -1.176498	 1.708665	 -0.046615
H	 -0.748705	 0.673525	 1.312779
O	 1.401606	 -0.295166	 0.366636
H	 0.748705	 0.673477	 -1.312803
H	 1.176496	 1.708671	 0.046552
C	 2.714315	 -0.441627	 -0.061017
H	 2.765292	 -0.641548	 -1.128869
H	 3.305661	 0.447341	 0.150952
H	 3.143725	 -1.278506	 0.470147

	symmetry c1
}
set optking {
	frozen_dihedral = ("
		2 3 6 7
	")
}

ee = optimize('scf')
oeprop('DIPOLE', 'QUADRUPOLE', 'MULLIKEN_CHARGES')
f=open( 'psi4out.xyz', 'w' )
f.write( "16  " )
f.write( str(ee) + "\n" )
f.write( MOL.save_string_xyz() )
f.close()
--------------------------------------------------------------------------

    Molecular point group: c1
  Charge       = 0
  Multiplicity = 1
  Basis Set: CC-PVTZ
  Basis Set:
  @DF-RHF Final Energy:  -307.07127949947704
    Total Energy =                       -307.0712794994771002
    Molecular point group: c1
  Basis Set: CC-PVTZ
  Basis Set:
  Basis Set: CC-PVTZ
  Basis Set:
  @DF-RHF Final Energy:  -307.08325589111308
    Total Energy =                       -307.0832558911127990
  Basis Set: CC-PVTZ
  Basis Set:
  Basis Set: CC-PVTZ
  Basis Set:
  @DF-RHF Final Energy:  -307.08774520400362
    Total Energy =                       -307.0877452040037383
  Basis Set: CC-PVTZ
  Basis Set:
  Basis Set: CC-PVTZ
  Basis Set:
  @DF-RHF Final Energy:  -307.08891909993167
    Total Energy =                       -307.0889190999318998
  Basis Set: CC-PVTZ
  Basis Set:
  @DF-RHF Final Energy:  -307.08949555597633
    Total Energy =                       -307.0894955559763275
  Basis Set: CC-PVTZ
  Basis Set:
  @DF-RHF Final Energy:  -307.08961769938685
    Total Energy =                       -307.0896176993865083
  Basis Set: CC-PVTZ
  Basis Set:
  Basis Set: CC-PVTZ
  Basis Set:
  @DF-RHF Final Energy:  -307.08968179886079
    Total Energy =                       -307.0896817988608518
  Basis Set: CC-PVTZ
  Basis Set:
  Basis Set: CC-PVTZ
  Basis Set:
  @DF-RHF Final Energy:  -307.08969821006031
    Total Energy =                       -307.0896982100603623
  Basis Set: CC-PVTZ
  Basis Set:
  Charge       = 0
  Multiplicity = 1
  Basis Set: CC-PVTZ
  Basis Set:

    Orbital Energies (a.u.)
    -----------------------

    Doubly Occupied:

       1A    -20.557831     2A    -20.540067     3A    -11.274776
       4A    -11.269909     5A    -11.266906     6A    -11.253752
       7A     -1.395190     8A     -1.366423     9A     -1.030938
      10A     -0.951706    11A     -0.896897    12A     -0.812831
      13A     -0.695850    14A     -0.683388    15A     -0.657682
      16A     -0.636535    17A     -0.627449    18A     -0.593184
      19A     -0.556006    20A     -0.547255    21A     -0.517776
      22A     -0.493757    23A     -0.449461    24A     -0.426351
      25A     -0.406321

  @DF-RHF Final Energy:  -307.08969898064726

   => Energetics <=

    Nuclear Repulsion Energy =            264.8575737723814996
    One-Electron Energy =                -944.0780641836824998
    Two-Electron Energy =                 372.1307914306537441
    DFT Exchange-Correlation Energy =       0.0000000000000000
    Empirical Dispersion Energy =           0.0000000000000000
    PCM Polarization Energy =               0.0000000000000000
    EFP Energy =                            0.0000000000000000
    Total Energy =                       -307.0896989806471993
    Molecular point group: c1
  Basis Set: CC-PVTZ
  Basis Set:

  -Total Gradient:
     Atom            X                  Y                   Z
    ------   -----------------  -----------------  -----------------
       1       -0.000021430625    -0.000013153974     0.000003635633
       2        0.000071922320     0.001406006876    -0.002874375082
       3        0.000240995966    -0.003108560561     0.005474165623
       4       -0.000000116742    -0.000015421572    -0.000015704776
       5       -0.000020680250    -0.000013142017    -0.000021896220
       6       -0.001051201999     0.003411398166    -0.004814776948
       7        0.000758943430    -0.001745538854     0.002225253087
       8        0.000006754598     0.000006713817     0.000004498924
       9        0.000017563293     0.000013488280     0.000003130760
      10       -0.000043341403     0.000043018886     0.000032228310
      11       -0.000013574197     0.000031935614     0.000004475325
      12       -0.000004844354     0.000003895219    -0.000002323294
      13        0.000123728385    -0.000021213886    -0.000036282407
      14       -0.000027391194     0.000004457595     0.000011535679
      15       -0.000030230236    -0.000006631340     0.000002466556
      16       -0.000007096989     0.000002747751     0.000003968831

  **** Optimization is complete! (in 9 steps) ****
    Final optimized geometry and variables:
    Molecular point group: c1

    Geometry (in Angstrom), charge = 0, multiplicity = 1:

    H           -0.639985643805    -1.082916490546    -1.577279083558
    C           -1.291597650420    -1.300748312604    -0.737887900130
    O           -1.843473235037    -0.148804965144    -0.179481151693
    H           -2.122125673884    -1.889837389115    -1.100084804561
    H           -0.735478598450    -1.881313305039    -0.011908982719
    C           -1.030599222775     0.857571150748     0.353326345636
    C            0.420090544695     0.912534097581    -0.079428088107
    H           -1.492542825163     1.799922481494     0.083303901009
    H           -1.041584809854     0.782614251810     1.437347558022
    O            1.150319019012    -0.115248079532     0.509596963013
    H            0.508637893397     0.874282430035    -1.163527951079
    H            0.811709956415     1.877718564574     0.239838066351
    C            2.499637971040    -0.123689109865     0.176184472916
    H            2.645058315098    -0.255172214442    -0.893701564898
    H            2.989051963077     0.799384809247     0.478826776264
    H            2.963412940303    -0.949777284409     0.694855450084

  Mulliken Charges: (a.u.)
   Center  Symbol    Alpha    Beta     Spin     Total
       1     H     0.47445  0.47445  0.00000  0.05109
       2     C     3.03131  3.03131  0.00000 -0.06262
       3     O     4.18318  4.18318  0.00000 -0.36635
       4     H     0.44564  0.44564  0.00000  0.10871
       5     H     0.46265  0.46265  0.00000  0.07471
       6     C     2.95806  2.95806  0.00000  0.08387
       7     C     3.00253  3.00253  0.00000 -0.00507
       8     H     0.46179  0.46179  0.00000  0.07641
       9     H     0.46664  0.46664  0.00000  0.06671
      10     O     4.17558  4.17558  0.00000 -0.35116
      11     H     0.46297  0.46297  0.00000  0.07405
      12     H     0.45740  0.45740  0.00000  0.08521
      13     C     3.03480  3.03480  0.00000 -0.06960
      14     H     0.47002  0.47002  0.00000  0.05996
      15     H     0.46796  0.46796  0.00000  0.06409
      16     H     0.44501  0.44501  0.00000  0.10999

   Total alpha = 25.00000, Total beta = 25.00000, Total charge = -0.00000
