  ==> Input File <==

--------------------------------------------------------------------------
set {
	reference rhf
	basis 6-31G*
}

set_num_threads( 4 )
memory 2 gb

molecule MOL {
0 1

H	 -1.748661	 -2.220942	 -0.005015
C	 -1.343207	 -1.225221	 -0.013879
N	 -0.055091	 -1.100174	 -0.261126
C	 -2.150779	 -0.125890	 0.222726
C	 0.449969	 0.122615	 -0.277109
H	 -3.200618	 -0.238980	 0.422496
N	 -1.660212	 1.097703	 0.209594
C	 -0.371804	 1.219904	 -0.038265
C	 1.928147	 0.267347	 -0.541394
H	 0.029131	 2.217482	 -0.051283
C	 2.756420	 0.260856	 0.747766
H	 2.242531	 -0.554151	 -1.176349
H	 2.109486	 1.185436	 -1.091306
H	 3.814896	 0.338967	 0.520774
H	 2.593678	 -0.657309	 1.300003
H	 2.487902	 1.094216	 1.389420

	symmetry c1
}
set optking {
	frozen_dihedral = ("
		12 9 5 3
	")
}

ee = optimize('scf')
oeprop('DIPOLE', 'QUADRUPOLE', 'MULLIKEN_CHARGES')
f=open( 'psi4out.xyz', 'w' )
f.write( "16  " )
f.write( str(ee) + "\n" )
f.write( MOL.save_string_xyz() )
f.close()
--------------------------------------------------------------------------

    Molecular point group: c1
  Charge       = 0
  Multiplicity = 1
  Basis Set: 6-31G*
  Basis Set:
  @DF-RHF Final Energy:  -340.75807790692528
    Total Energy =                       -340.7580779069254504
    Molecular point group: c1
  Basis Set: 6-31G*
  Basis Set:
  Basis Set: 6-31G*
  Basis Set:
  @DF-RHF Final Energy:  -340.75810328520106
    Total Energy =                       -340.7581032852011731
  Basis Set: 6-31G*
  Basis Set:
  Basis Set: 6-31G*
  Basis Set:
  @DF-RHF Final Energy:  -340.75811545013545
    Total Energy =                       -340.7581154501353922
  Basis Set: 6-31G*
  Basis Set:
  Basis Set: 6-31G*
  Basis Set:
  @DF-RHF Final Energy:  -340.75812317907565
    Total Energy =                       -340.7581231790757101
  Basis Set: 6-31G*
  Basis Set:
  Basis Set: 6-31G*
  Basis Set:
  @DF-RHF Final Energy:  -340.75812431499480
    Total Energy =                       -340.7581243149945749
  Basis Set: 6-31G*
  Basis Set:
  Charge       = 0
  Multiplicity = 1
  Basis Set: 6-31G*
  Basis Set:

    Orbital Energies (a.u.)
    -----------------------

    Doubly Occupied:

       1A    -15.586915     2A    -15.582379     3A    -11.281322
       4A    -11.275706     5A    -11.272621     6A    -11.271725
       7A    -11.232637     8A    -11.220734     9A     -1.313345
      10A     -1.221963    11A     -1.085066    12A     -1.014448
      13A     -0.903708    14A     -0.894675    15A     -0.829028
      16A     -0.715524    17A     -0.710496    18A     -0.658751
      19A     -0.609976    20A     -0.605252    21A     -0.583017
      22A     -0.561614    23A     -0.521994    24A     -0.507747
      25A     -0.502393    26A     -0.484612    27A     -0.429143
      28A     -0.395090    29A     -0.344970

  @DF-RHF Final Energy:  -340.75812451376680

   => Energetics <=

    Nuclear Repulsion Energy =            349.7588549775963429
    One-Electron Energy =               -1153.8002586357538348
    Two-Electron Energy =                 463.2832791443906899
    DFT Exchange-Correlation Energy =       0.0000000000000000
    Empirical Dispersion Energy =           0.0000000000000000
    PCM Polarization Energy =               0.0000000000000000
    EFP Energy =                            0.0000000000000000
    Total Energy =                       -340.7581245137668020
    Molecular point group: c1
  Basis Set: 6-31G*
  Basis Set:

  -Total Gradient:
     Atom            X                  Y                   Z
    ------   -----------------  -----------------  -----------------
       1        0.000007457208    -0.000001037506     0.000035858948
       2       -0.000015805566     0.000004044435    -0.000085855065
       3       -0.000120958589     0.000050166582    -0.000695797069
       4        0.000001187852     0.000007359254    -0.000027252052
       5        0.000229962894    -0.000179643052     0.001198194760
       6        0.000005857362    -0.000000163114     0.000026974977
       7       -0.000001124716    -0.000001037965    -0.000015570300
       8        0.000009084708     0.000001386852     0.000060591277
       9       -0.000278065638     0.000581488155    -0.001142335204
      10       -0.000009404442    -0.000003007606    -0.000025360548
      11       -0.000000732830    -0.000007594287     0.000035213906
      12        0.000168536664    -0.000451815143     0.000657120190
      13        0.000006842341    -0.000008789934    -0.000003959425
      14       -0.000000521049     0.000000619325    -0.000005680085
      15       -0.000001336473     0.000006111071    -0.000011042824
      16       -0.000000979726     0.000001912932    -0.000001101484

  **** Optimization is complete! (in 6 steps) ****
    Final optimized geometry and variables:
    Molecular point group: c1

    Geometry (in Angstrom), charge = 0, multiplicity = 1:

    H           -1.746563260388    -2.288058687764    -0.014026189397
    C           -1.340997770777    -1.292476836713    -0.026039248368
    N           -0.051242294200    -1.169674538550    -0.280199093419
    C           -2.144848745521    -0.194012141535     0.212426018961
    C            0.454013670942     0.050446402599    -0.298225095168
    H           -3.193814149196    -0.304637297117     0.417726749943
    N           -1.652922566461     1.031584273578     0.192733770556
    C           -0.368005375721     1.151205251395    -0.060752327549
    C            1.931803261791     0.202642095843    -0.560016319036
    H            0.034345901516     2.148581573094    -0.083206084232
    C            2.755575274799     0.191069770951     0.733789515845
    H            2.245655557883    -0.618737868010    -1.192535860035
    H            2.114914772925     1.125587487421    -1.101875137470
    H            3.814186039097     0.281588767834     0.512829232478
    H            2.601298990339    -0.735259929193     1.276306434367
    H            2.477717676676     1.013259937871     1.385974329577

  Mulliken Charges: (a.u.)
   Center  Symbol    Alpha    Beta     Spin     Total
       1     H     0.39379  0.39379  0.00000  0.21242
       2     C     2.99099  2.99099  0.00000  0.01803
       3     N     3.75340  3.75340  0.00000 -0.50681
       4     C     2.99814  2.99814  0.00000  0.00373
       5     C     2.87689  2.87689  0.00000  0.24621
       6     H     0.39424  0.39424  0.00000  0.21152
       7     N     3.72938  3.72938  0.00000 -0.45876
       8     C     2.99546  2.99546  0.00000  0.00907
       9     C     3.17094  3.17094  0.00000 -0.34189
      10     H     0.39526  0.39526  0.00000  0.20948
      11     C     3.24224  3.24224  0.00000 -0.48448
      12     H     0.40111  0.40111  0.00000  0.19778
      13     H     0.41379  0.41379  0.00000  0.17241
      14     H     0.41579  0.41579  0.00000  0.16842
      15     H     0.41004  0.41004  0.00000  0.17992
      16     H     0.41852  0.41852  0.00000  0.16296

   Total alpha = 29.00000, Total beta = 29.00000, Total charge = -0.00000
