  ==> Input File <==

--------------------------------------------------------------------------
set {
	reference rhf
	basis cc-pvtz
}

set_num_threads( 4 )
memory 2 gb

molecule MOL {
0 1

H	 2.090483	 0.067670	 -0.368889
C	 1.189450	 -0.484952	 -0.209887
C	 1.181968	 -1.865052	 -0.208593
C	 0.000000	 0.179985	 0.000046
H	 2.096539	 -2.400793	 -0.370013
C	 0.000001	 -2.552036	 -0.000007
N	 0.000000	 1.644631	 0.000076
C	 -1.189451	 -0.484961	 0.209950
H	 0.000000	 -3.625035	 -0.000032
C	 -1.181968	 -1.865061	 0.208603
O	 1.050559	 2.194174	 -0.000073
O	 -1.050559	 2.194174	 -0.000074
H	 -2.090481	 0.067655	 0.368983
H	 -2.096540	 -2.400808	 0.369997

	symmetry c1
}
set optking {
	frozen_dihedral = ("
		2 4 7 11
	")
}

ee = optimize('scf')
oeprop('DIPOLE', 'QUADRUPOLE', 'MULLIKEN_CHARGES')
f=open( 'psi4out.xyz', 'w' )
f.write( "14  " )
f.write( str(ee) + "\n" )
f.write( MOL.save_string_xyz() )
f.close()
--------------------------------------------------------------------------

    Molecular point group: c1
  Charge       = 0
  Multiplicity = 1
  Basis Set: CC-PVTZ
  Basis Set:
  @DF-RHF Final Energy:  -434.32992097879685
    Total Energy =                       -434.3299209787969630
    Molecular point group: c1
  Basis Set: CC-PVTZ
  Basis Set:
  Basis Set: CC-PVTZ
  Basis Set:
  @DF-RHF Final Energy:  -434.32818678794001
    Total Energy =                       -434.3281867879400124
  Basis Set: CC-PVTZ
  Basis Set:
  Basis Set: CC-PVTZ
  Basis Set:
  @DF-RHF Final Energy:  -434.32992393728375
    Total Energy =                       -434.3299239372835245
  Basis Set: CC-PVTZ
  Basis Set:
  Charge       = 0
  Multiplicity = 1
  Basis Set: CC-PVTZ
  Basis Set:

    Orbital Energies (a.u.)
    -----------------------

    Doubly Occupied:

       1A    -20.591845     2A    -20.591788     3A    -15.847738
       4A    -11.302494     5A    -11.267246     6A    -11.267205
       7A    -11.264737     8A    -11.258267     9A    -11.258130
      10A     -1.641232    11A     -1.423610    12A     -1.204605
      13A     -1.095749    14A     -1.055095    15A     -0.959471
      16A     -0.867259    17A     -0.829008    18A     -0.789382
      19A     -0.740759    20A     -0.735321    21A     -0.711713
      22A     -0.659646    23A     -0.651968    24A     -0.626430
      25A     -0.555413    26A     -0.541043    27A     -0.531378
      28A     -0.492392    29A     -0.491613    30A     -0.457595
      31A     -0.377584    32A     -0.369335

  @DF-RHF Final Energy:  -434.32993629889216

   => Energetics <=

    Nuclear Repulsion Energy =            418.2278254727397666
    One-Electron Energy =               -1420.2014229435201287
    Two-Electron Energy =                 567.6436611718884251
    DFT Exchange-Correlation Energy =       0.0000000000000000
    Empirical Dispersion Energy =           0.0000000000000000
    PCM Polarization Energy =               0.0000000000000000
    EFP Energy =                            0.0000000000000000
    Total Energy =                       -434.3299362988918801
    Molecular point group: c1
  Basis Set: CC-PVTZ
  Basis Set:

  -Total Gradient:
     Atom            X                  Y                   Z
    ------   -----------------  -----------------  -----------------
       1        0.000008776192     0.000004198785    -0.000001504881
       2       -0.000153247317     0.000000161575    -0.000755981473
       3        0.000001194497     0.000007570166     0.000026044260
       4        0.000202314184     0.000000664432     0.001443159713
       5       -0.000000189611     0.000002717261    -0.000006919647
       6       -0.000012174092    -0.000002626498    -0.000050450106
       7       -0.000059839806    -0.000008605540    -0.001619614619
       8        0.000009230365    -0.000002296320     0.000017477088
       9        0.000002884990     0.000001896597     0.000009000664
      10        0.000010524653    -0.000001836324     0.000027845036
      11       -0.000007977775    -0.000015124642     0.000911972455
      12        0.000002801367     0.000013337874     0.000010476379
      13       -0.000003191706    -0.000002358244    -0.000009186472
      14       -0.000001105941     0.000002300880    -0.000002318396

  **** Optimization is complete! (in 4 steps) ****
    Final optimized geometry and variables:
    Molecular point group: c1

    Geometry (in Angstrom), charge = 0, multiplicity = 1:

    H            2.091517136357     0.068666857792    -0.362210036598
    C            1.190035630216    -0.484322033934    -0.206334744603
    C            1.181705516755    -1.864389359296    -0.209885927452
    C            0.000755798626     0.179960187102     0.004692777349
    H            2.095419873656    -2.400203360440    -0.375754386462
    C           -0.000071229464    -2.551262163451    -0.000198131541
    N           -0.000064533271     1.644044867491    -0.002109307460
    C           -1.189830651404    -0.484308313081     0.208349767370
    H           -0.000254691471    -3.624224188063    -0.001249548964
    C           -1.181748658145    -1.864383871302     0.210117145910
    O            1.050659087253     2.193424626119    -0.008495788635
    O           -1.051166487775     2.192657472666     0.005594865868
    H           -2.091775190479     0.068615366477     0.361600429815
    H           -2.096035683882    -2.400229684103     0.372698161269

  Mulliken Charges: (a.u.)
   Center  Symbol    Alpha    Beta     Spin     Total
       1     H     0.39947  0.39947  0.00000  0.20107
       2     C     3.07743  3.07743  0.00000 -0.15486
       3     C     3.07219  3.07219  0.00000 -0.14438
       4     C     2.97885  2.97885  0.00000  0.04229
       5     H     0.41694  0.41694  0.00000  0.16612
       6     C     3.06468  3.06468  0.00000 -0.12937
       7     N     3.25405  3.25405  0.00000  0.49189
       8     C     3.07736  3.07736  0.00000 -0.15471
       9     H     0.41709  0.41709  0.00000  0.16582
      10     C     3.07213  3.07213  0.00000 -0.14426
      11     O     4.17666  4.17666  0.00000 -0.35333
      12     O     4.17671  4.17671  0.00000 -0.35343
      13     H     0.39949  0.39949  0.00000  0.20103
      14     H     0.41694  0.41694  0.00000  0.16611

   Total alpha = 32.00000, Total beta = 32.00000, Total charge = -0.00000
