  ==> Input File <==

--------------------------------------------------------------------------
set {
	reference rhf
	basis 6-31G*
}

set_num_threads( 1 )
memory 2 gb

molecule MOL {
0 1

O	 -2.791990	 0.280632	 0.733463
C	 -1.921153	 0.064240	 -0.045697
C	 -2.127546	 -0.349274	 -1.477743
O	 -0.632575	 0.154573	 0.251549
H	 -1.655145	 -1.308895	 -1.653561
H	 -3.184707	 -0.413350	 -1.687841
H	 -1.660623	 0.372306	 -2.138092
C	 0.160891	 -1.019931	 0.106212
C	 1.589627	 -0.672828	 0.480843
H	 0.089836	 -1.367806	 -0.916050
H	 -0.238459	 -1.792301	 0.749618
C	 2.246377	 0.346236	 -0.452210
H	 2.163194	 -1.597435	 0.473358
H	 1.604769	 -0.303424	 1.502885
C	 3.691736	 0.652107	 -0.061850
H	 2.219579	 -0.032311	 -1.472055
H	 1.666466	 1.263317	 -0.447249
H	 4.134505	 1.377213	 -0.737283
H	 4.305508	 -0.243868	 -0.089969
H	 3.748266	 1.059562	 0.943567

	symmetry c1
}
set optking {
	frozen_dihedral = ("
		16 12 9 8,
		2 4 8 10,
		12 9 8 10
	")
}

ee = energy('scf')
oeprop('DIPOLE', 'QUADRUPOLE', 'MULLIKEN_CHARGES')
f=open( 'psi4out.xyz', 'w' )
f.write( "20  " )
f.write( str(ee) + "\n" )
f.write( MOL.save_string_xyz() )
f.close()
--------------------------------------------------------------------------

    Molecular point group: c1

    Geometry (in Angstrom), charge = 0, multiplicity = 1:

       Center              X                  Y                   Z               Mass
    ------------   -----------------  -----------------  -----------------  -----------------
           O         -2.810941711407     0.347848125089     0.795191314708    15.994914619560
           C         -1.940104711407     0.131456125089     0.016031314708    12.000000000000
           C         -2.146497711407    -0.282057874911    -1.416014685292    12.000000000000
           O         -0.651526711407     0.221789125089     0.313277314708    15.994914619560
           H         -1.674096711407    -1.241678874911    -1.591832685292     1.007825032070
           H         -3.203658711407    -0.346133874911    -1.626112685292     1.007825032070
           H         -1.679574711407     0.439522125089    -2.076363685292     1.007825032070
           C          0.141939288593    -0.952714874911     0.167940314708    12.000000000000
           C          1.570675288593    -0.605611874911     0.542571314708    12.000000000000
           H          0.070884288593    -1.300589874911    -0.854321685292     1.007825032070
           H         -0.257410711407    -1.725084874911     0.811346314708     1.007825032070
           C          2.227425288593     0.413452125089    -0.390481685292    12.000000000000
           H          2.144242288593    -1.530218874911     0.535086314708     1.007825032070
           H          1.585817288593    -0.236207874911     1.564613314708     1.007825032070
           C          3.672784288593     0.719323125089    -0.000121685292    12.000000000000
           H          2.200627288593     0.034905125089    -1.410326685292     1.007825032070
           H          1.647514288593     1.330533125089    -0.385520685292     1.007825032070
           H          4.115553288593     1.444429125089    -0.675554685292     1.007825032070
           H          4.286556288593    -0.176651874911    -0.028240685292     1.007825032070
           H          3.729314288593     1.126778125089     1.005295314708     1.007825032070

  Charge       = 0
  Multiplicity = 1
  Basis Set: 6-31G*
  Basis Set:

    Orbital Energies (a.u.)
    -----------------------

    Doubly Occupied:

       1A    -20.590589     2A    -20.551481     3A    -11.375954
       4A    -11.298570     5A    -11.235138     6A    -11.232066
       7A    -11.224936     8A    -11.216289     9A     -1.463400
      10A     -1.368324    11A     -1.088783    12A     -1.020821
      13A     -0.998573    14A     -0.890230    15A     -0.815236
      16A     -0.782548    17A     -0.694884    18A     -0.689945
      19A     -0.659624    20A     -0.635257    21A     -0.623092
      22A     -0.590748    23A     -0.579539    24A     -0.557619
      25A     -0.551833    26A     -0.536517    27A     -0.493012
      28A     -0.489764    29A     -0.483918    30A     -0.477016
      31A     -0.451885    32A     -0.435357

  @DF-RHF Final Energy:  -383.92161037972511

   => Energetics <=

    Nuclear Repulsion Energy =            386.6515308651468672
    One-Electron Energy =               -1288.9401891546585830
    Two-Electron Energy =                 518.3670479097875159
    DFT Exchange-Correlation Energy =       0.0000000000000000
    Empirical Dispersion Energy =           0.0000000000000000
    PCM Polarization Energy =               0.0000000000000000
    EFP Energy =                            0.0000000000000000
    Total Energy =                       -383.9216103797241431

  Mulliken Charges: (a.u.)
   Center  Symbol    Alpha    Beta     Spin     Total
       1     O     4.25702  4.25702  0.00000 -0.51405
       2     C     2.62176  2.62176  0.00000  0.75647
       3     C     3.29988  3.29988  0.00000 -0.59976
       4     O     4.30693  4.30693  0.00000 -0.61386
       5     H     0.40572  0.40572  0.00000  0.18856
       6     H     0.39510  0.39510  0.00000  0.20981
       7     H     0.39894  0.39894  0.00000  0.20213
       8     C     3.00850  3.00850  0.00000 -0.01700
       9     C     3.16194  3.16194  0.00000 -0.32388
      10     H     0.42053  0.42053  0.00000  0.15895
      11     H     0.41007  0.41007  0.00000  0.17987
      12     C     3.15614  3.15614  0.00000 -0.31228
      13     H     0.41902  0.41902  0.00000  0.16196
      14     H     0.40758  0.40758  0.00000  0.18484
      15     C     3.24085  3.24085  0.00000 -0.48169
      16     H     0.42523  0.42523  0.00000  0.14953
      17     H     0.40773  0.40773  0.00000  0.18454
      18     H     0.41664  0.41664  0.00000  0.16672
      19     H     0.42199  0.42199  0.00000  0.15603
      20     H     0.41844  0.41844  0.00000  0.16312

   Total alpha = 32.00000, Total beta = 32.00000, Total charge =  0.00000
