  ==> Input File <==

--------------------------------------------------------------------------
set {
	reference rhf
	basis 6-31G*
}

set_num_threads( 4 )
memory 2 gb

molecule MOL {
0 1

H	 2.132501	 1.486064	 -2.161365
C	 1.889710	 0.949276	 -1.248596
C	 0.388876	 0.687886	 -1.169277
H	 2.209196	 1.546323	 -0.401703
H	 2.467609	 0.031365	 -1.245736
N	 -0.000257	 -0.000071	 0.054619
H	 -0.120039	 1.643079	 -1.200716
H	 0.056167	 0.137463	 -2.054165
C	 -1.363055	 0.315058	 0.462241
C	 0.244878	 -1.434770	 -0.010220
C	 -2.412078	 -0.285320	 -0.468531
H	 -1.482241	 1.391144	 0.451970
H	 -1.549931	 -0.001174	 1.492681
C	 0.515659	 -2.050650	 1.358944
H	 1.114713	 -1.604619	 -0.632067
H	 -0.583994	 -1.955168	 -0.499040
H	 -2.262839	 0.075384	 -1.480151
H	 -2.369300	 -1.368867	 -0.491760
H	 -3.410332	 -0.003975	 -0.144961
H	 1.374721	 -1.574655	 1.818375
H	 -0.326524	 -1.939956	 2.033500
H	 0.719937	 -3.113296	 1.262093

	symmetry c1
}
set optking {
	frozen_dihedral = ("
		3 6 9 11
	")
}

ee = optimize('scf')
oeprop('DIPOLE', 'QUADRUPOLE', 'MULLIKEN_CHARGES')
f=open( 'psi4out.xyz', 'w' )
f.write( "22  " )
f.write( str(ee) + "\n" )
f.write( MOL.save_string_xyz() )
f.close()
--------------------------------------------------------------------------

    Molecular point group: c1
  Charge       = 0
  Multiplicity = 1
  Basis Set: 6-31G*
  Basis Set:
  @DF-RHF Final Energy:  -290.36637092146589
    Total Energy =                       -290.3663709214656592
    Molecular point group: c1
  Basis Set: 6-31G*
  Basis Set:
  Basis Set: 6-31G*
  Basis Set:
  @DF-RHF Final Energy:  -290.36784154408923
    Total Energy =                       -290.3678415440892309
  Basis Set: 6-31G*
  Basis Set:
  Basis Set: 6-31G*
  Basis Set:
  @DF-RHF Final Energy:  -290.37041651553352
    Total Energy =                       -290.3704165155338615
  Basis Set: 6-31G*
  Basis Set:
  Basis Set: 6-31G*
  Basis Set:
  @DF-RHF Final Energy:  -290.37080895539634
    Total Energy =                       -290.3708089553970808
  Basis Set: 6-31G*
  Basis Set:
  @DF-RHF Final Energy:  -290.37096358898930
    Total Energy =                       -290.3709635889889000
  @DF-RHF Final Energy:  -290.37106620983758
    Total Energy =                       -290.3710662098375224
  Basis Set: 6-31G*
  Basis Set:
  @DF-RHF Final Energy:  -290.37108032104379
    Total Energy =                       -290.3710803210440190
  Basis Set: 6-31G*
  Basis Set:
  Basis Set: 6-31G*
  Basis Set:
  @DF-RHF Final Energy:  -290.37109008308676
    Total Energy =                       -290.3710900830864148
  Basis Set: 6-31G*
  Basis Set:
  Basis Set: 6-31G*
  Basis Set:
  @DF-RHF Final Energy:  -290.37109206396588
    Total Energy =                       -290.3710920639657616
  Basis Set: 6-31G*
  Basis Set:
  Charge       = 0
  Multiplicity = 1
  Basis Set: 6-31G*
  Basis Set:

    Orbital Energies (a.u.)
    -----------------------

    Doubly Occupied:

       1A    -15.535348     2A    -11.239923     3A    -11.239384
       4A    -11.239157     5A    -11.206605     6A    -11.206571
       7A    -11.203987     8A     -1.221575     9A     -1.024111
      10A     -1.019752    11A     -0.955690    12A     -0.862812
      13A     -0.842126    14A     -0.757695    15A     -0.658873
      16A     -0.643489    17A     -0.616800    18A     -0.596441
      19A     -0.570026    20A     -0.550430    21A     -0.543377
      22A     -0.521733    23A     -0.514995    24A     -0.505217
      25A     -0.493343    26A     -0.480954    27A     -0.467643
      28A     -0.459590    29A     -0.334491

  @DF-RHF Final Energy:  -290.37109239862946

   => Energetics <=

    Nuclear Repulsion Energy =            338.8718953692502964
    One-Electron Energy =               -1063.4616958935939692
    Two-Electron Energy =                 434.2187081257147270
    DFT Exchange-Correlation Energy =       0.0000000000000000
    Empirical Dispersion Energy =           0.0000000000000000
    PCM Polarization Energy =               0.0000000000000000
    EFP Energy =                            0.0000000000000000
    Total Energy =                       -290.3710923986289458
    Molecular point group: c1
  Basis Set: 6-31G*
  Basis Set:

  -Total Gradient:
     Atom            X                  Y                   Z
    ------   -----------------  -----------------  -----------------
       1        0.000003562104     0.000000138909    -0.000008132368
       2       -0.000011128934    -0.000021649336     0.000000775179
       3        0.000237518705     0.000510803190     0.000270032353
       4       -0.000011130595     0.000001113679    -0.000001369366
       5        0.000001843931    -0.000015534408     0.000009030606
       6       -0.000346873003    -0.000880257206    -0.000278639354
       7        0.000008357228     0.000002048938    -0.000014988127
       8        0.000006198196    -0.000002532034     0.000029781767
       9        0.000096258302     0.000839745750    -0.000336367869
      10       -0.000020680527    -0.000013679432     0.000015978917
      11        0.000037031908    -0.000469723090     0.000330350196
      12        0.000005489086     0.000000325878     0.000004884045
      13       -0.000013666582     0.000008168751     0.000005481964
      14       -0.000013266307     0.000008601041    -0.000015794272
      15        0.000013897813     0.000037134688    -0.000007299512
      16        0.000004856262    -0.000013055498     0.000004177392
      17       -0.000006410349    -0.000004910980    -0.000009862799
      18       -0.000004704211     0.000004940907    -0.000000196072
      19       -0.000001688616     0.000009320513     0.000004252517
      20        0.000000577609     0.000000311664     0.000006073791
      21        0.000011018359    -0.000003368466    -0.000001867650
      22        0.000002939621     0.000002056543    -0.000006301341

  **** Optimization is complete! (in 10 steps) ****
    Final optimized geometry and variables:
    Molecular point group: c1

    Geometry (in Angstrom), charge = 0, multiplicity = 1:

    H            2.213026651814     1.816231216393    -2.064413132746
    C            1.996271664438     1.268018106834    -1.151715605032
    C            0.510680756744     0.922314381190    -1.083524985815
    H            2.275891286229     1.884135754427    -0.304396176099
    H            2.625893516019     0.385140588569    -1.145724154930
    N            0.145261644369     0.247179286275     0.153545882517
    H           -0.052001093626     1.847446555335    -1.139989483278
    H            0.229822556730     0.339270450782    -1.964425867235
    C           -1.192396296429     0.569132210675     0.626239896848
    C            0.479471210968    -1.167462223460     0.145180708189
    C           -2.369252876421     0.023174186293    -0.191708434872
    H           -1.264946586523     1.650563139539     0.671303252113
    H           -1.285259553085     0.224588793043     1.649522459353
    C            0.455741028821    -1.809546190451     1.529254545510
    H            1.484517682296    -1.260996881401    -0.246727111107
    H           -0.162005758210    -1.736953751987    -0.532708710865
    H           -2.330113439514     0.356632331814    -1.224279843984
    H           -2.395850004526    -1.061450124766    -0.193182973479
    H           -3.306696144992     0.372021019385     0.232052442679
    H            1.059019343934    -1.234109707712     2.223068015740
    H           -0.547125437432    -1.886774157374     1.934659989852
    H            0.860192426768    -2.815816126441     1.475342418922

  Mulliken Charges: (a.u.)
   Center  Symbol    Alpha    Beta     Spin     Total
       1     H     0.42395  0.42395  0.00000  0.15211
       2     C     3.23493  3.23493  0.00000 -0.46985
       3     C     3.05692  3.05692  0.00000 -0.11384
       4     H     0.41561  0.41561  0.00000  0.16878
       5     H     0.42140  0.42140  0.00000  0.15719
       6     N     3.78710  3.78710  0.00000 -0.57420
       7     H     0.42009  0.42009  0.00000  0.15982
       8     H     0.43190  0.43190  0.00000  0.13621
       9     C     3.06107  3.06107  0.00000 -0.12213
      10     C     3.05342  3.05342  0.00000 -0.10684
      11     C     3.24949  3.24949  0.00000 -0.49898
      12     H     0.41787  0.41787  0.00000  0.16427
      13     H     0.41588  0.41588  0.00000  0.16823
      14     C     3.24451  3.24451  0.00000 -0.48902
      15     H     0.41803  0.41803  0.00000  0.16394
      16     H     0.43299  0.43299  0.00000  0.13402
      17     H     0.41958  0.41958  0.00000  0.16084
      18     H     0.41946  0.41946  0.00000  0.16108
      19     H     0.42083  0.42083  0.00000  0.15835
      20     H     0.41351  0.41351  0.00000  0.17298
      21     H     0.42088  0.42088  0.00000  0.15825
      22     H     0.42060  0.42060  0.00000  0.15879

   Total alpha = 29.00000, Total beta = 29.00000, Total charge =  0.00000
