  ==> Input File <==

--------------------------------------------------------------------------
set {
	reference rhf
	basis 6-31G*
}

set_num_threads( 1 )
memory 2 gb

molecule MOL {
0 1

H	 -2.116253	 -0.284124	 -0.771836
O	 -1.422729	 -0.573567	 -0.196946
C	 -0.731407	 0.539437	 0.309156
C	 0.680193	 0.672443	 -0.251532
H	 -1.319765	 1.404033	 0.030086
H	 -0.700012	 0.506517	 1.397677
C	 1.599139	 -0.492137	 0.118598
H	 0.616402	 0.758534	 -1.332349
H	 1.107032	 1.602637	 0.117369
H	 1.239738	 -1.428634	 -0.297334
H	 2.601428	 -0.335055	 -0.265730
H	 1.674954	 -0.608418	 1.197020

	symmetry c1
}
set optking {
	frozen_dihedral = ("
		8 4 3 2
	")
}

ee = energy('scf')
oeprop('DIPOLE', 'QUADRUPOLE', 'MULLIKEN_CHARGES')
f=open( 'psi4out.xyz', 'w' )
f.write( "12  " )
f.write( str(ee) + "\n" )
f.write( MOL.save_string_xyz() )
f.close()
--------------------------------------------------------------------------

    Molecular point group: c1

    Geometry (in Angstrom), charge = 0, multiplicity = 1:

       Center              X                  Y                   Z               Mass
    ------------   -----------------  -----------------  -----------------  -----------------
           H         -2.098711153503    -0.302288122670    -0.755851633376     1.007825032070
           O         -1.405187153503    -0.591731122670    -0.180961633376    15.994914619560
           C         -0.713865153503     0.521272877330     0.325140366624    12.000000000000
           C          0.697734846497     0.654278877330    -0.235547633376    12.000000000000
           H         -1.302223153503     1.385868877330     0.046070366624     1.007825032070
           H         -0.682470153503     0.488352877330     1.413661366624     1.007825032070
           C          1.616680846497    -0.510301122670     0.134582366624    12.000000000000
           H          0.633943846497     0.740369877330    -1.316364633376     1.007825032070
           H          1.124573846497     1.584472877330     0.133353366624     1.007825032070
           H          1.257279846497    -1.446798122670    -0.281349633376     1.007825032070
           H          2.618969846497    -0.353219122670    -0.249745633376     1.007825032070
           H          1.692495846497    -0.626582122670     1.213004366624     1.007825032070

  Charge       = 0
  Multiplicity = 1
  Basis Set: 6-31G*
  Basis Set:

    Orbital Energies (a.u.)
    -----------------------

    Doubly Occupied:

       1A    -20.551317     2A    -11.268749     3A    -11.215709
       4A    -11.204753     5A     -1.359562     6A     -1.045955
       7A     -0.918506     8A     -0.804509     9A     -0.696705
      10A     -0.641842    11A     -0.601524    12A     -0.567920
      13A     -0.533489    14A     -0.510154    15A     -0.481755
      16A     -0.463130    17A     -0.427762

  @DF-RHF Final Energy:  -193.10708625788567

   => Energetics <=

    Nuclear Repulsion Energy =            132.5625820096436769
    One-Electron Energy =                -524.7528661016701790
    Two-Electron Energy =                 199.0831978341407194
    DFT Exchange-Correlation Energy =       0.0000000000000000
    Empirical Dispersion Energy =           0.0000000000000000
    PCM Polarization Energy =               0.0000000000000000
    EFP Energy =                            0.0000000000000000
    Total Energy =                       -193.1070862578857827

  Mulliken Charges: (a.u.)
   Center  Symbol    Alpha    Beta     Spin     Total
       1     H     0.27882  0.27882  0.00000  0.44236
       2     O     4.37206  4.37206  0.00000 -0.74412
       3     C     2.99628  2.99628  0.00000  0.00744
       4     C     3.15669  3.15669  0.00000 -0.31338
       5     H     0.43226  0.43226  0.00000  0.13549
       6     H     0.42260  0.42260  0.00000  0.15481
       7     C     3.24197  3.24197  0.00000 -0.48395
       8     H     0.42232  0.42232  0.00000  0.15536
       9     H     0.42460  0.42460  0.00000  0.15080
      10     H     0.40887  0.40887  0.00000  0.18227
      11     H     0.42074  0.42074  0.00000  0.15851
      12     H     0.42280  0.42280  0.00000  0.15440

   Total alpha = 17.00000, Total beta = 17.00000, Total charge =  0.00000
