  ==> Input File <==

--------------------------------------------------------------------------
set {
	reference rhf
	basis 6-31G*
}

set_num_threads( 4 )
memory 2 gb

molecule MOL {
0 1

O	 -1.276010	 1.052711	 -0.768302
C	 -1.204840	 0.067374	 -0.106123
C	 -2.388195	 -0.672128	 0.458071
O	 -0.067104	 -0.527208	 0.221609
H	 -2.388023	 -1.694060	 0.097175
H	 -3.300579	 -0.174919	 0.164318
H	 -2.315377	 -0.706351	 1.539059
C	 1.170111	 0.034140	 -0.238951
C	 1.682494	 -0.910103	 -1.312011
C	 2.131740	 0.186100	 0.929305
H	 0.956467	 1.003444	 -0.664761
H	 0.961928	 -1.002379	 -2.116696
H	 2.612846	 -0.535617	 -1.726183
H	 1.863053	 -1.897116	 -0.899873
H	 3.078309	 0.589088	 0.583440
H	 1.728716	 0.861780	 1.672948
H	 2.319370	 -0.776808	 1.393645

	symmetry c1
}
set optking {
	frozen_dihedral = ("
		11 8 4 2
	")
}

ee = optimize('scf')
oeprop('DIPOLE', 'QUADRUPOLE', 'MULLIKEN_CHARGES')
f=open( 'psi4out.xyz', 'w' )
f.write( "17  " )
f.write( str(ee) + "\n" )
f.write( MOL.save_string_xyz() )
f.close()
--------------------------------------------------------------------------

    Molecular point group: c1
  Charge       = 0
  Multiplicity = 1
  Basis Set: 6-31G*
  Basis Set:
  @DF-RHF Final Energy:  -344.91304026861178
    Total Energy =                       -344.9130402686118941
    Molecular point group: c1
  Basis Set: 6-31G*
  Basis Set:
  Basis Set: 6-31G*
  Basis Set:
  @DF-RHF Final Energy:  -344.91352395647004
    Total Energy =                       -344.9135239564702715
  Basis Set: 6-31G*
  Basis Set:
  Basis Set: 6-31G*
  Basis Set:
  @DF-RHF Final Energy:  -344.91267862619895
    Total Energy =                       -344.9126786261991811
  Basis Set: 6-31G*
  Basis Set:
  Basis Set: 6-31G*
  Basis Set:
  @DF-RHF Final Energy:  -344.91370918964407
    Total Energy =                       -344.9137091896437823
  Basis Set: 6-31G*
  Basis Set:
  Basis Set: 6-31G*
  Basis Set:
  @DF-RHF Final Energy:  -344.91372609523950
    Total Energy =                       -344.9137260952397241
  Basis Set: 6-31G*
  Basis Set:
  Charge       = 0
  Multiplicity = 1
  Basis Set: 6-31G*
  Basis Set:

    Orbital Energies (a.u.)
    -----------------------

    Doubly Occupied:

       1A    -20.598315     2A    -20.542578     3A    -11.375215
       4A    -11.288667     5A    -11.232085     6A    -11.219644
       7A    -11.218560     8A     -1.464172     9A     -1.361724
      10A     -1.078959    11A     -1.004899    12A     -0.948783
      13A     -0.848015    14A     -0.768486    15A     -0.692185
      16A     -0.664314    17A     -0.660590    18A     -0.612961
      19A     -0.586777    20A     -0.578615    21A     -0.566309
      22A     -0.551655    23A     -0.534448    24A     -0.522692
      25A     -0.502507    26A     -0.482495    27A     -0.443499
      28A     -0.437028

  @DF-RHF Final Energy:  -344.91372649726497

   => Energetics <=

    Nuclear Repulsion Energy =            321.7754174002599257
    One-Electron Energy =               -1107.8059381078332990
    Two-Electron Energy =                 441.1167942103086830
    DFT Exchange-Correlation Energy =       0.0000000000000000
    Empirical Dispersion Energy =           0.0000000000000000
    PCM Polarization Energy =               0.0000000000000000
    EFP Energy =                            0.0000000000000000
    Total Energy =                       -344.9137264972646904
    Molecular point group: c1
  Basis Set: 6-31G*
  Basis Set:

  -Total Gradient:
     Atom            X                  Y                   Z
    ------   -----------------  -----------------  -----------------
       1       -0.000062029981     0.000017866737    -0.000020051094
       2        0.000068119799     0.000441659347     0.000705111850
       3       -0.000009557678    -0.000001900531    -0.000029783934
       4       -0.000167521326    -0.000822824806    -0.001217477753
       5        0.000003294284     0.000005271783     0.000005405514
       6       -0.000008839513    -0.000000481518     0.000004938522
       7        0.000004228909     0.000010689928    -0.000000056627
       8        0.000176824029     0.000709138802     0.001375856360
       9       -0.000008574665     0.000003488058     0.000024499392
      10        0.000082297050     0.000022404511    -0.000056292442
      11       -0.000086731610    -0.000398846341    -0.000802943299
      12        0.000001629511     0.000005820862     0.000002169714
      13       -0.000009022079     0.000005210094     0.000008723700
      14       -0.000002042581    -0.000005470813    -0.000001808558
      15        0.000040064349     0.000005994713     0.000030273914
      16       -0.000012078026    -0.000000415842    -0.000019782877
      17       -0.000010060473     0.000002395016    -0.000008782380

  **** Optimization is complete! (in 6 steps) ****
    Final optimized geometry and variables:
    Molecular point group: c1

    Geometry (in Angstrom), charge = 0, multiplicity = 1:

    O           -1.311612739498     1.148837997826    -0.675569010293
    C           -1.216588372391     0.181579755440     0.008997913919
    C           -2.381080618842    -0.542880894486     0.629726823107
    O           -0.069991991690    -0.404230950360     0.325463309827
    H           -2.392218181730    -1.573111392045     0.293243898017
    H           -3.302544984622    -0.052556744955     0.353334092547
    H           -2.273215470028    -0.551362596776     1.708211979631
    C            1.170043970021     0.143425992195    -0.144210387782
    C            1.722323106267    -0.789296459313    -1.210210442428
    C            2.082997257794     0.281500108497     1.062017285338
    H            0.967388642023     1.109712524365    -0.576889142818
    H            1.033821518582    -0.863936912980    -2.044561732474
    H            2.669492981278    -0.414863550431    -1.585084652062
    H            1.881509107164    -1.783044593373    -0.804870578236
    H            3.042585742381     0.690413540134     0.762536682061
    H            1.644996870595     0.945348965697     1.798981618286
    H            2.251271038532    -0.683607227587     1.527942262360

  Mulliken Charges: (a.u.)
   Center  Symbol    Alpha    Beta     Spin     Total
       1     O     4.28422  4.28422  0.00000 -0.56844
       2     C     2.61813  2.61813  0.00000  0.76373
       3     C     3.28233  3.28233  0.00000 -0.56465
       4     O     4.31381  4.31381  0.00000 -0.62761
       5     H     0.40084  0.40084  0.00000  0.19833
       6     H     0.39740  0.39740  0.00000  0.20521
       7     H     0.40099  0.40099  0.00000  0.19802
       8     C     2.93572  2.93572  0.00000  0.12857
       9     C     3.24316  3.24316  0.00000 -0.48633
      10     C     3.24101  3.24101  0.00000 -0.48202
      11     H     0.39301  0.39301  0.00000  0.21398
      12     H     0.41078  0.41078  0.00000  0.17844
      13     H     0.41826  0.41826  0.00000  0.16347
      14     H     0.41525  0.41525  0.00000  0.16950
      15     H     0.41791  0.41791  0.00000  0.16417
      16     H     0.41274  0.41274  0.00000  0.17451
      17     H     0.41444  0.41444  0.00000  0.17112

   Total alpha = 28.00000, Total beta = 28.00000, Total charge = -0.00000
