  ==> Input File <==

--------------------------------------------------------------------------
set {
	reference rhf
	basis 6-31G*
}

set_num_threads( 4 )
memory 2 gb

molecule MOL {
0 1

O	 1.389896	 0.670206	 -1.008449
C	 0.861134	 0.272526	 -0.014869
C	 -0.623889	 -0.118271	 -0.003699
C	 1.664234	 0.153060	 1.268394
C	 -0.895332	 -1.256461	 -1.002431
C	 -1.473649	 1.103340	 -0.370799
C	 -0.983900	 -0.581483	 1.422328
H	 -0.615301	 -0.972064	 -2.012700
H	 -1.954261	 -1.493213	 -1.010207
H	 -0.360539	 -2.164946	 -0.747760
H	 -1.227476	 1.468527	 -1.361691
H	 -2.526716	 0.838935	 -0.358521
H	 -1.314819	 1.915855	 0.325860
H	 -2.039679	 -0.828001	 1.472951
H	 -0.427637	 -1.464071	 1.720694
H	 -0.789023	 0.202493	 2.147048
H	 1.946172	 -0.884237	 1.423264
H	 2.564947	 0.743062	 1.169752
H	 1.109366	 0.473697	 2.141626

	symmetry c1
}
set optking {
	frozen_dihedral = ("
		1 2 3 5
	")
}

ee = optimize('scf')
oeprop('DIPOLE', 'QUADRUPOLE', 'MULLIKEN_CHARGES')
f=open( 'psi4out.xyz', 'w' )
f.write( "19  " )
f.write( str(ee) + "\n" )
f.write( MOL.save_string_xyz() )
f.close()
--------------------------------------------------------------------------

    Molecular point group: c1
  Charge       = 0
  Multiplicity = 1
  Basis Set: 6-31G*
  Basis Set:
  @DF-RHF Final Energy:  -309.05641238354468
    Total Energy =                       -309.0564123835448527
    Molecular point group: c1
  Basis Set: 6-31G*
  Basis Set:
  Basis Set: 6-31G*
  Basis Set:
  @DF-RHF Final Energy:  -309.05812410262257
    Total Energy =                       -309.0581241026229122
  Basis Set: 6-31G*
  Basis Set:
  Basis Set: 6-31G*
  Basis Set:
  @DF-RHF Final Energy:  -309.06095562410462
    Total Energy =                       -309.0609556241046221
  Basis Set: 6-31G*
  Basis Set:
  Basis Set: 6-31G*
  Basis Set:
  @DF-RHF Final Energy:  -309.06149054969330
    Total Energy =                       -309.0614905496934171
  Basis Set: 6-31G*
  Basis Set:
  @DF-RHF Final Energy:  -309.06084205705906
    Total Energy =                       -309.0608420570594035
  @DF-RHF Final Energy:  -309.06175632582728
    Total Energy =                       -309.0617563258269911
  Basis Set: 6-31G*
  Basis Set:
  @DF-RHF Final Energy:  -309.06179534967276
    Total Energy =                       -309.0617953496727068
  Basis Set: 6-31G*
  Basis Set:
  Basis Set: 6-31G*
  Basis Set:
  @DF-RHF Final Energy:  -309.06174933710287
    Total Energy =                       -309.0617493371029809
  Basis Set: 6-31G*
  Basis Set:
  Basis Set: 6-31G*
  Basis Set:
  @DF-RHF Final Energy:  -309.06181155060284
    Total Energy =                       -309.0618115506028971
  Basis Set: 6-31G*
  Basis Set:
  Charge       = 0
  Multiplicity = 1
  Basis Set: 6-31G*
  Basis Set:

    Orbital Energies (a.u.)
    -----------------------

    Doubly Occupied:

       1A    -20.547324     2A    -11.323645     3A    -11.246225
       4A    -11.227745     5A    -11.222066     6A    -11.216578
       7A    -11.215876     8A     -1.394560     9A     -1.107536
      10A     -1.003738    11A     -0.940968    12A     -0.939260
      13A     -0.833264    14A     -0.703959    15A     -0.664718
      16A     -0.630790    17A     -0.622703    18A     -0.586777
      19A     -0.584543    20A     -0.573218    21A     -0.552544
      22A     -0.545993    23A     -0.522639    24A     -0.513942
      25A     -0.499903    26A     -0.471526    27A     -0.459741
      28A     -0.391827

  @DF-RHF Final Energy:  -309.06181195070980

   => Energetics <=

    Nuclear Repulsion Energy =            326.1327160567606711
    One-Electron Energy =               -1065.3018357469663897
    Two-Electron Energy =                 430.1073077394959796
    DFT Exchange-Correlation Energy =       0.0000000000000000
    Empirical Dispersion Energy =           0.0000000000000000
    PCM Polarization Energy =               0.0000000000000000
    EFP Energy =                            0.0000000000000000
    Total Energy =                       -309.0618119507096822
    Molecular point group: c1
  Basis Set: 6-31G*
  Basis Set:

  -Total Gradient:
     Atom            X                  Y                   Z
    ------   -----------------  -----------------  -----------------
       1        0.000017844487    -0.000120439663    -0.000020528244
       2       -0.000016584086     0.000176648821    -0.000006357578
       3        0.000032511397    -0.000140077155     0.000098998487
       4       -0.000019542885     0.000018433382     0.000005827242
       5       -0.000021536728     0.000084712349    -0.000078588204
       6       -0.000000850335    -0.000013251625    -0.000002209729
       7        0.000000234228     0.000016083999     0.000002186106
       8        0.000001338964    -0.000005065456    -0.000007982321
       9        0.000000407057    -0.000000025989    -0.000000701055
      10       -0.000000828952     0.000009513063     0.000005429599
      11        0.000003693841    -0.000002038596    -0.000004808361
      12       -0.000003120797    -0.000003610153     0.000000036968
      13        0.000009318130    -0.000009185296     0.000002180921
      14       -0.000003119464    -0.000002155503     0.000002533714
      15        0.000001096702     0.000001069684    -0.000001276107
      16       -0.000002674320    -0.000001115264     0.000008046260
      17       -0.000004915739    -0.000001331781    -0.000005954631
      18        0.000005155014    -0.000004400774     0.000000910552
      19        0.000001573483    -0.000003764045     0.000002256379

  **** Optimization is complete! (in 10 steps) ****
    Final optimized geometry and variables:
    Molecular point group: c1

    Geometry (in Angstrom), charge = 0, multiplicity = 1:

    O            1.319096129532     0.677304154163    -1.074583593193
    C            0.869209085082     0.251737245084    -0.053321815246
    C           -0.613931801771    -0.164299662950     0.003578327991
    C            1.755884271344     0.118994787916     1.167869321602
    C           -0.815197250888    -1.279823560169    -1.037534272242
    C           -1.452613486663     1.064135367863    -0.390344991573
    C           -1.060561769173    -0.666132471458     1.383876545945
    H           -0.517184482868    -0.943631130195    -2.022072220825
    H           -1.859681602096    -1.574103658576    -1.072673819489
    H           -0.231200116591    -2.162314120241    -0.790165516575
    H           -1.161629545200     1.430483915580    -1.366019710589
    H           -2.506407566427     0.804069189600    -0.417086354181
    H           -1.329380635400     1.872767891278     0.325061471371
    H           -2.109949044283    -0.939794482927     1.347594305856
    H           -0.508455787706    -1.545465492861     1.699439871192
    H           -0.951528903332     0.093762703092     2.151025008254
    H            1.802954856651    -0.912081991655     1.502959822491
    H            2.749360705504     0.460049963138     0.913155369899
    H            1.371894448158     0.708681487901     1.993803269590

  Mulliken Charges: (a.u.)
   Center  Symbol    Alpha    Beta     Spin     Total
       1     O     4.26784  4.26784  0.00000 -0.53568
       2     C     2.72774  2.72774  0.00000  0.54451
       3     C     3.06046  3.06046  0.00000 -0.12093
       4     C     3.28949  3.28949  0.00000 -0.57898
       5     C     3.23680  3.23680  0.00000 -0.47359
       6     C     3.23644  3.23644  0.00000 -0.47288
       7     C     3.24008  3.24008  0.00000 -0.48015
       8     H     0.40148  0.40148  0.00000  0.19704
       9     H     0.41795  0.41795  0.00000  0.16410
      10     H     0.42049  0.42049  0.00000  0.15901
      11     H     0.40122  0.40122  0.00000  0.19756
      12     H     0.41835  0.41835  0.00000  0.16329
      13     H     0.42046  0.42046  0.00000  0.15908
      14     H     0.41411  0.41411  0.00000  0.17177
      15     H     0.41838  0.41838  0.00000  0.16323
      16     H     0.41835  0.41835  0.00000  0.16330
      17     H     0.40752  0.40752  0.00000  0.18496
      18     H     0.39540  0.39540  0.00000  0.20919
      19     H     0.40742  0.40742  0.00000  0.18515

   Total alpha = 28.00000, Total beta = 28.00000, Total charge = -0.00000
