  ==> Input File <==

--------------------------------------------------------------------------
set {
	reference rhf
	basis 6-31G*
}

set_num_threads( 4 )
memory 2 gb

molecule MOL {
0 1

O	 -2.042549	 -1.228399	 -0.269030
C	 -1.653912	 -0.146171	 0.050137
C	 -0.332303	 0.024011	 0.778412
C	 -2.438579	 1.106236	 -0.272369
C	 0.845713	 -0.001731	 -0.208243
H	 -0.323783	 0.953829	 1.340327
H	 -0.235459	 -0.796807	 1.480410
C	 2.200309	 0.136118	 0.488247
H	 0.733710	 0.800019	 -0.936072
H	 0.811185	 -0.933796	 -0.764304
C	 2.128618	 -0.163378	 1.985033
H	 2.917978	 -0.533372	 0.019035
H	 2.578457	 1.144673	 0.338619
H	 1.785534	 -1.177961	 2.166606
H	 1.442492	 0.512330	 2.487122
H	 3.101960	 -0.054911	 2.452865
H	 -3.277823	 0.863061	 -0.908988
H	 -1.806773	 1.843019	 -0.759671
H	 -2.802853	 1.554979	 0.648059

	symmetry c1
}
set optking {
	frozen_dihedral = ("
		11 8 5 9
	")
}

ee = optimize('scf')
oeprop('DIPOLE', 'QUADRUPOLE', 'MULLIKEN_CHARGES')
f=open( 'psi4out.xyz', 'w' )
f.write( "19  " )
f.write( str(ee) + "\n" )
f.write( MOL.save_string_xyz() )
f.close()
--------------------------------------------------------------------------

    Molecular point group: c1
  Charge       = 0
  Multiplicity = 1
  Basis Set: 6-31G*
  Basis Set:
  @DF-RHF Final Energy:  -309.05351121173322
    Total Energy =                       -309.0535112117331096
    Molecular point group: c1
  Basis Set: 6-31G*
  Basis Set:
  Basis Set: 6-31G*
  Basis Set:
  @DF-RHF Final Energy:  -309.05380607371052
    Total Energy =                       -309.0538060737104615
  Basis Set: 6-31G*
  Basis Set:
  Basis Set: 6-31G*
  Basis Set:
  @DF-RHF Final Energy:  -309.05670391446284
    Total Energy =                       -309.0567039144631281
  Basis Set: 6-31G*
  Basis Set:
  Basis Set: 6-31G*
  Basis Set:
  @DF-RHF Final Energy:  -309.05678472568150
    Total Energy =                       -309.0567847256816094
  Basis Set: 6-31G*
  Basis Set:
  @DF-RHF Final Energy:  -309.05702594981551
    Total Energy =                       -309.0570259498155110
  @DF-RHF Final Energy:  -309.05707397541948
    Total Energy =                       -309.0570739754192573
  @DF-RHF Final Energy:  -309.05707952035749
    Total Energy =                       -309.0570795203575472
  @DF-RHF Final Energy:  -309.05707170480628
    Total Energy =                       -309.0570717048066172
  @DF-RHF Final Energy:  -309.05707621932493
    Total Energy =                       -309.0570762193249266
  Basis Set: 6-31G*
  Basis Set:
  @DF-RHF Final Energy:  -309.05708109267272
    Total Energy =                       -309.0570810926729450
  Basis Set: 6-31G*
  Basis Set:
  Basis Set: 6-31G*
  Basis Set:
  @DF-RHF Final Energy:  -309.05708180901490
    Total Energy =                       -309.0570818090151306
  Basis Set: 6-31G*
  Basis Set:
  Basis Set: 6-31G*
  Basis Set:
  @DF-RHF Final Energy:  -309.05708357422526
    Total Energy =                       -309.0570835742251461
  Basis Set: 6-31G*
  Basis Set:
  Charge       = 0
  Multiplicity = 1
  Basis Set: 6-31G*
  Basis Set:

    Orbital Energies (a.u.)
    -----------------------

    Doubly Occupied:

       1A    -20.547238     2A    -11.324339     3A    -11.230870
       4A    -11.228731     5A    -11.228300     6A    -11.225238
       7A    -11.215622     8A     -1.393051     9A     -1.088015
      10A     -1.026553    11A     -0.981112    12A     -0.902509
      13A     -0.795088    14A     -0.733142    15A     -0.662266
      16A     -0.650656    17A     -0.621555    18A     -0.603287
      19A     -0.585490    20A     -0.573502    21A     -0.551224
      22A     -0.544258    23A     -0.520718    24A     -0.501735
      25A     -0.480165    26A     -0.465578    27A     -0.459934
      28A     -0.397312

  @DF-RHF Final Energy:  -309.05708363336919

   => Energetics <=

    Nuclear Repulsion Energy =            304.9391074540471891
    One-Electron Energy =               -1022.9174031994259622
    Two-Electron Energy =                 408.9212121120098118
    DFT Exchange-Correlation Energy =       0.0000000000000000
    Empirical Dispersion Energy =           0.0000000000000000
    PCM Polarization Energy =               0.0000000000000000
    EFP Energy =                            0.0000000000000000
    Total Energy =                       -309.0570836333689613
    Molecular point group: c1
  Basis Set: 6-31G*
  Basis Set:

  -Total Gradient:
     Atom            X                  Y                   Z
    ------   -----------------  -----------------  -----------------
       1       -0.000008504146     0.000001138066     0.000005320673
       2        0.000009111072    -0.000008402711     0.000005510229
       3       -0.000005403699    -0.000003654347     0.000004727094
       4        0.000017026806     0.000008912403    -0.000016349047
       5        0.002321761616    -0.001932416000    -0.004318344525
       6       -0.000001399100     0.000002813545     0.000000006733
       7        0.000001062667    -0.000000650884    -0.000005818719
       8        0.000707196977    -0.004936289836    -0.000318848113
       9       -0.002204558643     0.003003410060     0.003830541658
      10        0.000000832932    -0.000002192794    -0.000000446562
      11       -0.000823714195     0.003871161782     0.000806993518
      12       -0.000002686998    -0.000000546542    -0.000001903372
      13        0.000001784889     0.000000236755    -0.000000930379
      14        0.000001057750     0.000000613821     0.000000092060
      15       -0.000000890857    -0.000000721713     0.000000948709
      16       -0.000000391250     0.000000249623    -0.000001012436
      17       -0.000000909636    -0.000000505421     0.000001484166
      18       -0.000006907318     0.000001305248     0.000004058975
      19       -0.000004468866    -0.000004461057     0.000003969342

  **** Optimization is complete! (in 13 steps) ****
    Final optimized geometry and variables:
    Molecular point group: c1

    Geometry (in Angstrom), charge = 0, multiplicity = 1:

    O           -1.869771654134    -1.169749151321    -0.724990207715
    C           -1.496835555394    -0.095836798953    -0.361656302663
    C           -0.210930983284     0.054342494737     0.432678435185
    C           -2.267776625644     1.164082062534    -0.688127224460
    C            1.001682007032     0.011103007890    -0.517364092945
    H           -0.220356583266     0.985365634093     0.991489940965
    H           -0.169325024060    -0.765483775574     1.138789593333
    C            2.386851269263     0.164916622121     0.159933473398
    H            0.877593721944     0.824468011999    -1.227471976356
    H            0.953307156081    -0.917624416580    -1.073742210273
    C            2.459641149886    -0.131408480315     1.659854096313
    H            3.098666815820    -0.467064245936    -0.361772336423
    H            2.733443694139     1.184277362046     0.011569772412
    H            2.156376155628    -1.148429880938     1.889906370585
    H            1.834841605830     0.541411493122     2.236739374801
    H            3.479645883819    -0.009251829723     2.010386126341
    H           -3.076771095916     0.936899436661    -1.368322684538
    H           -1.615576339295     1.913330802826    -1.127232560491
    H           -2.674312602451     1.589231867998     0.225812696562

  Mulliken Charges: (a.u.)
   Center  Symbol    Alpha    Beta     Spin     Total
       1     O     4.26253  4.26253  0.00000 -0.52507
       2     C     2.73695  2.73695  0.00000  0.52610
       3     C     3.20259  3.20259  0.00000 -0.40517
       4     C     3.28951  3.28951  0.00000 -0.57902
       5     C     3.16488  3.16488  0.00000 -0.32976
       6     H     0.41709  0.41709  0.00000  0.16582
       7     H     0.39936  0.39936  0.00000  0.20128
       8     C     3.15446  3.15446  0.00000 -0.30892
       9     H     0.41906  0.41906  0.00000  0.16189
      10     H     0.40378  0.40378  0.00000  0.19243
      11     C     3.24421  3.24421  0.00000 -0.48842
      12     H     0.41572  0.41572  0.00000  0.16856
      13     H     0.42055  0.42055  0.00000  0.15890
      14     H     0.41847  0.41847  0.00000  0.16306
      15     H     0.42045  0.42045  0.00000  0.15910
      16     H     0.41657  0.41657  0.00000  0.16685
      17     H     0.39701  0.39701  0.00000  0.20597
      18     H     0.41004  0.41004  0.00000  0.17991
      19     H     0.40677  0.40677  0.00000  0.18647

   Total alpha = 28.00000, Total beta = 28.00000, Total charge =  0.00000
