  ==> Input File <==

--------------------------------------------------------------------------
set {
	reference rhf
	basis 6-31G*
}

set_num_threads( 4 )
memory 2 gb

molecule MOL {
0 1

H	 1.136379	 0.211822	 1.465562
C	 1.135357	 0.094285	 0.374742
C	 0.065331	 0.871482	 -0.349150
O	 1.941633	 -0.601957	 -0.151457
C	 -0.601545	 1.924607	 0.547335
H	 -0.660331	 0.169103	 -0.742838
H	 0.542884	 1.368538	 -1.192382
C	 -1.418931	 1.317188	 1.688100
H	 -1.245231	 2.543776	 -0.069356
H	 0.159342	 2.588115	 0.952856
H	 -2.207352	 0.677781	 1.303291
H	 -1.882114	 2.094133	 2.287379
H	 -0.802591	 0.714785	 2.348876

	symmetry c1
}
set optking {
	frozen_dihedral = ("
		6 3 2 4
	")
}

ee = optimize('scf')
oeprop('DIPOLE', 'QUADRUPOLE', 'MULLIKEN_CHARGES')
f=open( 'psi4out.xyz', 'w' )
f.write( "13  " )
f.write( str(ee) + "\n" )
f.write( MOL.save_string_xyz() )
f.close()
--------------------------------------------------------------------------

    Molecular point group: c1
  Charge       = 0
  Multiplicity = 1
  Basis Set: 6-31G*
  Basis Set:
  @DF-RHF Final Energy:  -230.98175353209686
    Total Energy =                       -230.9817535320966613
    Molecular point group: c1
  Basis Set: 6-31G*
  Basis Set:
  Basis Set: 6-31G*
  Basis Set:
  @DF-RHF Final Energy:  -230.98228630691790
    Total Energy =                       -230.9822863069177572
  Basis Set: 6-31G*
  Basis Set:
  Basis Set: 6-31G*
  Basis Set:
  @DF-RHF Final Energy:  -230.98268361874926
    Total Energy =                       -230.9826836187492063
  Basis Set: 6-31G*
  Basis Set:
  Basis Set: 6-31G*
  Basis Set:
  @DF-RHF Final Energy:  -230.98273328044189
    Total Energy =                       -230.9827332804418916
  Basis Set: 6-31G*
  Basis Set:
  Basis Set: 6-31G*
  Basis Set:
  @DF-RHF Final Energy:  -230.98274696977262
    Total Energy =                       -230.9827469697725633
  Basis Set: 6-31G*
  Basis Set:
  Basis Set: 6-31G*
  Basis Set:
  @DF-RHF Final Energy:  -230.98275059430310
    Total Energy =                       -230.9827505943031554
  Basis Set: 6-31G*
  Basis Set:
  Basis Set: 6-31G*
  Basis Set:
  @DF-RHF Final Energy:  -230.98276006891663
    Total Energy =                       -230.9827600689167184
  Basis Set: 6-31G*
  Basis Set:
  Charge       = 0
  Multiplicity = 1
  Basis Set: 6-31G*
  Basis Set:

    Orbital Energies (a.u.)
    -----------------------

    Doubly Occupied:

       1A    -20.561540     2A    -11.327876     3A    -11.237275
       4A    -11.236079     5A    -11.225491     6A     -1.402526
       7A     -1.086938     8A     -0.972596     9A     -0.849496
      10A     -0.791910    11A     -0.664350    12A     -0.650402
      13A     -0.620480    14A     -0.593228    15A     -0.578664
      16A     -0.524864    17A     -0.507978    18A     -0.493653
      19A     -0.483239    20A     -0.409481

  @DF-RHF Final Energy:  -230.98276064303641

   => Energetics <=

    Nuclear Repulsion Energy =            172.0053792842835207
    One-Electron Energy =                -653.5401496393822072
    Two-Electron Energy =                 250.5520097120621870
    DFT Exchange-Correlation Energy =       0.0000000000000000
    Empirical Dispersion Energy =           0.0000000000000000
    PCM Polarization Energy =               0.0000000000000000
    EFP Energy =                            0.0000000000000000
    Total Energy =                       -230.9827606430364710
    Molecular point group: c1
  Basis Set: 6-31G*
  Basis Set:

  -Total Gradient:
     Atom            X                  Y                   Z
    ------   -----------------  -----------------  -----------------
       1       -0.000006834975     0.000003777718    -0.000000874954
       2       -0.000312408404    -0.000355801340     0.000081770781
       3        0.000248893749     0.000077495534    -0.000305286110
       4        0.000201563796     0.000242962790    -0.000032248801
       5       -0.000007369202    -0.000006289931    -0.000016667478
       6       -0.000136120062     0.000020266873     0.000265306492
       7        0.000015157239     0.000005006703    -0.000012925965
       8        0.000001103410     0.000008815507     0.000016724766
       9       -0.000003661826     0.000007412416     0.000004060119
      10       -0.000006323904    -0.000009201718     0.000000230112
      11        0.000015422345     0.000003011692    -0.000004416443
      12       -0.000009130136     0.000002892157     0.000005143744
      13       -0.000000292036    -0.000000348400    -0.000000816265

  **** Optimization is complete! (in 8 steps) ****
    Final optimized geometry and variables:
    Molecular point group: c1

    Geometry (in Angstrom), charge = 0, multiplicity = 1:

    H            1.066710691225    -0.486998459326     1.019629716152
    C            0.967420903427    -0.609828537595    -0.064525792804
    C           -0.162928019085     0.143571325279    -0.732394152798
    O            1.731396480403    -1.301945748975    -0.655443587872
    C           -0.826118103571     1.201847699343     0.154176078953
    H           -0.896844523485    -0.591577539422    -1.056415948632
    H            0.244569548127     0.586054533639    -1.635796707787
    C           -1.707400250530     0.614262022707     1.258376842091
    H           -1.431036075004     1.849231793166    -0.472867514331
    H           -0.061215535508     1.838491655376     0.594054382519
    H           -2.513367036155     0.021765429076     0.835326807861
    H           -2.153583395074     1.401320447905     1.857205535736
    H           -1.146542203419    -0.027926607092     1.930992741081

  Mulliken Charges: (a.u.)
   Center  Symbol    Alpha    Beta     Spin     Total
       1     H     0.42870  0.42870  0.00000  0.14260
       2     C     2.83578  2.83578  0.00000  0.32844
       3     C     3.20705  3.20705  0.00000 -0.41409
       4     O     4.24063  4.24063  0.00000 -0.48127
       5     C     3.16701  3.16701  0.00000 -0.33402
       6     H     0.40062  0.40062  0.00000  0.19876
       7     H     0.39638  0.39638  0.00000  0.20723
       8     C     3.24367  3.24367  0.00000 -0.48733
       9     H     0.41163  0.41163  0.00000  0.17674
      10     H     0.41738  0.41738  0.00000  0.16525
      11     H     0.41758  0.41758  0.00000  0.16483
      12     H     0.41367  0.41367  0.00000  0.17267
      13     H     0.41991  0.41991  0.00000  0.16019

   Total alpha = 20.00000, Total beta = 20.00000, Total charge =  0.00000
