  ==> Input File <==

--------------------------------------------------------------------------
set {
	reference rhf
	basis 6-31G*
}

set_num_threads( 1 )
memory 2 gb

molecule MOL {
0 1

O	 -2.042549	 -1.228399	 -0.269030
C	 -1.653912	 -0.146171	 0.050137
C	 -0.332303	 0.024011	 0.778412
C	 -2.438579	 1.106236	 -0.272369
C	 0.845713	 -0.001731	 -0.208243
H	 -0.323783	 0.953829	 1.340327
H	 -0.235459	 -0.796807	 1.480410
C	 0.418256	 -0.384769	 -1.625844
H	 1.602023	 -0.703085	 0.139866
H	 1.311474	 0.979153	 -0.216893
C	 1.586281	 -0.402432	 -2.611040
H	 -0.055624	 -1.363832	 -1.608547
H	 -0.337606	 0.315702	 -1.973093
H	 2.344385	 -1.119296	 -2.308652
H	 2.060054	 0.572759	 -2.674157
H	 1.253420	 -0.674030	 -3.607767
H	 -3.277823	 0.863061	 -0.908988
H	 -1.806773	 1.843019	 -0.759671
H	 -2.802853	 1.554979	 0.648059

	symmetry c1
}
set optking {
	frozen_dihedral = ("
		11 8 5 9,
		5 3 2 4
	")
}

ee = energy('scf')
oeprop('DIPOLE', 'QUADRUPOLE', 'MULLIKEN_CHARGES')
f=open( 'psi4out.xyz', 'w' )
f.write( "19  " )
f.write( str(ee) + "\n" )
f.write( MOL.save_string_xyz() )
f.close()
--------------------------------------------------------------------------

    Molecular point group: c1

    Geometry (in Angstrom), charge = 0, multiplicity = 1:

       Center              X                  Y                   Z               Mass
    ------------   -----------------  -----------------  -----------------  -----------------
           O         -1.524653055396    -1.079911100694     0.345437725159    15.994914619560
           C         -1.136016055396     0.002316899306     0.664604725159    12.000000000000
           C          0.185592944604     0.172498899306     1.392879725159    12.000000000000
           C         -1.920683055396     1.254723899306     0.342098725159    12.000000000000
           C          1.363608944604     0.146756899306     0.406224725159    12.000000000000
           H          0.194112944604     1.102316899306     1.954794725159     1.007825032070
           H          0.282436944604    -0.648319100694     2.094877725159     1.007825032070
           C          0.936151944604    -0.236281100694    -1.011376274841    12.000000000000
           H          2.119918944604    -0.554597100694     0.754333725159     1.007825032070
           H          1.829369944604     1.127640899306     0.397574725159     1.007825032070
           C          2.104176944604    -0.253944100694    -1.996572274841    12.000000000000
           H          0.462271944604    -1.215344100694    -0.994079274841     1.007825032070
           H          0.180289944604     0.464189899306    -1.358625274841     1.007825032070
           H          2.862280944604    -0.970808100694    -1.694184274841     1.007825032070
           H          2.577949944604     0.721246899306    -2.059689274841     1.007825032070
           H          1.771315944604    -0.525542100694    -2.993299274841     1.007825032070
           H         -2.759927055396     1.011548899306    -0.294520274841     1.007825032070
           H         -1.288877055396     1.991506899306    -0.145203274841     1.007825032070
           H         -2.284957055396     1.703466899306     1.262526725159     1.007825032070

  Charge       = 0
  Multiplicity = 1
  Basis Set: 6-31G*
  Basis Set:

    Orbital Energies (a.u.)
    -----------------------

    Doubly Occupied:

       1A    -20.546272     2A    -11.324799     3A    -11.228606
       4A    -11.228448     5A    -11.227805     6A    -11.216639
       7A    -11.210009     8A     -1.394220     9A     -1.091298
      10A     -1.024687    11A     -0.983870    12A     -0.886943
      13A     -0.812086    14A     -0.724999    15A     -0.660844
      16A     -0.642149    17A     -0.622670    18A     -0.616584
      19A     -0.577662    20A     -0.571918    21A     -0.564374
      22A     -0.539218    23A     -0.509072    24A     -0.491129
      25A     -0.480795    26A     -0.464133    27A     -0.462602
      28A     -0.396554

  @DF-RHF Final Energy:  -309.05271535884452

   => Energetics <=

    Nuclear Repulsion Energy =            314.4893042919141521
    One-Electron Energy =               -1042.0832210879309514
    Two-Electron Energy =                 418.5412014371728446
    DFT Exchange-Correlation Energy =       0.0000000000000000
    Empirical Dispersion Energy =           0.0000000000000000
    PCM Polarization Energy =               0.0000000000000000
    EFP Energy =                            0.0000000000000000
    Total Energy =                       -309.0527153588440115

  Mulliken Charges: (a.u.)
   Center  Symbol    Alpha    Beta     Spin     Total
       1     O     4.26412  4.26412  0.00000 -0.52824
       2     C     2.74072  2.74072  0.00000  0.51855
       3     C     3.19917  3.19917  0.00000 -0.39833
       4     C     3.28799  3.28799  0.00000 -0.57598
       5     C     3.15692  3.15692  0.00000 -0.31383
       6     H     0.41424  0.41424  0.00000  0.17153
       7     H     0.39903  0.39903  0.00000  0.20194
       8     C     3.17144  3.17144  0.00000 -0.34289
       9     H     0.41289  0.41289  0.00000  0.17422
      10     H     0.41845  0.41845  0.00000  0.16310
      11     C     3.23789  3.23789  0.00000 -0.47579
      12     H     0.39732  0.39732  0.00000  0.20537
      13     H     0.42413  0.42413  0.00000  0.15173
      14     H     0.42078  0.42078  0.00000  0.15844
      15     H     0.42383  0.42383  0.00000  0.15233
      16     H     0.41702  0.41702  0.00000  0.16596
      17     H     0.39715  0.39715  0.00000  0.20570
      18     H     0.41043  0.41043  0.00000  0.17913
      19     H     0.40647  0.40647  0.00000  0.18705

   Total alpha = 28.00000, Total beta = 28.00000, Total charge =  0.00000
