  ==> Input File <==

--------------------------------------------------------------------------
set {
	reference rhf
	basis 6-31G*
}

set_num_threads( 4 )
memory 2 gb

molecule MOL {
0 1

H	 -2.202823	 -1.015365	 0.671801
O	 -2.347518	 -0.290803	 0.079804
C	 -1.184022	 0.487508	 -0.006784
C	 0.062599	 -0.378592	 0.031606
H	 -1.176523	 1.099369	 -0.904519
H	 -1.187323	 1.153111	 0.844927
O	 1.171513	 0.459272	 -0.058250
H	 0.050699	 -1.089204	 -0.797170
H	 0.078739	 -0.954914	 0.954740
C	 2.397842	 -0.198080	 -0.002151
H	 2.508049	 -0.905315	 -0.822092
H	 3.173794	 0.550865	 -0.078850
H	 2.517602	 -0.735921	 0.936026

	symmetry c1
}
set optking {
	frozen_dihedral = ("
		1 2 3 5
	")
}

ee = optimize('scf')
oeprop('DIPOLE', 'QUADRUPOLE', 'MULLIKEN_CHARGES')
f=open( 'psi4out.xyz', 'w' )
f.write( "13  " )
f.write( str(ee) + "\n" )
f.write( MOL.save_string_xyz() )
f.close()
--------------------------------------------------------------------------

    Molecular point group: c1
  Charge       = 0
  Multiplicity = 1
  Basis Set: 6-31G*
  Basis Set:
  @DF-RHF Final Energy:  -267.94702756747802
    Total Energy =                       -267.9470275674778463
    Molecular point group: c1
  Basis Set: 6-31G*
  Basis Set:
  Basis Set: 6-31G*
  Basis Set:
  @DF-RHF Final Energy:  -267.94857511358418
    Total Energy =                       -267.9485751135841838
  Basis Set: 6-31G*
  Basis Set:
  Basis Set: 6-31G*
  Basis Set:
  @DF-RHF Final Energy:  -267.94890060262946
    Total Energy =                       -267.9489006026292373
  Basis Set: 6-31G*
  Basis Set:
  Basis Set: 6-31G*
  Basis Set:
  @DF-RHF Final Energy:  -267.94890575299803
    Total Energy =                       -267.9489057529980869
  Basis Set: 6-31G*
  Basis Set:
  Charge       = 0
  Multiplicity = 1
  Basis Set: 6-31G*
  Basis Set:

    Orbital Energies (a.u.)
    -----------------------

    Doubly Occupied:

       1A    -20.566328     2A    -20.559149     3A    -11.277041
       4A    -11.273114     5A    -11.268798     6A     -1.392772
       7A     -1.364593     8A     -1.020905     9A     -0.915257
      10A     -0.848460    11A     -0.702971    12A     -0.678835
      13A     -0.668288    14A     -0.632012    15A     -0.599750
      16A     -0.577963    17A     -0.545901    18A     -0.495861
      19A     -0.475045    20A     -0.440129    21A     -0.426057

  @DF-RHF Final Energy:  -267.94890616777553

   => Energetics <=

    Nuclear Repulsion Energy =            190.3859126937614974
    One-Electron Energy =                -743.2111774529881814
    Two-Electron Energy =                 284.8763585914512078
    DFT Exchange-Correlation Energy =       0.0000000000000000
    Empirical Dispersion Energy =           0.0000000000000000
    PCM Polarization Energy =               0.0000000000000000
    EFP Energy =                            0.0000000000000000
    Total Energy =                       -267.9489061677754762
    Molecular point group: c1
  Basis Set: 6-31G*
  Basis Set:

  -Total Gradient:
     Atom            X                  Y                   Z
    ------   -----------------  -----------------  -----------------
       1        0.001133688682    -0.001857159926    -0.002265945670
       2       -0.001148175231     0.001790595855     0.002547822261
       3       -0.001335126897     0.002100758016     0.000937960617
       4       -0.000033131719     0.000019665628    -0.000033586896
       5        0.001348010191    -0.002048464089    -0.001184004228
       6        0.000002452086    -0.000015726126    -0.000006563590
       7        0.000035501074     0.000004579248     0.000007412872
       8       -0.000003109163    -0.000019873377     0.000002850535
       9       -0.000003950208     0.000025089434    -0.000016363741
      10       -0.000002121436     0.000002286037     0.000018291830
      11       -0.000003293995     0.000003096807    -0.000003969432
      12       -0.000001225925     0.000000040107    -0.000003443768
      13        0.000010482539    -0.000004887613    -0.000000460791

  **** Optimization is complete! (in 5 steps) ****
    Final optimized geometry and variables:
    Molecular point group: c1

    Geometry (in Angstrom), charge = 0, multiplicity = 1:

    H           -2.256897887793    -0.990840423794     0.654419306176
    O           -2.356606483725    -0.288574907312     0.026911924733
    C           -1.188016758670     0.486305290550    -0.020441688336
    C            0.062706381870    -0.375641090785     0.020460368671
    H           -1.203950156712     1.021233496649    -0.959651916300
    H           -1.158106768013     1.208871639992     0.789513359691
    O            1.168662127865     0.466619336887    -0.034479359219
    H            0.056600759910    -1.070632408675    -0.817960538915
    H            0.081116278389    -0.968907178761     0.938199767717
    C            2.396789283292    -0.191105567272    -0.032537289066
    H            2.494397645118    -0.851913149397    -0.891311014750
    H            3.170021793579     0.562842763591    -0.079583814412
    H            2.531075818461    -0.778547458622     0.873669030847

  Mulliken Charges: (a.u.)
   Center  Symbol    Alpha    Beta     Spin     Total
       1     H     0.28229  0.28229  0.00000  0.43542
       2     O     4.37344  4.37344  0.00000 -0.74687
       3     C     2.99173  2.99173  0.00000  0.01655
       4     C     3.00727  3.00727  0.00000 -0.01455
       5     H     0.40984  0.40984  0.00000  0.18032
       6     H     0.42110  0.42110  0.00000  0.15781
       7     O     4.30580  4.30580  0.00000 -0.61161
       8     H     0.42386  0.42386  0.00000  0.15228
       9     H     0.43810  0.43810  0.00000  0.12380
      10     C     3.08092  3.08092  0.00000 -0.16185
      11     H     0.42742  0.42742  0.00000  0.14515
      12     H     0.40956  0.40956  0.00000  0.18088
      13     H     0.42867  0.42867  0.00000  0.14266

   Total alpha = 21.00000, Total beta = 21.00000, Total charge = -0.00000
