  ==> Input File <==

--------------------------------------------------------------------------
set {
	reference rhf
	basis cc-pvtz
}

set_num_threads( 4 )
memory 2 gb

molecule MOL {
0 1

H	 2.746512	 -0.652758	 0.821952
N	 2.433987	 -0.362316	 -0.080024
C	 1.263552	 0.494993	 0.021953
H	 2.225888	 -1.189133	 -0.600029
C	 -0.016533	 -0.325589	 -0.026925
H	 1.280915	 1.180773	 -0.818522
H	 1.263064	 1.106893	 0.925038
C	 -1.280353	 0.525521	 0.047747
H	 -0.016686	 -0.912532	 -0.939714
H	 -0.014099	 -1.037598	 0.796369
C	 -2.560681	 -0.301323	 -0.007747
H	 -1.279957	 1.241025	 -0.770189
H	 -1.270445	 1.110526	 0.963468
H	 -2.617064	 -0.872870	 -0.928010
H	 -3.439525	 0.331102	 0.043462
H	 -2.609427	 -1.002736	 0.818585

	symmetry c1
}
set optking {
	frozen_dihedral = ("
		1 2 3 6
	")
}

ee = optimize('scf')
oeprop('DIPOLE', 'QUADRUPOLE', 'MULLIKEN_CHARGES')
f=open( 'psi4out.xyz', 'w' )
f.write( "16  " )
f.write( str(ee) + "\n" )
f.write( MOL.save_string_xyz() )
f.close()
--------------------------------------------------------------------------

    Molecular point group: c1
  Charge       = 0
  Multiplicity = 1
  Basis Set: CC-PVTZ
  Basis Set:
  @DF-RHF Final Energy:  -212.39677920419646
    Total Energy =                       -212.3967792041963207
    Molecular point group: c1
  Basis Set: CC-PVTZ
  Basis Set:
  Basis Set: CC-PVTZ
  Basis Set:
  @DF-RHF Final Energy:  -212.39856925196327
    Total Energy =                       -212.3985692519634085
  Basis Set: CC-PVTZ
  Basis Set:
  Basis Set: CC-PVTZ
  Basis Set:
  @DF-RHF Final Energy:  -212.39879304949807
    Total Energy =                       -212.3987930494979537
  Basis Set: CC-PVTZ
  Basis Set:
  Basis Set: CC-PVTZ
  Basis Set:
  @DF-RHF Final Energy:  -212.39880510208903
    Total Energy =                       -212.3988051020889429
  Basis Set: CC-PVTZ
  Basis Set:
  Basis Set: CC-PVTZ
  Basis Set:
  @DF-RHF Final Energy:  -212.39880661334510
    Total Energy =                       -212.3988066133449024
  Basis Set: CC-PVTZ
  Basis Set:
  Charge       = 0
  Multiplicity = 1
  Basis Set: CC-PVTZ
  Basis Set:

    Orbital Energies (a.u.)
    -----------------------

    Doubly Occupied:

       1A    -15.524275     2A    -11.237896     3A    -11.215339
       4A    -11.211414     5A    -11.208342     6A     -1.176591
       7A     -1.062765     8A     -0.960289     9A     -0.848206
      10A     -0.797011    11A     -0.677345    12A     -0.629091
      13A     -0.597745    14A     -0.588920    15A     -0.557278
      16A     -0.525740    17A     -0.503503    18A     -0.484104
      19A     -0.471685    20A     -0.465360    21A     -0.375927

  @DF-RHF Final Energy:  -212.39880691312013

   => Energetics <=

    Nuclear Repulsion Energy =            186.3613189843959219
    One-Electron Energy =                -655.2826015750325723
    Two-Electron Energy =                 256.5224756775165247
    DFT Exchange-Correlation Energy =       0.0000000000000000
    Empirical Dispersion Energy =           0.0000000000000000
    PCM Polarization Energy =               0.0000000000000000
    EFP Energy =                            0.0000000000000000
    Total Energy =                       -212.3988069131201541
    Molecular point group: c1
  Basis Set: CC-PVTZ
  Basis Set:

  -Total Gradient:
     Atom            X                  Y                   Z
    ------   -----------------  -----------------  -----------------
       1        0.001629766789     0.002520925899     0.000333434773
       2       -0.001743342368    -0.002738443802    -0.000050035008
       3       -0.001151785437    -0.001601930159    -0.001909915295
       4       -0.000006908916     0.000017349542     0.000007993644
       5        0.000034290023     0.000005095555     0.000013022494
       6        0.001257446188     0.001794089722     0.001613077541
       7        0.000002120708     0.000012792747     0.000004279638
       8       -0.000026789698     0.000006744849    -0.000019375089
       9       -0.000013249976     0.000005942993     0.000008555673
      10       -0.000007257493    -0.000012141206    -0.000000532540
      11        0.000006028079    -0.000003310746     0.000004871782
      12        0.000003563821     0.000002041503    -0.000005950586
      13        0.000008047801    -0.000007853763     0.000000171202
      14       -0.000002432767     0.000000561824    -0.000005736226
      15        0.000011486153     0.000002527455     0.000003071619
      16       -0.000000982905    -0.000004392414     0.000003066377

  **** Optimization is complete! (in 6 steps) ****
    Final optimized geometry and variables:
    Molecular point group: c1

    Geometry (in Angstrom), charge = 0, multiplicity = 1:

    H            2.780926105263    -0.625234244527     0.846623416986
    N            2.490835834923    -0.312646986031    -0.053404970550
    C            1.268945767092     0.471654303169     0.012758895229
    H            2.400603772434    -1.104781368541    -0.652015593342
    C           -0.026507527995    -0.332576687416    -0.019136974790
    H            1.274765109890     1.196530471752    -0.795816162124
    H            1.305150928328     1.058343365286     0.925026645465
    C           -1.278585926022     0.537146462716     0.041588466855
    H           -0.048687441756    -0.931393055298    -0.927789973703
    H           -0.028701710590    -1.035301786964     0.811006137795
    C           -2.572192329495    -0.269469459750    -0.001010468690
    H           -1.266836464473     1.241725375665    -0.785404129442
    H           -1.257248201987     1.133990292775     0.949490491562
    H           -2.641202354562    -0.849864369519    -0.915034328621
    H           -3.440415219670     0.377722016173     0.045642167230
    H           -2.629842349871    -0.960867523945     0.833086123287

  Mulliken Charges: (a.u.)
   Center  Symbol    Alpha    Beta     Spin     Total
       1     H     0.42869  0.42869  0.00000  0.14263
       2     N     3.69643  3.69643  0.00000 -0.39285
       3     C     3.02409  3.02409  0.00000 -0.04818
       4     H     0.42870  0.42870  0.00000  0.14260
       5     C     3.08517  3.08517  0.00000 -0.17035
       6     H     0.45545  0.45545  0.00000  0.08910
       7     H     0.45747  0.45747  0.00000  0.08506
       8     C     3.09002  3.09002  0.00000 -0.18003
       9     H     0.45936  0.45936  0.00000  0.08129
      10     H     0.45903  0.45903  0.00000  0.08193
      11     C     3.14868  3.14868  0.00000 -0.29737
      12     H     0.45413  0.45413  0.00000  0.09174
      13     H     0.45453  0.45453  0.00000  0.09094
      14     H     0.45489  0.45489  0.00000  0.09022
      15     H     0.44829  0.44829  0.00000  0.10342
      16     H     0.45508  0.45508  0.00000  0.08985

   Total alpha = 21.00000, Total beta = 21.00000, Total charge = -0.00000
