  ==> Input File <==

--------------------------------------------------------------------------
set {
	reference rhf
	basis 6-31G*
}

set_num_threads( 4 )
memory 2 gb

molecule MOL {
0 1

H	 -3.820736	 1.069369	 0.467257
O	 -2.964583	 1.378566	 0.208077
C	 -2.026376	 0.340750	 0.341611
C	 -0.673256	 0.843270	 -0.132153
H	 -1.956895	 0.023767	 1.380664
H	 -2.328114	 -0.525214	 -0.246364
C	 0.486613	 -0.083066	 0.235839
H	 -0.715586	 0.970948	 -1.210718
H	 -0.508072	 1.829858	 0.297090
C	 1.840406	 0.433480	 -0.254303
H	 0.300215	 -1.068318	 -0.178947
H	 0.519509	 -0.203625	 1.318070
C	 3.000220	 -0.489290	 0.118523
H	 1.809207	 0.553576	 -1.335192
H	 2.021860	 1.424500	 0.157276
H	 2.864959	 -1.479103	 -0.307933
H	 3.946603	 -0.099227	 -0.243630
H	 3.080049	 -0.602997	 1.196117

	symmetry c1
}
set optking {
	frozen_dihedral = ("
		2 3 4 8
	")
}

ee = optimize('scf')
oeprop('DIPOLE', 'QUADRUPOLE', 'MULLIKEN_CHARGES')
f=open( 'psi4out.xyz', 'w' )
f.write( "18  " )
f.write( str(ee) + "\n" )
f.write( MOL.save_string_xyz() )
f.close()
--------------------------------------------------------------------------

    Molecular point group: c1
  Charge       = 0
  Multiplicity = 1
  Basis Set: 6-31G*
  Basis Set:
  @DF-RHF Final Energy:  -271.17908040707323
    Total Energy =                       -271.1790804070730019
    Molecular point group: c1
  Basis Set: 6-31G*
  Basis Set:
  Basis Set: 6-31G*
  Basis Set:
  @DF-RHF Final Energy:  -271.17919463004569
    Total Energy =                       -271.1791946300456857
  Basis Set: 6-31G*
  Basis Set:
  Basis Set: 6-31G*
  Basis Set:
  @DF-RHF Final Energy:  -271.17920980746749
    Total Energy =                       -271.1792098074673731
  Basis Set: 6-31G*
  Basis Set:
  Basis Set: 6-31G*
  Basis Set:
  @DF-RHF Final Energy:  -271.17921337086170
    Total Energy =                       -271.1792133708616461
  Basis Set: 6-31G*
  Basis Set:
  Basis Set: 6-31G*
  Basis Set:
  @DF-RHF Final Energy:  -271.17921495016361
    Total Energy =                       -271.1792149501637255
  Basis Set: 6-31G*
  Basis Set:
  Charge       = 0
  Multiplicity = 1
  Basis Set: 6-31G*
  Basis Set:

    Orbital Energies (a.u.)
    -----------------------

    Doubly Occupied:

       1A    -20.551881     2A    -11.267278     3A    -11.216217
       4A    -11.215477     5A    -11.210956     6A    -11.208800
       7A     -1.358643     8A     -1.080437     9A     -1.011069
      10A     -0.913031    11A     -0.819900    12A     -0.792380
      13A     -0.693470    14A     -0.661202    15A     -0.621518
      16A     -0.587217    17A     -0.571199    18A     -0.556426
      19A     -0.530872    20A     -0.494268    21A     -0.490051
      22A     -0.468687    23A     -0.464476    24A     -0.450845
      25A     -0.433691

  @DF-RHF Final Energy:  -271.17921507733104

   => Energetics <=

    Nuclear Repulsion Energy =            245.2594364395799005
    One-Electron Energy =                -853.5373148316025436
    Two-Electron Energy =                 337.0986633146918052
    DFT Exchange-Correlation Energy =       0.0000000000000000
    Empirical Dispersion Energy =           0.0000000000000000
    PCM Polarization Energy =               0.0000000000000000
    EFP Energy =                            0.0000000000000000
    Total Energy =                       -271.1792150773308663
    Molecular point group: c1
  Basis Set: 6-31G*
  Basis Set:

  -Total Gradient:
     Atom            X                  Y                   Z
    ------   -----------------  -----------------  -----------------
       1        0.000024790687    -0.000019808465     0.000001708246
       2        0.000412342505     0.000600768450     0.001780930931
       3       -0.000328140286    -0.001318631673    -0.002363706986
       4       -0.000891789780     0.003016656787     0.000900025070
       5       -0.000005791335     0.000012409746    -0.000000656409
       6       -0.000003608401    -0.000000343482    -0.000008152533
       7        0.000011347901    -0.000038774263    -0.000021338243
       8        0.000807569802    -0.002321515919    -0.000307811204
       9        0.000006240700     0.000031652611    -0.000000296786
      10       -0.000017390878     0.000013344912     0.000004083246
      11        0.000008979431     0.000019432417     0.000007168257
      12       -0.000006408237     0.000012084375     0.000002720289
      13       -0.000010184905    -0.000016244132    -0.000001320863
      14       -0.000001664854     0.000005443434    -0.000002483870
      15       -0.000007595717     0.000002093417     0.000006767974
      16        0.000000227781    -0.000002456459     0.000006423995
      17       -0.000003314659     0.000001515225    -0.000004625755
      18        0.000004390255     0.000002373016     0.000000564638

  **** Optimization is complete! (in 6 steps) ****
    Final optimized geometry and variables:
    Molecular point group: c1

    Geometry (in Angstrom), charge = 0, multiplicity = 1:

    H           -3.702452051643     0.626542865993     0.350419473294
    O           -2.846936799701     0.948395009441     0.104536980012
    C           -1.898175761071    -0.077850130231     0.245257113013
    C           -0.550103446524     0.451619018118    -0.215181947296
    H           -1.836389287321    -0.392731620446     1.286273649490
    H           -2.179361207336    -0.950133413635    -0.342520755579
    C            0.605502415731    -0.482499496387     0.150010799867
    H           -0.576784394447     0.585960739356    -1.293240804124
    H           -0.397593003479     1.430058495069     0.230011153939
    C            1.960992946029     0.016746611175    -0.353335500908
    H            0.417118260641    -1.474382923260    -0.259118199710
    H            0.647981667010    -0.602116525876     1.231313787504
    C            3.115403607158    -0.912385199250     0.019834361469
    H            1.923507766357     0.130014326964    -1.434485093164
    H            2.150232020099     1.008762133023     0.050722933051
    H            2.970732942467    -1.905017969128    -0.397446354109
    H            4.061942819566    -0.532495028516    -0.352013854641
    H            3.201860924203    -1.017326153872     1.097694523207

  Mulliken Charges: (a.u.)
   Center  Symbol    Alpha    Beta     Spin     Total
       1     H     0.28130  0.28130  0.00000  0.43740
       2     O     4.37176  4.37176  0.00000 -0.74352
       3     C     2.98999  2.98999  0.00000  0.02001
       4     C     3.15947  3.15947  0.00000 -0.31894
       5     H     0.43283  0.43283  0.00000  0.13434
       6     H     0.43223  0.43223  0.00000  0.13554
       7     C     3.15924  3.15924  0.00000 -0.31848
       8     H     0.41689  0.41689  0.00000  0.16623
       9     H     0.41207  0.41207  0.00000  0.17586
      10     C     3.15082  3.15082  0.00000 -0.30164
      11     H     0.42467  0.42467  0.00000  0.15066
      12     H     0.42310  0.42310  0.00000  0.15379
      13     C     3.23945  3.23945  0.00000 -0.47889
      14     H     0.42202  0.42202  0.00000  0.15596
      15     H     0.42145  0.42145  0.00000  0.15709
      16     H     0.42206  0.42206  0.00000  0.15587
      17     H     0.41885  0.41885  0.00000  0.16230
      18     H     0.42179  0.42179  0.00000  0.15642

   Total alpha = 25.00000, Total beta = 25.00000, Total charge = -0.00000
