  ==> Input File <==

--------------------------------------------------------------------------
set {
	reference rhf
	basis cc-pvtz
}

set_num_threads( 4 )
memory 2 gb

molecule MOL {
0 1

H	 -1.835082	 1.385983	 0.000069
C	 -1.300516	 0.441153	 -0.000028
O	 -0.006604	 0.654344	 -0.000106
O	 -1.828920	 -0.612308	 0.000113
C	 0.717217	 0.336510	 1.185173
C	 2.170444	 0.666594	 0.940475
H	 0.578178	 -0.711638	 1.408806
H	 0.310741	 0.909023	 2.006738
H	 2.562909	 0.089162	 0.113122
H	 2.750518	 0.435644	 1.825931
H	 2.294127	 1.717972	 0.714031

	symmetry c1
}
set optking {
	frozen_dihedral = ("
		5 3 2 4
	")
}

ee = optimize('scf')
oeprop('DIPOLE', 'QUADRUPOLE', 'MULLIKEN_CHARGES')
f=open( 'psi4out.xyz', 'w' )
f.write( "11  " )
f.write( str(ee) + "\n" )
f.write( MOL.save_string_xyz() )
f.close()
--------------------------------------------------------------------------

    Molecular point group: c1
  Charge       = 0
  Multiplicity = 1
  Basis Set: CC-PVTZ
  Basis Set:
  @DF-RHF Final Energy:  -266.91431316841783
    Total Energy =                       -266.9143131684178343
    Molecular point group: c1
  Basis Set: CC-PVTZ
  Basis Set:
  Basis Set: CC-PVTZ
  Basis Set:
  @DF-RHF Final Energy:  -266.91044930329531
    Total Energy =                       -266.9104493032952519
  Basis Set: CC-PVTZ
  Basis Set:
  Basis Set: CC-PVTZ
  Basis Set:
  @DF-RHF Final Energy:  -266.91522407558671
    Total Energy =                       -266.9152240755868206
  Basis Set: CC-PVTZ
  Basis Set:
  Basis Set: CC-PVTZ
  Basis Set:
  @DF-RHF Final Energy:  -266.91547445182107
    Total Energy =                       -266.9154744518210123
  Basis Set: CC-PVTZ
  Basis Set:
  Basis Set: CC-PVTZ
  Basis Set:
  @DF-RHF Final Energy:  -266.91548124862493
    Total Energy =                       -266.9154812486249284
  Basis Set: CC-PVTZ
  Basis Set:
  Charge       = 0
  Multiplicity = 1
  Basis Set: CC-PVTZ
  Basis Set:

    Orbital Energies (a.u.)
    -----------------------

    Doubly Occupied:

       1A    -20.587174     2A    -20.557985     3A    -11.373180
       4A    -11.296994     5A    -11.225847     6A     -1.470150
       7A     -1.380097     8A     -1.050207     9A     -0.892728
      10A     -0.820039    11A     -0.743213    12A     -0.691641
      13A     -0.656282    14A     -0.633792    15A     -0.563803
      16A     -0.543510    17A     -0.534292    18A     -0.508727
      19A     -0.467177    20A     -0.454031

  @DF-RHF Final Energy:  -266.91548583491561

   => Energetics <=

    Nuclear Repulsion Energy =            177.8443504605383509
    One-Electron Energy =                -716.6179326063586359
    Two-Electron Energy =                 271.8580963109045570
    DFT Exchange-Correlation Energy =       0.0000000000000000
    Empirical Dispersion Energy =           0.0000000000000000
    PCM Polarization Energy =               0.0000000000000000
    EFP Energy =                            0.0000000000000000
    Total Energy =                       -266.9154858349156711
    Molecular point group: c1
  Basis Set: CC-PVTZ
  Basis Set:

  -Total Gradient:
     Atom            X                  Y                   Z
    ------   -----------------  -----------------  -----------------
       1        0.000007212906    -0.000032142504     0.000014302224
       2       -0.000187942109     0.001850947585     0.010722695496
       3        0.001117524640    -0.006538316042    -0.006272737903
       4       -0.000085761919     0.000248969557    -0.006521521729
       5       -0.000879626556     0.004472125668     0.002031974576
       6       -0.000000998712    -0.000006352589     0.000029420968
       7        0.000017033106     0.000011392319    -0.000008644321
       8        0.000019567713    -0.000000812130    -0.000006027475
       9       -0.000015063431    -0.000003276172     0.000004864474
      10        0.000015683246     0.000002549564     0.000001817659
      11       -0.000007628884    -0.000005085259     0.000003856032

  **** Optimization is complete! (in 6 steps) ****
    Final optimized geometry and variables:
    Molecular point group: c1

    Geometry (in Angstrom), charge = 0, multiplicity = 1:

    H           -1.883847471540     1.041671072724    -0.445015268679
    C           -1.277192593028     0.139022413046    -0.415797990824
    O            0.028061536376     0.408888819155    -0.399239796526
    O           -1.737736250967    -0.938024382370    -0.476187208729
    C            0.760445381045     0.054682022347     0.769749071674
    C            2.219548702255     0.348296737937     0.517533615830
    H            0.602210337693    -0.993939450822     0.982578434087
    H            0.388186573400     0.637433824017     1.605351463118
    H            2.585135043026    -0.236714932118    -0.316197532146
    H            2.801115504697     0.098807904926     1.397162679244
    H            2.366012786632     1.396991836516     0.293163095682

  Mulliken Charges: (a.u.)
   Center  Symbol    Alpha    Beta     Spin     Total
       1     H     0.46073  0.46073  0.00000  0.07854
       2     C     2.83768  2.83768  0.00000  0.32464
       3     O     4.16056  4.16056  0.00000 -0.32112
       4     O     4.17007  4.17007  0.00000 -0.34014
       5     C     2.96856  2.96856  0.00000  0.06287
       6     C     3.13457  3.13457  0.00000 -0.26915
       7     H     0.45125  0.45125  0.00000  0.09750
       8     H     0.46391  0.46391  0.00000  0.07218
       9     H     0.44688  0.44688  0.00000  0.10624
      10     H     0.45585  0.45585  0.00000  0.08829
      11     H     0.44992  0.44992  0.00000  0.10015

   Total alpha = 20.00000, Total beta = 20.00000, Total charge = -0.00000
