  ==> Input File <==

--------------------------------------------------------------------------
set {
	reference rhf
	basis 6-31G*
}

set_num_threads( 4 )
memory 2 gb

molecule MOL {
0 1

H	 3.089270	 -1.380733	 0.000000
O	 2.178328	 -1.639175	 0.000000
C	 1.368216	 -0.558384	 0.000000
C	 0.758919	 -0.085063	 -1.155001
C	 1.153919	 0.082583	 1.207754
H	 0.927012	 -0.585343	 -2.093884
C	 -0.063478	 1.027810	 -1.101623
H	 1.623940	 -0.281984	 2.100641
C	 0.329166	 1.196063	 1.252501
H	 -0.529492	 1.384817	 -2.002043
C	 -0.283239	 1.674585	 0.101090
C	 0.094642	 1.889444	 2.546754
H	 -0.921655	 2.539175	 0.144847
O	 0.571326	 1.558720	 3.584993
H	 -0.568634	 2.757878	 2.490765

	symmetry c1
}
set optking {
	frozen_dihedral = ("
		4 3 2 1
	")
}

ee = optimize('scf')
oeprop('DIPOLE', 'QUADRUPOLE', 'MULLIKEN_CHARGES')
f=open( 'psi4out.xyz', 'w' )
f.write( "15  " )
f.write( str(ee) + "\n" )
f.write( MOL.save_string_xyz() )
f.close()
--------------------------------------------------------------------------

    Molecular point group: c1
  Charge       = 0
  Multiplicity = 1
  Basis Set: 6-31G*
  Basis Set:
  @DF-RHF Final Energy:  -418.28185728009220
    Total Energy =                       -418.2818572800923675
    Molecular point group: c1
  Basis Set: 6-31G*
  Basis Set:
  Basis Set: 6-31G*
  Basis Set:
  @DF-RHF Final Energy:  -418.28285846020685
    Total Energy =                       -418.2828584602068531
  Basis Set: 6-31G*
  Basis Set:
  Basis Set: 6-31G*
  Basis Set:
  @DF-RHF Final Energy:  -418.28104388148290
    Total Energy =                       -418.2810438814832423
  Basis Set: 6-31G*
  Basis Set:
  Basis Set: 6-31G*
  Basis Set:
  @DF-RHF Final Energy:  -418.28296455528738
    Total Energy =                       -418.2829645552873217
  Basis Set: 6-31G*
  Basis Set:
  Basis Set: 6-31G*
  Basis Set:
  @DF-RHF Final Energy:  -418.28297659053152
    Total Energy =                       -418.2829765905316890
  Basis Set: 6-31G*
  Basis Set:
  Charge       = 0
  Multiplicity = 1
  Basis Set: 6-31G*
  Basis Set:

    Orbital Energies (a.u.)
    -----------------------

    Doubly Occupied:

       1A    -20.587316     2A    -20.565403     3A    -11.334216
       4A    -11.303316     5A    -11.253722     6A    -11.251585
       7A    -11.250695     8A    -11.248624     9A    -11.244981
      10A     -1.406189    11A     -1.403239    12A     -1.170303
      13A     -1.049002    14A     -1.026166    15A     -0.897755
      16A     -0.846586    17A     -0.799729    18A     -0.743254
      19A     -0.698244    20A     -0.677509    21A     -0.653910
      22A     -0.633132    23A     -0.618433    24A     -0.605992
      25A     -0.556408    26A     -0.545341    27A     -0.531050
      28A     -0.498127    29A     -0.486098    30A     -0.424331
      31A     -0.352120    32A     -0.342072

  @DF-RHF Final Energy:  -418.28297827099266

   => Energetics <=

    Nuclear Repulsion Energy =            402.6015001080669435
    One-Electron Energy =               -1367.7592533916208595
    Two-Electron Energy =                 546.8747750125612583
    DFT Exchange-Correlation Energy =       0.0000000000000000
    Empirical Dispersion Energy =           0.0000000000000000
    PCM Polarization Energy =               0.0000000000000000
    EFP Energy =                            0.0000000000000000
    Total Energy =                       -418.2829782709926576
    Molecular point group: c1
  Basis Set: 6-31G*
  Basis Set:

  -Total Gradient:
     Atom            X                  Y                   Z
    ------   -----------------  -----------------  -----------------
       1       -0.000022292342     0.000033083888    -0.001002718603
       2        0.000397044513     0.000098827698     0.001220795744
       3       -0.001047654662    -0.000504368947    -0.000270971262
       4        0.000691707830     0.000274643411    -0.000068732954
       5        0.000001213791     0.000026952850     0.000092834799
       6        0.000005958170    -0.000017460665     0.000001897679
       7       -0.000056468357     0.000196849564     0.000100668441
       8       -0.000018406527     0.000009704970    -0.000011288507
       9        0.000104030878    -0.000071012554     0.000073354259
      10        0.000011268340    -0.000015075217     0.000003184219
      11       -0.000051178100    -0.000070788540    -0.000192401842
      12       -0.000007065913     0.000033508007    -0.000015347811
      13       -0.000001437752     0.000005589499     0.000039746039
      14       -0.000006476651     0.000003465152     0.000013429400
      15       -0.000000243223    -0.000003919114     0.000015550400

  **** Optimization is complete! (in 6 steps) ****
    Final optimized geometry and variables:
    Molecular point group: c1

    Geometry (in Angstrom), charge = 0, multiplicity = 1:

    H            2.363439691520    -1.961192049275    -0.825035666585
    O            1.447696683422    -2.205569811468    -0.799534926287
    C            0.657997336864    -1.089562011857    -0.740756570068
    C            0.052434758719    -0.624331081553    -1.900981464929
    C            0.434621580717    -0.453134127992     0.462721179325
    H            0.234672930447    -1.143088072014    -2.824207331916
    C           -0.778117060570     0.481155562259    -1.855454711497
    H            0.891022820662    -0.817396814102     1.363598051660
    C           -0.396042097945     0.661969586392     0.506186231921
    H           -1.246746112206     0.835604145333    -2.755322278989
    C           -1.002838530310     1.128138436746    -0.650465719177
    C           -0.638036768714     1.356275490634     1.795924658456
    H           -1.647638160829     1.988792618036    -0.611347970620
    O           -0.149304643239     1.039567900739     2.833728225341
    H           -1.316999999917     2.212512198472     1.740097042540

  Mulliken Charges: (a.u.)
   Center  Symbol    Alpha    Beta     Spin     Total
       1     H     0.26929  0.26929  0.00000  0.46142
       2     O     4.38670  4.38670  0.00000 -0.77340
       3     C     2.81984  2.81984  0.00000  0.36032
       4     C     3.10730  3.10730  0.00000 -0.21460
       5     C     3.10993  3.10993  0.00000 -0.21985
       6     H     0.38767  0.38767  0.00000  0.22466
       7     C     3.10179  3.10179  0.00000 -0.20359
       8     H     0.37324  0.37324  0.00000  0.25351
       9     C     3.05172  3.05172  0.00000 -0.10344
      10     H     0.39258  0.39258  0.00000  0.21483
      11     C     3.10733  3.10733  0.00000 -0.21466
      12     C     2.83190  2.83190  0.00000  0.33620
      13     H     0.39199  0.39199  0.00000  0.21602
      14     O     4.24703  4.24703  0.00000 -0.49405
      15     H     0.42169  0.42169  0.00000  0.15663

   Total alpha = 32.00000, Total beta = 32.00000, Total charge = -0.00000
