                              Psi4 1.0.54 Driver

  ==> Input File <==

--------------------------------------------------------------------------
set {
	reference rhf
	basis cc-pvtz
}

set_num_threads( 4 )
memory 2 gb

molecule MOL {
0 1

O	 0.987049	 -0.134895	 0.662579
C	 0.029490	 0.077183	 0.000078
C	 -1.232113	 -0.748027	 0.000015
O	 -0.057695	 1.090252	 -0.845690
C	 -2.501422	 0.088592	 -0.000052
H	 -1.188777	 -1.400384	 -0.865133
H	 -1.188857	 -1.400312	 0.865225
H	 -2.548170	 0.725504	 -0.873205
H	 -3.371613	 -0.556398	 -0.000040
H	 -2.548215	 0.725571	 0.873047
C	 1.060070	 1.949359	 -0.946585
H	 1.270906	 2.413971	 0.005213
H	 0.795532	 2.697875	 -1.675673
H	 1.932503	 1.402898	 -1.272908

	symmetry c1
}
set optking {
	frozen_dihedral = ("
		4 2 3 6
	")
}

ee,wfn = optimize('scf', return_wfn=True)
oeprop( wfn, 'DIPOLE', 'QUADRUPOLE', 'MULLIKEN_CHARGES')
f=open( 'psi4out.xyz', 'w' )
f.write( "14  " )
f.write( str(ee) + "\n" )
f.write( MOL.save_string_xyz() )
f.close()
--------------------------------------------------------------------------

    Molecular point group: c1
  Charge       = 0
  Multiplicity = 1
  Basis Set: CC-PVTZ
  Basis Set:
  @DF-RHF Final Energy:  -305.98540169544026
    Total Energy =                       -305.9854016954403733
    Molecular point group: c1
  Basis Set: CC-PVTZ
  Basis Set:
  Basis Set: CC-PVTZ
  Basis Set:
  @DF-RHF Final Energy:  -305.98552705245413
    Total Energy =                       -305.9855270524541879
  Basis Set: CC-PVTZ
  Basis Set:
  Basis Set: CC-PVTZ
  Basis Set:
  @DF-RHF Final Energy:  -305.98572973266710
    Total Energy =                       -305.9857297326672096
  Basis Set: CC-PVTZ
  Basis Set:
  Basis Set: CC-PVTZ
  Basis Set:
  @DF-RHF Final Energy:  -305.98581578916617
    Total Energy =                       -305.9858157891663950
  Basis Set: CC-PVTZ
  Basis Set:
  Basis Set: CC-PVTZ
  Basis Set:
  @DF-RHF Final Energy:  -305.98581925471342
    Total Energy =                       -305.9858192547133626
  Basis Set: CC-PVTZ
  Basis Set:
  Charge       = 0
  Multiplicity = 1
  Basis Set: CC-PVTZ
  Basis Set:

    Orbital Energies (a.u.)
    -----------------------

    Doubly Occupied:

       1A    -20.598585     2A    -20.532807     3A    -11.364890
       4A    -11.279668     5A    -11.236974     6A    -11.221953
       7A     -1.473434     8A     -1.365490     9A     -1.067949
      10A     -0.976222    11A     -0.887628    12A     -0.776877
      13A     -0.697836    14A     -0.683922    15A     -0.676725
      16A     -0.621549    17A     -0.588080    18A     -0.567241
      19A     -0.547148    20A     -0.522529    21A     -0.516072
      22A     -0.500282    23A     -0.460481    24A     -0.437406

  @DF-RHF Final Energy:  -305.98581952243671

   => Energetics <=

    Nuclear Repulsion Energy =            248.7822373604311395
    One-Electron Energy =                -910.3326152460256253
    Two-Electron Energy =                 355.5645583631579711
    DFT Exchange-Correlation Energy =       0.0000000000000000
    Empirical Dispersion Energy =           0.0000000000000000
    PCM Polarization Energy =               0.0000000000000000
    EFP Energy =                            0.0000000000000000
    Total Energy =                       -305.9858195224364863
    Molecular point group: c1
  Basis Set: CC-PVTZ
  Basis Set:

  -Total Gradient:
     Atom            X                  Y                   Z
    ------   -----------------  -----------------  -----------------
       1       -0.000011050113    -0.000040164261     0.000007246400
       2        0.000346507899    -0.000489093379    -0.000410334438
       3       -0.000380512121     0.000601847657    -0.000269216764
       4       -0.000216170649     0.000363405649     0.000349122520
       5       -0.000006606278    -0.000000384791    -0.000017030107
       6        0.000288967114    -0.000430082303     0.000336172649
       7       -0.000001394735     0.000013070509     0.000001537089
       8       -0.000000980378     0.000003173811     0.000002825502
       9       -0.000007598557     0.000000227052    -0.000000299926
      10       -0.000003023050     0.000001617452     0.000006736906
      11        0.000004123533    -0.000026845263    -0.000015635918
      12       -0.000006234431    -0.000000569241     0.000010440410
      13       -0.000011828746    -0.000000603031    -0.000000530604
      14        0.000005800514     0.000004400139    -0.000001033720

  **** Optimization is complete! (in 6 steps) ****
    Final optimized geometry and variables:
    Molecular point group: c1

    Geometry (in Angstrom), charge = 0, multiplicity = 1:

    O            1.257872147451    -0.552796232070     0.843086698054
    C            0.294615722351    -0.316946738943     0.195980167404
    C           -0.960988128810    -1.153263602266     0.209611852598
    O            0.218805211148     0.703222910743    -0.641020617379
    C           -2.264888485593    -0.360824080260     0.196114768126
    H           -0.909472906379    -1.801214795183    -0.660270248928
    H           -0.896804030028    -1.788218948163     1.081086715596
    H           -2.356720426376     0.234027237487    -0.701342320876
    H           -3.107275388890    -1.039587776164     0.243291858834
    H           -2.326646435383     0.304863841452     1.049080240905
    C            1.357109761301     1.533525843062    -0.756046954864
    H            1.597737146342     1.982925053798     0.195784918580
    H            1.098292807115     2.295358247145    -1.473340338433
    H            2.208095790376     0.966850262155    -1.103524237414

  Mulliken Charges: (a.u.)
   Center  Symbol    Alpha    Beta     Spin     Total
       1     O     4.19966  4.19966  0.00000 -0.39933
       2     C     2.80426  2.80426  0.00000  0.39148
       3     C     3.08662  3.08662  0.00000 -0.17323
       4     O     4.14752  4.14752  0.00000 -0.29504
       5     C     3.14566  3.14566  0.00000 -0.29133
       6     H     0.44724  0.44724  0.00000  0.10551
       7     H     0.43529  0.43529  0.00000  0.12942
       8     H     0.44600  0.44600  0.00000  0.10800
       9     H     0.44860  0.44860  0.00000  0.10280
      10     H     0.45133  0.45133  0.00000  0.09733
      11     C     3.03460  3.03460  0.00000 -0.06919
      12     H     0.45378  0.45378  0.00000  0.09245
      13     H     0.44600  0.44600  0.00000  0.10800
      14     H     0.45344  0.45344  0.00000  0.09312

   Total alpha = 24.00000, Total beta = 24.00000, Total charge =  0.00000

*** Psi4 exiting successfully. Buy a developer a beer!
