  ==> Input File <==

--------------------------------------------------------------------------
set {
	reference rhf
	basis cc-pvtz
}

set_num_threads( 4 )
memory 2 gb

molecule MOL {
0 1

H	 1.625945	 0.067691	 -1.364703
C	 0.925135	 -0.484941	 -0.776488
C	 0.919316	 -1.865041	 -0.771630
C	 0.000000	 0.179985	 0.000046
H	 1.630653	 -2.400772	 -1.368711
C	 0.000002	 -2.552036	 -0.000008
N	 0.000000	 1.644631	 0.000076
C	 -0.925135	 -0.484972	 0.776552
H	 0.000000	 -3.625035	 -0.000032
C	 -0.919315	 -1.865072	 0.771640
O	 1.050559	 2.194174	 -0.000073
O	 -1.050559	 2.194174	 -0.000074
H	 -1.625940	 0.067635	 1.364795
H	 -1.630654	 -2.400828	 1.368696

	symmetry c1
}
set optking {
	frozen_dihedral = ("
		2 4 7 11
	")
}

ee = optimize('scf')
oeprop('DIPOLE', 'QUADRUPOLE', 'MULLIKEN_CHARGES')
f=open( 'psi4out.xyz', 'w' )
f.write( "14  " )
f.write( str(ee) + "\n" )
f.write( MOL.save_string_xyz() )
f.close()
--------------------------------------------------------------------------

    Molecular point group: c1
  Charge       = 0
  Multiplicity = 1
  Basis Set: CC-PVTZ
  Basis Set:
  @DF-RHF Final Energy:  -434.32674883759569
    Total Energy =                       -434.3267488375955736
    Molecular point group: c1
  Basis Set: CC-PVTZ
  Basis Set:
  Basis Set: CC-PVTZ
  Basis Set:
  @DF-RHF Final Energy:  -434.32000181485142
    Total Energy =                       -434.3200018148514800
  Basis Set: CC-PVTZ
  Basis Set:
  Basis Set: CC-PVTZ
  Basis Set:
  @DF-RHF Final Energy:  -434.32690095616215
    Total Energy =                       -434.3269009561616940
  Basis Set: CC-PVTZ
  Basis Set:
  Basis Set: CC-PVTZ
  Basis Set:
  @DF-RHF Final Energy:  -434.32709949547427
    Total Energy =                       -434.3270994954742719
  Basis Set: CC-PVTZ
  Basis Set:
  Charge       = 0
  Multiplicity = 1
  Basis Set: CC-PVTZ
  Basis Set:

    Orbital Energies (a.u.)
    -----------------------

    Doubly Occupied:

       1A    -20.594041     2A    -20.593951     3A    -15.847456
       4A    -11.304222     5A    -11.267934     6A    -11.267701
       7A    -11.262961     8A    -11.259314     9A    -11.259078
      10A     -1.642180    11A     -1.425049    12A     -1.205747
      13A     -1.096637    14A     -1.056129    15A     -0.959548
      16A     -0.870735    17A     -0.829706    18A     -0.787519
      19A     -0.740354    20A     -0.735840    21A     -0.714763
      22A     -0.656711    23A     -0.651518    24A     -0.626346
      25A     -0.558400    26A     -0.545816    27A     -0.532754
      28A     -0.495818    29A     -0.490029    30A     -0.456890
      31A     -0.375201    32A     -0.370113

  @DF-RHF Final Energy:  -434.32709968107366

   => Energetics <=

    Nuclear Repulsion Energy =            418.0687958149139263
    One-Electron Energy =               -1419.8308748449771883
    Two-Electron Energy =                 567.4349793489893727
    DFT Exchange-Correlation Energy =       0.0000000000000000
    Empirical Dispersion Energy =           0.0000000000000000
    PCM Polarization Energy =               0.0000000000000000
    EFP Energy =                            0.0000000000000000
    Total Energy =                       -434.3270996810738325
    Molecular point group: c1
  Basis Set: CC-PVTZ
  Basis Set:

  -Total Gradient:
     Atom            X                  Y                   Z
    ------   -----------------  -----------------  -----------------
       1        0.000002872025    -0.000007262161     0.000010028854
       2       -0.002650605176    -0.000129439559    -0.003066052835
       3       -0.000016355899     0.000033737435    -0.000044515604
       4        0.003837869244     0.000182619362     0.006165781440
       5        0.000003623137    -0.000000184014     0.000003039392
       6        0.000034861672    -0.000001640415     0.000096172412
       7       -0.001288765490    -0.000175825643    -0.007694589814
       8        0.000020369628     0.000031667338    -0.000034784453
       9       -0.000006411654     0.000000619163    -0.000013633101
      10       -0.000020357240    -0.000026898186    -0.000060905392
      11        0.000097537766     0.000093547416     0.004624588548
      12       -0.000023549865    -0.000008654990    -0.000006301899
      13        0.000005760238    -0.000000587246     0.000013882178
      14        0.000003151613     0.000008301490     0.000007290274

  **** Optimization is complete! (in 5 steps) ****
    Final optimized geometry and variables:
    Molecular point group: c1

    Geometry (in Angstrom), charge = 0, multiplicity = 1:

    H            1.643965744055     0.073171496897    -1.345462944892
    C            0.934771309032    -0.481005474304    -0.766158414622
    C            0.916578649736    -1.861444397999    -0.774995964115
    C            0.016582517434     0.179883131971     0.017940755683
    H            1.617275860711    -2.398158889756    -1.383718731002
    C           -0.001064131931    -2.547121847520    -0.000464879977
    N           -0.001538335778     1.641122631634    -0.009315811422
    C           -0.927310503677    -0.478889761481     0.772913534527
    H           -0.005642648667    -3.619947244003    -0.004415336214
    C           -0.917222314307    -1.859301461112     0.774369838935
    O            1.045261008043     2.197339785318    -0.041469894768
    O           -1.059630720336     2.174181884860     0.033152704814
    H           -1.643060549752     0.076141324946     1.342884094630
    H           -1.629051753336    -2.394863119901     1.371090756293

  Mulliken Charges: (a.u.)
   Center  Symbol    Alpha    Beta     Spin     Total
       1     H     0.40545  0.40545  0.00000  0.18910
       2     C     3.08462  3.08462  0.00000 -0.16924
       3     C     3.07039  3.07039  0.00000 -0.14079
       4     C     2.94738  2.94738  0.00000  0.10524
       5     H     0.41710  0.41710  0.00000  0.16579
       6     C     3.06804  3.06804  0.00000 -0.13608
       7     N     3.27077  3.27077  0.00000  0.45846
       8     C     3.08349  3.08349  0.00000 -0.16697
       9     H     0.41736  0.41736  0.00000  0.16527
      10     C     3.06972  3.06972  0.00000 -0.13943
      11     O     4.17146  4.17146  0.00000 -0.34292
      12     O     4.17142  4.17142  0.00000 -0.34284
      13     H     0.40570  0.40570  0.00000  0.18861
      14     H     0.41710  0.41710  0.00000  0.16581

   Total alpha = 32.00000, Total beta = 32.00000, Total charge =  0.00000
