  ==> Input File <==

--------------------------------------------------------------------------
set {
	reference rhf
	basis 6-31G*
}

set_num_threads( 4 )
memory 2 gb

molecule MOL {
0 1

H	 -3.407059	 -1.043082	 0.000000
O	 -3.119761	 -0.140267	 0.000000
C	 -1.777559	 -0.059267	 0.000000
C	 -1.025127	 -0.218755	 -1.159918
C	 -1.153193	 0.193064	 1.215139
H	 -1.516909	 -0.414079	 -2.097633
C	 0.349453	 -0.125206	 -1.099935
H	 -1.755275	 0.312295	 2.095793
C	 0.222406	 0.283828	 1.259002
H	 0.942407	 -0.246120	 -1.987001
C	 0.989696	 0.127004	 0.109090
H	 0.706746	 0.479355	 2.200409
C	 2.461139	 0.226838	 0.171556
O	 3.190404	 0.105680	 -0.763457
H	 2.868513	 0.427448	 1.168034

	symmetry c1
}
set optking {
	frozen_dihedral = ("
		5 3 2 1
	")
}

ee = optimize('scf')
oeprop('DIPOLE', 'QUADRUPOLE', 'MULLIKEN_CHARGES')
f=open( 'psi4out.xyz', 'w' )
f.write( "15  " )
f.write( str(ee) + "\n" )
f.write( MOL.save_string_xyz() )
f.close()
--------------------------------------------------------------------------

    Molecular point group: c1
  Charge       = 0
  Multiplicity = 1
  Basis Set: 6-31G*
  Basis Set:
  @DF-RHF Final Energy:  -418.28345618019665
    Total Energy =                       -418.2834561801967084
    Molecular point group: c1
  Basis Set: 6-31G*
  Basis Set:
  Basis Set: 6-31G*
  Basis Set:
  @DF-RHF Final Energy:  -418.28423125634447
    Total Energy =                       -418.2842312563445830
  Basis Set: 6-31G*
  Basis Set:
  Basis Set: 6-31G*
  Basis Set:
  @DF-RHF Final Energy:  -418.28411721344929
    Total Energy =                       -418.2841172134492354
  Basis Set: 6-31G*
  Basis Set:
  Basis Set: 6-31G*
  Basis Set:
  @DF-RHF Final Energy:  -418.28418434355410
    Total Energy =                       -418.2841843435538749
  Basis Set: 6-31G*
  Basis Set:
  Basis Set: 6-31G*
  Basis Set:
  @DF-RHF Final Energy:  -418.28430581016585
    Total Energy =                       -418.2843058101664155
  Basis Set: 6-31G*
  Basis Set:
  Charge       = 0
  Multiplicity = 1
  Basis Set: 6-31G*
  Basis Set:

    Orbital Energies (a.u.)
    -----------------------

    Doubly Occupied:

       1A    -20.593240     2A    -20.561049     3A    -11.331574
       4A    -11.312852     5A    -11.260132     6A    -11.253561
       7A    -11.245143     8A    -11.242965     9A    -11.242412
      10A     -1.410451    11A     -1.402041    12A     -1.170674
      13A     -1.041280    14A     -1.036856    15A     -0.887230
      16A     -0.857882    17A     -0.796408    18A     -0.750115
      19A     -0.707175    20A     -0.670256    21A     -0.646999
      22A     -0.631389    23A     -0.617059    24A     -0.607019
      25A     -0.559707    26A     -0.552698    27A     -0.536247
      28A     -0.495978    29A     -0.482239    30A     -0.422193
      31A     -0.355065    32A     -0.341121

  @DF-RHF Final Energy:  -418.28430660899568

   => Energetics <=

    Nuclear Repulsion Energy =            400.7643208234568988
    One-Electron Energy =               -1364.0552282537184965
    Two-Electron Energy =                 545.0066008212661472
    DFT Exchange-Correlation Energy =       0.0000000000000000
    Empirical Dispersion Energy =           0.0000000000000000
    PCM Polarization Energy =               0.0000000000000000
    EFP Energy =                            0.0000000000000000
    Total Energy =                       -418.2843066089953936
    Molecular point group: c1
  Basis Set: 6-31G*
  Basis Set:

  -Total Gradient:
     Atom            X                  Y                   Z
    ------   -----------------  -----------------  -----------------
       1       -0.000068371302    -0.000000211146     0.001048580091
       2        0.000012166685    -0.000437431115    -0.001226205910
       3        0.000022158898     0.001213851741    -0.000187348726
       4       -0.000184053050    -0.000044439450     0.000096394799
       5        0.000178286126    -0.000715859069     0.000238827942
       6        0.000005411576     0.000006005441    -0.000002699610
       7        0.000155693199     0.000032068446     0.000112216867
       8       -0.000000805680     0.000004763627    -0.000017080938
       9       -0.000116975093    -0.000092346207     0.000101478794
      10       -0.000014019296    -0.000001720096    -0.000005876213
      11       -0.000003959101     0.000001788306    -0.000169915483
      12        0.000019973968     0.000017547674    -0.000007283649
      13        0.000014694115     0.000040495044     0.000020631075
      14       -0.000012929463    -0.000015684407    -0.000003398671
      15       -0.000007271572    -0.000008828788     0.000001679634

  **** Optimization is complete! (in 6 steps) ****
    Final optimized geometry and variables:
    Molecular point group: c1

    Geometry (in Angstrom), charge = 0, multiplicity = 1:

    H           -3.421247880937    -1.070705042642     0.005452098343
    O           -3.132200398294    -0.167392755739     0.005456125062
    C           -1.769139276801    -0.101279598941     0.054363390617
    C           -1.024717894994    -0.257235181149    -1.108978180597
    C           -1.145032225797     0.154679267156     1.263237631974
    H           -1.534962741771    -0.440604763624    -2.036711628075
    C            0.350094374682    -0.161653404360    -1.057315916662
    H           -1.743216418140     0.280791171408     2.146186081490
    C            0.234945868195     0.253954791252     1.305831157978
    H            0.942362385890    -0.278594725915    -1.945273655937
    C            0.990627682820     0.094492000710     0.152677370095
    H            0.724185369655     0.455366724611     2.243349031393
    C            2.465936162261     0.199769099271     0.211983289352
    O            3.191087192696     0.070816960673    -0.723955045226
    H            2.875296903548     0.410775812605     1.205080495141

  Mulliken Charges: (a.u.)
   Center  Symbol    Alpha    Beta     Spin     Total
       1     H     0.26821  0.26821  0.00000  0.46358
       2     O     4.38545  4.38545  0.00000 -0.77091
       3     C     2.80940  2.80940  0.00000  0.38119
       4     C     3.12332  3.12332  0.00000 -0.24664
       5     C     3.12171  3.12171  0.00000 -0.24343
       6     H     0.38921  0.38921  0.00000  0.22158
       7     C     3.08482  3.08482  0.00000 -0.16964
       8     H     0.38838  0.38838  0.00000  0.22323
       9     C     3.09898  3.09898  0.00000 -0.19796
      10     H     0.37498  0.37498  0.00000  0.25004
      11     C     3.06031  3.06031  0.00000 -0.12061
      12     H     0.38998  0.38998  0.00000  0.22003
      13     C     2.83090  2.83090  0.00000  0.33820
      14     O     4.25091  4.25091  0.00000 -0.50182
      15     H     0.42343  0.42343  0.00000  0.15315

   Total alpha = 32.00000, Total beta = 32.00000, Total charge =  0.00000
