                              Psi4 1.0.54 Driver

  ==> Input File <==

--------------------------------------------------------------------------
set {
	reference rhf
	basis cc-pvtz
}

set_num_threads( 4 )
memory 2 gb

molecule MOL {
0 1

H	 3.721907	 -0.933076	 -0.066039
O	 2.824271	 -1.154299	 0.131461
C	 2.076458	 -0.067370	 -0.038225
C	 0.626018	 -0.337582	 0.258241
O	 2.538288	 0.965419	 -0.381593
C	 -0.267326	 0.883135	 0.076490
H	 0.325620	 -1.161483	 -0.378003
H	 0.574537	 -0.713685	 1.275261
C	 -1.726822	 0.642622	 0.463839
H	 -0.210803	 1.217591	 -0.953497
H	 0.129920	 1.693110	 0.675679
C	 -2.521562	 -0.224570	 -0.511049
H	 -2.216682	 1.608403	 0.544821
H	 -1.770162	 0.199428	 1.456385
C	 -3.993510	 -0.342527	 -0.129037
H	 -2.441466	 0.196795	 -1.509583
H	 -2.091615	 -1.219723	 -0.563686
H	 -4.534442	 -0.960050	 -0.836667
H	 -4.470921	 0.631265	 -0.106545
H	 -4.107932	 -0.788110	 0.853571

	symmetry c1
}
set optking {
	frozen_dihedral = ("
		12 9 6 10
	")
}

ee,wfn = optimize('scf', return_wfn=True)
oeprop( wfn, 'DIPOLE', 'QUADRUPOLE', 'MULLIKEN_CHARGES')
f=open( 'psi4out.xyz', 'w' )
f.write( "20  " )
f.write( str(ee) + "\n" )
f.write( MOL.save_string_xyz() )
f.close()
--------------------------------------------------------------------------

    Molecular point group: c1
  Charge       = 0
  Multiplicity = 1
  Basis Set: CC-PVTZ
  Basis Set:
  @DF-RHF Final Energy:  -384.09487357948984
    Total Energy =                       -384.0948735794901268
    Molecular point group: c1
  Basis Set: CC-PVTZ
  Basis Set:
  Basis Set: CC-PVTZ
  Basis Set:
  @DF-RHF Final Energy:  -384.09489039873245
    Total Energy =                       -384.0948903987322183
  Basis Set: CC-PVTZ
  Basis Set:
  Basis Set: CC-PVTZ
  Basis Set:
  @DF-RHF Final Energy:  -384.09492165383267
    Total Energy =                       -384.0949216538323299
  Basis Set: CC-PVTZ
  Basis Set:
  Basis Set: CC-PVTZ
  Basis Set:
  @DF-RHF Final Energy:  -384.09489526353741
    Total Energy =                       -384.0948952635371256
  Basis Set: CC-PVTZ
  Basis Set:
  Charge       = 0
  Multiplicity = 1
  Basis Set: CC-PVTZ
  Basis Set:

    Orbital Energies (a.u.)
    -----------------------

    Doubly Occupied:

       1A    -20.603822     2A    -20.540466     3A    -11.373381
       4A    -11.238638     5A    -11.221048     6A    -11.218730
       7A    -11.218115     8A    -11.210463     9A     -1.477371
      10A     -1.368911    11A     -1.097477    12A     -1.042402
      13A     -0.962273    14A     -0.870300    15A     -0.816633
      16A     -0.779602    17A     -0.703625    18A     -0.692970
      19A     -0.666319    20A     -0.636792    21A     -0.606276
      22A     -0.596185    23A     -0.576354    24A     -0.556874
      25A     -0.541597    26A     -0.512471    27A     -0.496301
      28A     -0.484509    29A     -0.472166    30A     -0.468605
      31A     -0.458068    32A     -0.446274

  @DF-RHF Final Energy:  -384.09492389816108

   => Energetics <=

    Nuclear Repulsion Energy =            376.3745562847074666
    One-Electron Energy =               -1269.0289206441634633
    Two-Electron Energy =                 508.5594404612945709
    DFT Exchange-Correlation Energy =       0.0000000000000000
    Empirical Dispersion Energy =           0.0000000000000000
    PCM Polarization Energy =               0.0000000000000000
    EFP Energy =                            0.0000000000000000
    Total Energy =                       -384.0949238981613689
    Molecular point group: c1
  Basis Set: CC-PVTZ
  Basis Set:

  -Total Gradient:
     Atom            X                  Y                   Z
    ------   -----------------  -----------------  -----------------
       1        0.000021716946    -0.000003497439    -0.000001387331
       2        0.000028921394    -0.000057463924    -0.000004641789
       3       -0.000040441198     0.000070902544     0.000020961285
       4       -0.000042911870     0.000046749388    -0.000022161799
       5        0.000013643215    -0.000005456099    -0.000009871819
       6       -0.000164757078     0.001369942315     0.000224623544
       7        0.000000194852    -0.000008317268     0.000002977375
       8        0.000013562904    -0.000002311712     0.000002679668
       9        0.000263209057    -0.001048857433     0.000466091270
      10        0.000084799535    -0.000932632104    -0.000306795811
      11       -0.000003174364    -0.000004354475    -0.000000611931
      12       -0.000206547137     0.000573412898    -0.000375004644
      13        0.000016822438    -0.000005974226     0.000003078307
      14       -0.000013151643    -0.000004724549     0.000005713191
      15        0.000020129807     0.000027452878    -0.000012870213
      16       -0.000026604762    -0.000039504250     0.000036542648
      17       -0.000021859421     0.000040426713    -0.000002362821
      18        0.000004336298     0.000005402422    -0.000000927406
      19        0.000034708118    -0.000037212669     0.000003179034
      20        0.000017402911     0.000016016994    -0.000029210761

  **** Optimization is complete! (in 5 steps) ****
    Final optimized geometry and variables:
    Molecular point group: c1

    Geometry (in Angstrom), charge = 0, multiplicity = 1:

    H            3.707734766580    -1.011417553876    -0.014273570368
    O            2.807957714125    -1.209726663193     0.197446529318
    C            2.077317702074    -0.116872803873    -0.006558444157
    C            0.624829192067    -0.350991231435     0.309835253475
    O            2.553637918500     0.894745120333    -0.390921618913
    C           -0.249895415079     0.877887595771     0.092671873656
    H            0.304182511787    -1.191118113924    -0.294964781918
    H            0.574953882950    -0.690769519648     1.339496714120
    C           -1.717832121483     0.654095196122     0.460201231571
    H           -0.173759779654     1.186279516182    -0.943999789147
    H            0.148917574551     1.693908246022     0.682207553184
    C           -2.494245422787    -0.234024888344    -0.510746411685
    H           -2.207470710461     1.622436716331     0.502979121102
    H           -1.784190755567     0.239732650249     1.463733742428
    C           -3.965500040066    -0.374863572146    -0.134353641587
    H           -2.416758823865     0.182572181070    -1.511111535420
    H           -2.046483561921    -1.221902199402    -0.556181869015
    H           -4.493235335811    -1.003754099723    -0.841923678179
    H           -4.458819774431     0.591067383678    -0.117755958770
    H           -4.077006404216    -0.818398692527     0.849449583385

  Mulliken Charges: (a.u.)
   Center  Symbol    Alpha    Beta     Spin     Total
       1     H     0.38239  0.38239  0.00000  0.23522
       2     O     4.16036  4.16036  0.00000 -0.32071
       3     C     2.80330  2.80330  0.00000  0.39341
       4     C     3.11083  3.11083  0.00000 -0.22165
       5     O     4.19140  4.19140  0.00000 -0.38281
       6     C     3.09267  3.09267  0.00000 -0.18533
       7     H     0.43778  0.43778  0.00000  0.12444
       8     H     0.43799  0.43799  0.00000  0.12401
       9     C     3.09960  3.09960  0.00000 -0.19919
      10     H     0.44592  0.44592  0.00000  0.10817
      11     H     0.43932  0.43932  0.00000  0.12135
      12     C     3.08521  3.08521  0.00000 -0.17043
      13     H     0.44523  0.44523  0.00000  0.10955
      14     H     0.45463  0.45463  0.00000  0.09074
      15     C     3.14966  3.14966  0.00000 -0.29933
      16     H     0.45244  0.45244  0.00000  0.09511
      17     H     0.45506  0.45506  0.00000  0.08989
      18     H     0.44769  0.44769  0.00000  0.10462
      19     H     0.45372  0.45372  0.00000  0.09257
      20     H     0.45481  0.45481  0.00000  0.09037

   Total alpha = 32.00000, Total beta = 32.00000, Total charge = -0.00000

*** Psi4 exiting successfully. Buy a developer a beer!
