  ==> Input File <==

--------------------------------------------------------------------------
set {
	reference rhf
	basis 6-31G*
}

set_num_threads( 4 )
memory 2 gb

molecule MOL {
0 1

H	 -2.197399	 0.427171	 0.828472
N	 -1.852125	 0.165761	 -0.074816
C	 -0.563778	 -0.502042	 0.037919
H	 -1.764522	 1.010633	 -0.607049
C	 0.575259	 0.508231	 -0.048326
H	 -0.482092	 -1.204004	 -0.786564
H	 -0.460411	 -1.085169	 0.956626
C	 1.954651	 -0.143624	 0.035137
H	 0.475158	 1.060484	 -0.977307
H	 0.469181	 1.234488	 0.755973
H	 2.103292	 -0.853109	 -0.774172
H	 2.742821	 0.599562	 -0.030094
H	 2.083613	 -0.679371	 0.971560

	symmetry c1
}
set optking {
	frozen_dihedral = ("
		1 2 3 6
	")
}

ee = optimize('scf')
oeprop('DIPOLE', 'QUADRUPOLE', 'MULLIKEN_CHARGES')
f=open( 'psi4out.xyz', 'w' )
f.write( "13  " )
f.write( str(ee) + "\n" )
f.write( MOL.save_string_xyz() )
f.close()
--------------------------------------------------------------------------

    Molecular point group: c1
  Charge       = 0
  Multiplicity = 1
  Basis Set: 6-31G*
  Basis Set:
  @DF-RHF Final Energy:  -173.27832553208913
    Total Energy =                       -173.2783255320891840
    Molecular point group: c1
  Basis Set: 6-31G*
  Basis Set:
  Basis Set: 6-31G*
  Basis Set:
  @DF-RHF Final Energy:  -173.28041096208119
    Total Energy =                       -173.2804109620811630
  Basis Set: 6-31G*
  Basis Set:
  Basis Set: 6-31G*
  Basis Set:
  @DF-RHF Final Energy:  -173.28068342361703
    Total Energy =                       -173.2806834236170062
  Basis Set: 6-31G*
  Basis Set:
  Basis Set: 6-31G*
  Basis Set:
  @DF-RHF Final Energy:  -173.28069617163638
    Total Energy =                       -173.2806961716363503
  Basis Set: 6-31G*
  Basis Set:
  Basis Set: 6-31G*
  Basis Set:
  @DF-RHF Final Energy:  -173.28069990261019
    Total Energy =                       -173.2806999026101380
  Basis Set: 6-31G*
  Basis Set:
  Charge       = 0
  Multiplicity = 1
  Basis Set: 6-31G*
  Basis Set:

    Orbital Energies (a.u.)
    -----------------------

    Doubly Occupied:

       1A    -15.530576     2A    -11.239817     3A    -11.216701
       4A    -11.212199     5A     -1.175025     6A     -1.037169
       7A     -0.899496     8A     -0.807507     9A     -0.674648
      10A     -0.611044    11A     -0.606514    12A     -0.561013
      13A     -0.530531    14A     -0.508657    15A     -0.486829
      16A     -0.470400    17A     -0.373668

  @DF-RHF Final Energy:  -173.28070049950432

   => Energetics <=

    Nuclear Repulsion Energy =            131.5696189600990067
    One-Electron Energy =                -493.8170498879387083
    Two-Electron Energy =                 188.9667304283354099
    DFT Exchange-Correlation Energy =       0.0000000000000000
    Empirical Dispersion Energy =           0.0000000000000000
    PCM Polarization Energy =               0.0000000000000000
    EFP Energy =                            0.0000000000000000
    Total Energy =                       -173.2807004995042632
    Molecular point group: c1
  Basis Set: 6-31G*
  Basis Set:

  -Total Gradient:
     Atom            X                  Y                   Z
    ------   -----------------  -----------------  -----------------
       1       -0.001419401848    -0.003134760966     0.000476013150
       2        0.001506394235     0.003391031504    -0.000157645409
       3        0.001044433732     0.001983166241    -0.002265053087
       4        0.000012839911    -0.000012892384     0.000008724719
       5       -0.000052040712    -0.000012445098     0.000008705308
       6       -0.001125596091    -0.002218846907     0.001928663499
       7       -0.000004282432    -0.000013155436     0.000006262498
       8        0.000018149823     0.000011369633    -0.000007514424
       9        0.000013019247    -0.000003034056     0.000008593805
      10        0.000008971693     0.000012524742    -0.000002729150
      11       -0.000000012815    -0.000000420290    -0.000006635251
      12        0.000005614223    -0.000007507704     0.000001882048
      13       -0.000008088968     0.000004970721     0.000000732294

  **** Optimization is complete! (in 6 steps) ****
    Final optimized geometry and variables:
    Molecular point group: c1

    Geometry (in Angstrom), charge = 0, multiplicity = 1:

    H           -2.221883607211     0.400159738996     0.854392995179
    N           -1.898393664204     0.112332558628    -0.046637332257
    C           -0.571964117301    -0.481474927017     0.024512784694
    H           -1.924237727966     0.903641206365    -0.658838376094
    C            0.593696075493     0.506394817808    -0.035262574345
    H           -0.477061360058    -1.219523016790    -0.767868458917
    H           -0.516735860644    -1.046395283473     0.950965893234
    C            1.957893382747    -0.178861596349     0.034864263349
    H            0.524659485186     1.081667780507    -0.957212599426
    H            0.497176652992     1.220131653286     0.780519571990
    H            2.087639381696    -0.878647583968    -0.785775986491
    H            2.765026970327     0.544673750250    -0.017444395533
    H            2.071302790857    -0.733538645939     0.962129878903

  Mulliken Charges: (a.u.)
   Center  Symbol    Alpha    Beta     Spin     Total
       1     H     0.33235  0.33235  0.00000  0.33530
       2     N     3.92557  3.92557  0.00000 -0.85115
       3     C     3.05468  3.05468  0.00000 -0.10936
       4     H     0.33330  0.33330  0.00000  0.33340
       5     C     3.15945  3.15945  0.00000 -0.31890
       6     H     0.41950  0.41950  0.00000  0.16099
       7     H     0.42292  0.42292  0.00000  0.15417
       8     C     3.24370  3.24370  0.00000 -0.48740
       9     H     0.42526  0.42526  0.00000  0.14948
      10     H     0.42487  0.42487  0.00000  0.15026
      11     H     0.41974  0.41974  0.00000  0.16052
      12     H     0.41767  0.41767  0.00000  0.16466
      13     H     0.42099  0.42099  0.00000  0.15802

   Total alpha = 17.00000, Total beta = 17.00000, Total charge =  0.00000
