                              Psi4 1.0.54 Driver

  ==> Input File <==

--------------------------------------------------------------------------
set {
	reference rhf
	basis cc-pvtz
}

set_num_threads( 4 )
memory 2 gb

molecule MOL {
0 1

H	 -3.941973	 0.934228	 -0.390224
C	 -3.240162	 0.342701	 0.161016
C	 -2.105997	 -0.000418	 -0.398703
H	 -3.485368	 0.047206	 1.162193
O	 -1.189946	 -0.765863	 0.237511
H	 -1.846458	 0.297311	 -1.398265
C	 0.026572	 -0.995256	 -0.379403
C	 1.057223	 0.049888	 -0.004615
H	 -0.054361	 -1.010670	 -1.459674
H	 0.397526	 -1.952058	 -0.044198
F	 0.558313	 0.846775	 0.919041
F	 2.151442	 -0.492910	 0.484835
F	 1.404265	 0.789678	 -1.029666

	symmetry c1
}
set optking {
	frozen_dihedral = ("
		11 8 7 9
	")
}

ee,wfn = optimize('scf', return_wfn=True)
oeprop( wfn, 'DIPOLE', 'QUADRUPOLE', 'MULLIKEN_CHARGES')
f=open( 'psi4out.xyz', 'w' )
f.write( "13  " )
f.write( str(ee) + "\n" )
f.write( MOL.save_string_xyz() )
f.close()
--------------------------------------------------------------------------

    Molecular point group: c1
  Charge       = 0
  Multiplicity = 1
  Basis Set: CC-PVTZ
  Basis Set:
  @DF-RHF Final Energy:  -527.73416684066274
    Total Energy =                       -527.7341668406627377
    Molecular point group: c1
  Basis Set: CC-PVTZ
  Basis Set:
  Basis Set: CC-PVTZ
  Basis Set:
  @DF-RHF Final Energy:  -527.60178680710283
    Total Energy =                       -527.6017868071028261
  Basis Set: CC-PVTZ
  Basis Set:
  Basis Set: CC-PVTZ
  Basis Set:
  @DF-RHF Final Energy:  -527.70479351525478
    Total Energy =                       -527.7047935152545506
  Basis Set: CC-PVTZ
  Basis Set:
  Basis Set: CC-PVTZ
  Basis Set:
  @DF-RHF Final Energy:  -527.73418284341665
    Total Energy =                       -527.7341828434161926
  Basis Set: CC-PVTZ
  Basis Set:
  @DF-RHF Final Energy:  -527.73531504947664
    Total Energy =                       -527.7353150494762986
  @DF-RHF Final Energy:  -527.73566520972281
    Total Energy =                       -527.7356652097228107
  @DF-RHF Final Energy:  -527.73573421383207
    Total Energy =                       -527.7357342138318472
  Basis Set: CC-PVTZ
  Basis Set:
  @DF-RHF Final Energy:  -527.73576425402314
    Total Energy =                       -527.7357642540231382
  Basis Set: CC-PVTZ
  Basis Set:
  Basis Set: CC-PVTZ
  Basis Set:
  @DF-RHF Final Energy:  -527.73577176205276
    Total Energy =                       -527.7357717620528774
  Basis Set: CC-PVTZ
  Basis Set:
  Basis Set: CC-PVTZ
  Basis Set:
  @DF-RHF Final Energy:  -527.73577291065612
    Total Energy =                       -527.7357729106558963
  Basis Set: CC-PVTZ
  Basis Set:
  Charge       = 0
  Multiplicity = 1
  Basis Set: CC-PVTZ
  Basis Set:

    Orbital Energies (a.u.)
    -----------------------

    Doubly Occupied:

       1A    -26.339980     2A    -26.339534     3A    -26.338378
       4A    -20.602741     5A    -11.499447     6A    -11.319774
       7A    -11.298129     8A    -11.214808     9A     -1.750452
      10A     -1.646934    11A     -1.643700    12A     -1.443680
      13A     -1.083701    14A     -1.019200    15A     -0.932287
      16A     -0.843082    17A     -0.838086    18A     -0.827508
      19A     -0.797478    20A     -0.729015    21A     -0.722797
      22A     -0.701193    23A     -0.680315    24A     -0.668713
      25A     -0.661871    26A     -0.649648    27A     -0.634981
      28A     -0.587298    29A     -0.565433    30A     -0.527903
      31A     -0.516344    32A     -0.357398

  @DF-RHF Final Energy:  -527.73577334190372

   => Energetics <=

    Nuclear Repulsion Energy =            413.4834407262812874
    One-Electron Energy =               -1550.8748199473552631
    Two-Electron Energy =                 609.6556058791702526
    DFT Exchange-Correlation Energy =       0.0000000000000000
    Empirical Dispersion Energy =           0.0000000000000000
    PCM Polarization Energy =               0.0000000000000000
    EFP Energy =                            0.0000000000000000
    Total Energy =                       -527.7357733419037231
    Molecular point group: c1
  Basis Set: CC-PVTZ
  Basis Set:

  -Total Gradient:
     Atom            X                  Y                   Z
    ------   -----------------  -----------------  -----------------
       1        0.000008014241    -0.000011981408    -0.000000143227
       2       -0.000006039793    -0.000007325041     0.000014795300
       3       -0.000016216752     0.000030063969     0.000005486381
       4        0.000007480631     0.000019933372    -0.000016750134
       5       -0.000030202360    -0.000010730192    -0.000012989459
       6       -0.000004282931    -0.000024964466     0.000008564536
       7        0.001994350954    -0.000897099653    -0.000749993018
       8        0.000555744301    -0.001691674925     0.001355857846
       9       -0.001816951702     0.001132990977     0.000380792159
      10        0.000004811846     0.000010150134     0.000008301277
      11       -0.000679352868     0.001412128662    -0.001005457090
      12       -0.000000514960    -0.000019467177     0.000027112703
      13       -0.000016840602     0.000057975751    -0.000015577277

  **** Optimization is complete! (in 11 steps) ****
    Final optimized geometry and variables:
    Molecular point group: c1

    Geometry (in Angstrom), charge = 0, multiplicity = 1:

    H           -3.923276435376     0.635395107588    -0.516881719840
    C           -3.222774742643    -0.106301112698    -0.192050113176
    C           -1.993959193810    -0.076634038828    -0.646259670833
    H           -3.547809812637    -0.857569457168     0.500581538946
    O           -1.069713715443    -0.999395047846    -0.295532675024
    H           -1.657112591309     0.677161770447    -1.335833740265
    C            0.233941763401    -0.804720644600    -0.714828172800
    C            1.020383652473     0.173289842957     0.174615547986
    H            0.266051333323    -0.424571350664    -1.727888408359
    H            0.729178907944    -1.760685513345    -0.674872973323
    F            0.353778028962     0.531714740783     1.240735638120
    F            2.158811920256    -0.360845921171     0.564974393937
    F            1.322231865647     1.276696980119    -0.486990453691

  Mulliken Charges: (a.u.)
   Center  Symbol    Alpha    Beta     Spin     Total
       1     H     0.42533  0.42533  0.00000  0.14933
       2     C     3.19496  3.19496  0.00000 -0.38991
       3     C     2.96055  2.96055  0.00000  0.07891
       4     H     0.42480  0.42480  0.00000  0.15041
       5     O     4.13915  4.13915  0.00000 -0.27831
       6     H     0.43399  0.43399  0.00000  0.13202
       7     C     3.03257  3.03257  0.00000 -0.06514
       8     C     2.67340  2.67340  0.00000  0.65320
       9     H     0.45497  0.45497  0.00000  0.09005
      10     H     0.43388  0.43388  0.00000  0.13224
      11     F     4.60209  4.60209  0.00000 -0.20417
      12     F     4.61004  4.61004  0.00000 -0.22008
      13     F     4.61427  4.61427  0.00000 -0.22855

   Total alpha = 32.00000, Total beta = 32.00000, Total charge = -0.00000

*** Psi4 exiting successfully. Buy a developer a beer!
