  ==> Input File <==

--------------------------------------------------------------------------
set {
	reference rhf
	basis 6-31G*
}

set_num_threads( 1 )
memory 2 gb

molecule MOL {
0 1

O	 -2.042549	 -1.228399	 -0.269030
C	 -1.653912	 -0.146171	 0.050137
C	 -0.332303	 0.024011	 0.778412
C	 -2.438579	 1.106236	 -0.272369
C	 0.845713	 -0.001731	 -0.208243
H	 -0.323783	 0.953829	 1.340327
H	 -0.235459	 -0.796807	 1.480410
C	 0.424914	 0.345751	 -1.636954
H	 1.310435	 -0.986140	 -0.200890
H	 1.599558	 0.700768	 0.134328
C	 1.595962	 0.329672	 -2.618582
H	 -0.336662	 -0.355853	 -1.970391
H	 -0.039731	 1.328922	 -1.643881
H	 2.060824	 -0.651291	 -2.659419
H	 2.359605	 1.045452	 -2.328840
H	 1.268840	 0.582442	 -3.622138
H	 -3.277823	 0.863061	 -0.908988
H	 -1.806773	 1.843019	 -0.759671
H	 -2.802853	 1.554979	 0.648059

	symmetry c1
}
set optking {
	frozen_dihedral = ("
		11 8 5 9,
		5 3 2 4
	")
}

ee = energy('scf')
oeprop('DIPOLE', 'QUADRUPOLE', 'MULLIKEN_CHARGES')
f=open( 'psi4out.xyz', 'w' )
f.write( "19  " )
f.write( str(ee) + "\n" )
f.write( MOL.save_string_xyz() )
f.close()
--------------------------------------------------------------------------

    Molecular point group: c1

    Geometry (in Angstrom), charge = 0, multiplicity = 1:

       Center              X                  Y                   Z               Mass
    ------------   -----------------  -----------------  -----------------  -----------------
           O         -1.527062526578    -1.292092977218     0.348096769104    15.994914619560
           C         -1.138425526578    -0.209864977218     0.667263769104    12.000000000000
           C          0.183183473422    -0.039682977218     1.395538769104    12.000000000000
           C         -1.923092526578     1.042542022782     0.344757769104    12.000000000000
           C          1.361199473422    -0.065424977218     0.408883769104    12.000000000000
           H          0.191703473422     0.890135022782     1.957453769104     1.007825032070
           H          0.280027473422    -0.860500977218     2.097536769104     1.007825032070
           C          0.940400473422     0.282057022782    -1.019827230896    12.000000000000
           H          1.825921473422    -1.049833977218     0.416236769104     1.007825032070
           H          2.115044473422     0.637074022782     0.751454769104     1.007825032070
           C          2.111448473422     0.265978022782    -2.001455230896    12.000000000000
           H          0.178824473422    -0.419546977218    -1.353264230896     1.007825032070
           H          0.475755473422     1.265228022782    -1.026754230896     1.007825032070
           H          2.576310473422    -0.714984977218    -2.042292230896     1.007825032070
           H          2.875091473422     0.981758022782    -1.711713230896     1.007825032070
           H          1.784326473422     0.518748022782    -3.005011230896     1.007825032070
           H         -2.762336526578     0.799367022782    -0.291861230896     1.007825032070
           H         -1.291286526578     1.779325022782    -0.142544230896     1.007825032070
           H         -2.287366526578     1.491285022782     1.265185769104     1.007825032070

  Charge       = 0
  Multiplicity = 1
  Basis Set: 6-31G*
  Basis Set:

    Orbital Energies (a.u.)
    -----------------------

    Doubly Occupied:

       1A    -20.546173     2A    -11.324707     3A    -11.229241
       4A    -11.228096     5A    -11.227080     6A    -11.221698
       7A    -11.213404     8A     -1.393582     9A     -1.093861
      10A     -1.024069    11A     -0.985598    12A     -0.888927
      13A     -0.814427    14A     -0.725158    15A     -0.662938
      16A     -0.638336    17A     -0.625724    18A     -0.620358
      19A     -0.575950    20A     -0.573947    21A     -0.565038
      22A     -0.537343    23A     -0.513333    24A     -0.495202
      25A     -0.485536    26A     -0.465716    27A     -0.461183
      28A     -0.396942

  @DF-RHF Final Energy:  -309.05367529453957

   => Energetics <=

    Nuclear Repulsion Energy =            314.0094249996533904
    One-Electron Energy =               -1041.0590367982526914
    Two-Electron Energy =                 417.9959365040585340
    DFT Exchange-Correlation Energy =       0.0000000000000000
    Empirical Dispersion Energy =           0.0000000000000000
    PCM Polarization Energy =               0.0000000000000000
    EFP Energy =                            0.0000000000000000
    Total Energy =                       -309.0536752945407102

  Mulliken Charges: (a.u.)
   Center  Symbol    Alpha    Beta     Spin     Total
       1     O     4.26261  4.26261  0.00000 -0.52523
       2     C     2.74439  2.74439  0.00000  0.51123
       3     C     3.20077  3.20077  0.00000 -0.40154
       4     C     3.28779  3.28779  0.00000 -0.57557
       5     C     3.15034  3.15034  0.00000 -0.30067
       6     H     0.41547  0.41547  0.00000  0.16906
       7     H     0.39866  0.39866  0.00000  0.20269
       8     C     3.17656  3.17656  0.00000 -0.35312
       9     H     0.41107  0.41107  0.00000  0.17786
      10     H     0.41695  0.41695  0.00000  0.16610
      11     C     3.23751  3.23751  0.00000 -0.47502
      12     H     0.40323  0.40323  0.00000  0.19353
      13     H     0.42353  0.42353  0.00000  0.15294
      14     H     0.41879  0.41879  0.00000  0.16242
      15     H     0.42216  0.42216  0.00000  0.15569
      16     H     0.41746  0.41746  0.00000  0.16507
      17     H     0.39762  0.39762  0.00000  0.20476
      18     H     0.40777  0.40777  0.00000  0.18447
      19     H     0.40733  0.40733  0.00000  0.18534

   Total alpha = 28.00000, Total beta = 28.00000, Total charge =  0.00000
