  ==> Input File <==

--------------------------------------------------------------------------
set {
	reference rhf
	basis cc-pvtz
}

set_num_threads( 4 )
memory 2 gb

molecule MOL {
0 1

H	 -3.144994	 -1.202467	 -0.018751
O	 -2.321472	 -0.864941	 -0.318626
C	 -2.021813	 0.336996	 0.342658
C	 -0.669613	 0.837286	 -0.127252
H	 -2.780861	 1.084746	 0.127159
H	 -2.006390	 0.184138	 1.420053
C	 0.490865	 -0.082543	 0.241244
H	 -0.708709	 0.967192	 -1.204587
H	 -0.507562	 1.822272	 0.303070
C	 1.123648	 -0.760450	 -0.970628
H	 0.140896	 -0.836411	 0.937133
H	 1.250388	 0.493242	 0.766335
C	 2.288517	 -1.673938	 -0.604014
H	 0.365961	 -1.337115	 -1.494145
H	 1.467099	 -0.003220	 -1.670866
H	 1.968872	 -2.463297	 0.068039
H	 2.714515	 -2.141289	 -1.484590
H	 3.079276	 -1.120258	 -0.108449

	symmetry c1
}
set optking {
	frozen_dihedral = ("
		10 7 4 8
	")
}

ee = optimize('scf')
oeprop('DIPOLE', 'QUADRUPOLE', 'MULLIKEN_CHARGES')
f=open( 'psi4out.xyz', 'w' )
f.write( "18  " )
f.write( str(ee) + "\n" )
f.write( MOL.save_string_xyz() )
f.close()
--------------------------------------------------------------------------

    Molecular point group: c1
  Charge       = 0
  Multiplicity = 1
  Basis Set: CC-PVTZ
  Basis Set:
  @DF-RHF Final Energy:  -271.28206112989676
    Total Energy =                       -271.2820611298968743
    Molecular point group: c1
  Basis Set: CC-PVTZ
  Basis Set:
  Basis Set: CC-PVTZ
  Basis Set:
  @DF-RHF Final Energy:  -271.28232912216248
    Total Energy =                       -271.2823291221621957
  Basis Set: CC-PVTZ
  Basis Set:
  Basis Set: CC-PVTZ
  Basis Set:
  @DF-RHF Final Energy:  -271.28241373002163
    Total Energy =                       -271.2824137300218581
  Basis Set: CC-PVTZ
  Basis Set:
  Basis Set: CC-PVTZ
  Basis Set:
  @DF-RHF Final Energy:  -271.28241504674486
    Total Energy =                       -271.2824150467452000
  Basis Set: CC-PVTZ
  Basis Set:
  Charge       = 0
  Multiplicity = 1
  Basis Set: CC-PVTZ
  Basis Set:

    Orbital Energies (a.u.)
    -----------------------

    Doubly Occupied:

       1A    -20.547358     2A    -11.266286     3A    -11.210407
       4A    -11.205795     5A    -11.203848     6A    -11.199616
       7A     -1.365124     8A     -1.072848     9A     -1.008055
      10A     -0.912921    11A     -0.819586    12A     -0.781959
      13A     -0.708546    14A     -0.644872    15A     -0.620292
      16A     -0.581429    17A     -0.570464    18A     -0.558932
      19A     -0.523711    20A     -0.503705    21A     -0.487127
      22A     -0.465657    23A     -0.451070    24A     -0.448812
      25A     -0.432288

  @DF-RHF Final Energy:  -271.28241525108416

   => Energetics <=

    Nuclear Repulsion Energy =            252.9172325667533983
    One-Electron Energy =                -869.2178830913928778
    Two-Electron Energy =                 345.0182352735550353
    DFT Exchange-Correlation Energy =       0.0000000000000000
    Empirical Dispersion Energy =           0.0000000000000000
    PCM Polarization Energy =               0.0000000000000000
    EFP Energy =                            0.0000000000000000
    Total Energy =                       -271.2824152510843874
    Molecular point group: c1
  Basis Set: CC-PVTZ
  Basis Set:

  -Total Gradient:
     Atom            X                  Y                   Z
    ------   -----------------  -----------------  -----------------
       1        0.000002837336     0.000009559329     0.000003978331
       2        0.000004942626     0.000004126196     0.000012762870
       3       -0.000022927120    -0.000001771641    -0.000031076780
       4        0.001154322564     0.001473492606     0.000092502992
       5       -0.000011171601     0.000013874646     0.000006070260
       6        0.000020923569    -0.000003064550    -0.000013103158
       7       -0.000973037707    -0.001180781714     0.000107579377
       8       -0.000747430843    -0.000986516359    -0.000088268031
       9       -0.000000826414    -0.000006637565     0.000009349970
      10        0.000561249534     0.000682512705    -0.000079532247
      11       -0.000008867782     0.000001768529    -0.000019110766
      12        0.000001065458    -0.000001571314    -0.000003322140
      13        0.000014388408     0.000000336277    -0.000003958870
      14        0.000001432008    -0.000002891324     0.000009175112
      15       -0.000009743670     0.000002488236     0.000004542450
      16       -0.000000879871     0.000008042386    -0.000006798562
      17        0.000016548016    -0.000009238382    -0.000000903525
      18       -0.000002824508    -0.000003728059     0.000000112717

  **** Optimization is complete! (in 5 steps) ****
    Final optimized geometry and variables:
    Molecular point group: c1

    Geometry (in Angstrom), charge = 0, multiplicity = 1:

    H           -2.869151592187    -0.848651585851     0.248852917582
    O           -2.060044663041    -0.488162733612    -0.063127900907
    C           -1.796441414458     0.735408263616     0.573663658919
    C           -0.445769625687     1.247642370946     0.111941960812
    H           -2.567266230069     1.462416073904     0.329954720645
    H           -1.793298059830     0.606939329575     1.654175400074
    C            0.728110801726     0.315716656711     0.469790065619
    H           -0.495682910359     1.386072100733    -0.962926919301
    H           -0.299311245697     2.229652492508     0.549041914363
    C            1.363053757613    -0.364008867019    -0.741192944149
    H            0.388415796277    -0.446887168957     1.162851940352
    H            1.494399369943     0.880994018997     0.991861116670
    C            2.510638946139    -1.295843240190    -0.368533451371
    H            0.599102447913    -0.920384542269    -1.273733784690
    H            1.725629302425     0.397430554077    -1.426887978244
    H            2.170818638197    -2.090816887008     0.287069649889
    H            2.944110384955    -1.757031021580    -1.248768459351
    H            3.301374590416    -0.759690170808     0.146618670082

  Mulliken Charges: (a.u.)
   Center  Symbol    Alpha    Beta     Spin     Total
       1     H     0.39633  0.39633  0.00000  0.20733
       2     O     4.19862  4.19862  0.00000 -0.39724
       3     C     2.97376  2.97376  0.00000  0.05247
       4     C     3.10086  3.10086  0.00000 -0.20172
       5     H     0.46455  0.46455  0.00000  0.07090
       6     H     0.47327  0.47327  0.00000  0.05346
       7     C     3.08861  3.08861  0.00000 -0.17722
       8     H     0.45217  0.45217  0.00000  0.09566
       9     H     0.44669  0.44669  0.00000  0.10663
      10     C     3.08098  3.08098  0.00000 -0.16197
      11     H     0.45536  0.45536  0.00000  0.08929
      12     H     0.45073  0.45073  0.00000  0.09855
      13     C     3.15145  3.15145  0.00000 -0.30290
      14     H     0.44754  0.44754  0.00000  0.10493
      15     H     0.45723  0.45723  0.00000  0.08553
      16     H     0.45499  0.45499  0.00000  0.09002
      17     H     0.44950  0.44950  0.00000  0.10101
      18     H     0.45736  0.45736  0.00000  0.08528

   Total alpha = 25.00000, Total beta = 25.00000, Total charge =  0.00000
