  ==> Input File <==

--------------------------------------------------------------------------
set {
	reference rhf
	basis 6-31G*
}

set_num_threads( 1 )
memory 2 gb

molecule MOL {
0 1

H	 -3.474527	 0.429137	 -2.248812
O	 -3.061507	 -0.090733	 -1.574235
C	 -1.809764	 0.459729	 -1.253732
C	 -1.177863	 -0.397191	 -0.171080
H	 -1.166265	 0.485316	 -2.132118
H	 -1.920732	 1.484207	 -0.900926
C	 0.198102	 0.111031	 0.262842
H	 -1.100898	 -1.415457	 -0.542481
H	 -1.852769	 -0.425539	 0.679905
C	 1.331804	 -0.827780	 -0.158768
H	 0.361943	 1.100838	 -0.156218
H	 0.217265	 0.229072	 1.345532
C	 2.723619	 -0.410569	 0.329459
H	 1.342964	 -0.912588	 -1.244120
H	 1.116806	 -1.824343	 0.220779
C	 3.243875	 0.895854	 -0.272975
H	 3.424222	 -1.207124	 0.091250
H	 2.714788	 -0.329854	 1.414619
H	 3.251977	 0.848779	 -1.358681
H	 2.637085	 1.747371	 0.016682
H	 4.259473	 1.094070	 0.055697

	symmetry c1
}
set optking {
	frozen_dihedral = ("
		2 3 4 8,
		4 7 10 14,
		16 13 10 14,
		1 2 3 5
	")
}

ee = energy('scf')
oeprop('DIPOLE', 'QUADRUPOLE', 'MULLIKEN_CHARGES')
f=open( 'psi4out.xyz', 'w' )
f.write( "21  " )
f.write( str(ee) + "\n" )
f.write( MOL.save_string_xyz() )
f.close()
--------------------------------------------------------------------------

    Molecular point group: c1

    Geometry (in Angstrom), charge = 0, multiplicity = 1:

       Center              X                  Y                   Z               Mass
    ------------   -----------------  -----------------  -----------------  -----------------
           H         -3.621796161102     0.450333826650    -1.806647860867     1.007825032070
           O         -3.208776161102    -0.069536173350    -1.132070860867    15.994914619560
           C         -1.957033161102     0.480925826650    -0.811567860867    12.000000000000
           C         -1.325132161102    -0.375994173350     0.271084139133    12.000000000000
           H         -1.313534161102     0.506512826650    -1.689953860867     1.007825032070
           H         -2.068001161102     1.505403826650    -0.458761860867     1.007825032070
           C          0.050832838898     0.132227826650     0.705006139133    12.000000000000
           H         -1.248167161102    -1.394260173350    -0.100316860867     1.007825032070
           H         -2.000038161102    -0.404342173350     1.122069139133     1.007825032070
           C          1.184534838898    -0.806583173350     0.283396139133    12.000000000000
           H          0.214673838898     1.122034826650     0.285946139133     1.007825032070
           H          0.069995838898     0.250268826650     1.787696139133     1.007825032070
           C          2.576349838898    -0.389372173350     0.771623139133    12.000000000000
           H          1.195694838898    -0.891391173350    -0.801955860867     1.007825032070
           H          0.969536838898    -1.803146173350     0.662943139133     1.007825032070
           C          3.096605838898     0.917050826650     0.169189139133    12.000000000000
           H          3.276952838898    -1.185927173350     0.533414139133     1.007825032070
           H          2.567518838898    -0.308657173350     1.856783139133     1.007825032070
           H          3.104707838898     0.869975826650    -0.916516860867     1.007825032070
           H          2.489815838898     1.768567826650     0.458846139133     1.007825032070
           H          4.112203838898     1.115266826650     0.497861139133     1.007825032070

  Charge       = 0
  Multiplicity = 1
  Basis Set: 6-31G*
  Basis Set:

    Orbital Energies (a.u.)
    -----------------------

    Doubly Occupied:

       1A    -20.551717     2A    -11.267515     3A    -11.215052
       4A    -11.214590     5A    -11.213868     6A    -11.209095
       7A    -11.208713     8A     -1.358614     9A     -1.086840
      10A     -1.032943    11A     -0.953382    12A     -0.877376
      13A     -0.809302    14A     -0.778293    15A     -0.693689
      16A     -0.648506    17A     -0.633542    18A     -0.607860
      19A     -0.586322    20A     -0.567019    21A     -0.537913
      22A     -0.522630    23A     -0.510262    24A     -0.490780
      25A     -0.475565    26A     -0.457568    27A     -0.456378
      28A     -0.444529    29A     -0.431331

  @DF-RHF Final Energy:  -310.20779959969929

   => Energetics <=

    Nuclear Repulsion Energy =            314.8913106280361376
    One-Electron Energy =               -1044.5159014718715298
    Two-Electron Energy =                 419.4167912441365615
    DFT Exchange-Correlation Energy =       0.0000000000000000
    Empirical Dispersion Energy =           0.0000000000000000
    PCM Polarization Energy =               0.0000000000000000
    EFP Energy =                            0.0000000000000000
    Total Energy =                       -310.2077995996988875

  Mulliken Charges: (a.u.)
   Center  Symbol    Alpha    Beta     Spin     Total
       1     H     0.28132  0.28132  0.00000  0.43737
       2     O     4.37160  4.37160  0.00000 -0.74320
       3     C     2.99356  2.99356  0.00000  0.01289
       4     C     3.16042  3.16042  0.00000 -0.32083
       5     H     0.43281  0.43281  0.00000  0.13438
       6     H     0.43226  0.43226  0.00000  0.13547
       7     C     3.16519  3.16519  0.00000 -0.33038
       8     H     0.41211  0.41211  0.00000  0.17578
       9     H     0.41240  0.41240  0.00000  0.17520
      10     C     3.15398  3.15398  0.00000 -0.30796
      11     H     0.42087  0.42087  0.00000  0.15825
      12     H     0.41895  0.41895  0.00000  0.16209
      13     C     3.15294  3.15294  0.00000 -0.30588
      14     H     0.42428  0.42428  0.00000  0.15144
      15     H     0.41990  0.41990  0.00000  0.16020
      16     C     3.24125  3.24125  0.00000 -0.48250
      17     H     0.42085  0.42085  0.00000  0.15829
      18     H     0.42311  0.42311  0.00000  0.15378
      19     H     0.42270  0.42270  0.00000  0.15460
      20     H     0.42048  0.42048  0.00000  0.15904
      21     H     0.41902  0.41902  0.00000  0.16195

   Total alpha = 29.00000, Total beta = 29.00000, Total charge =  0.00000
