                              Psi4 1.0.54 Driver

  ==> Input File <==

--------------------------------------------------------------------------
set {
	reference rhf
	basis cc-pvtz
}

set_num_threads( 4 )
memory 2 gb

molecule MOL {
0 1

H	 -4.024094	 -0.454727	 0.000004
C	 -2.962215	 -0.297920	 0.000004
C	 -2.454736	 0.988978	 0.000025
C	 -2.105837	 -1.382632	 -0.000016
H	 -3.120052	 1.830438	 0.000041
C	 -1.090106	 1.189676	 0.000026
H	 -2.500390	 -2.380229	 -0.000033
C	 -0.739175	 -1.183302	 -0.000016
H	 -0.680214	 2.179144	 0.000042
C	 -0.227341	 0.104540	 0.000006
H	 -0.073209	 -2.021168	 -0.000032
C	 1.238974	 0.374429	 0.000004
O	 1.823709	 0.059889	 1.140677
O	 1.826517	 0.825121	 -0.925658
C	 3.217113	 0.281770	 1.234256
H	 3.744527	 -0.298398	 0.492222
H	 3.500665	 -0.032967	 2.225280
H	 3.445185	 1.327608	 1.094241

	symmetry c1
}
set optking {
	frozen_dihedral = ("
		13 12 10 6
	")
}

ee,wfn = optimize('scf', return_wfn=True)
oeprop( wfn, 'DIPOLE', 'QUADRUPOLE', 'MULLIKEN_CHARGES')
f=open( 'psi4out.xyz', 'w' )
f.write( "18  " )
f.write( str(ee) + "\n" )
f.write( MOL.save_string_xyz() )
f.close()
--------------------------------------------------------------------------

    Molecular point group: c1
  Charge       = 0
  Multiplicity = 1
  Basis Set: CC-PVTZ
  Basis Set:
  @DF-RHF Final Energy:  -457.50022284507969
    Total Energy =                       -457.5002228450803159
    Molecular point group: c1
  Basis Set: CC-PVTZ
  Basis Set:
  Basis Set: CC-PVTZ
  Basis Set:
  @DF-RHF Final Energy:  -457.49853816341556
    Total Energy =                       -457.4985381634155601
  Basis Set: CC-PVTZ
  Basis Set:
  Basis Set: CC-PVTZ
  Basis Set:
  @DF-RHF Final Energy:  -457.50044455794881
    Total Energy =                       -457.5004445579485264
  Basis Set: CC-PVTZ
  Basis Set:
  Basis Set: CC-PVTZ
  Basis Set:
  @DF-RHF Final Energy:  -457.50066766451602
    Total Energy =                       -457.5006676645157313
  Basis Set: CC-PVTZ
  Basis Set:
  Basis Set: CC-PVTZ
  Basis Set:
  @DF-RHF Final Energy:  -457.50067739261448
    Total Energy =                       -457.5006773926146479
  Basis Set: CC-PVTZ
  Basis Set:
  Charge       = 0
  Multiplicity = 1
  Basis Set: CC-PVTZ
  Basis Set:

    Orbital Energies (a.u.)
    -----------------------

    Doubly Occupied:

       1A    -20.603868     2A    -20.540382     3A    -11.374422
       4A    -11.282423     5A    -11.250068     6A    -11.242092
       7A    -11.241414     8A    -11.238888     9A    -11.237755
      10A    -11.236993    11A     -1.479797    12A     -1.372390
      13A     -1.171772    14A     -1.052570    15A     -1.029675
      16A     -0.982270    17A     -0.862725    18A     -0.841961
      19A     -0.783712    20A     -0.742736    21A     -0.688661
      22A     -0.684633    23A     -0.681878    24A     -0.635730
      25A     -0.632392    26A     -0.600292    27A     -0.594201
      28A     -0.553115    29A     -0.539003    30A     -0.521689
      31A     -0.512827    32A     -0.504986    33A     -0.465035
      34A     -0.449509    35A     -0.347700    36A     -0.347452

  @DF-RHF Final Energy:  -457.50067871662912

   => Energetics <=

    Nuclear Repulsion Energy =            492.9275983306708326
    One-Electron Energy =               -1600.2025287302510606
    Two-Electron Energy =                 649.7742516829518991
    DFT Exchange-Correlation Energy =       0.0000000000000000
    Empirical Dispersion Energy =           0.0000000000000000
    PCM Polarization Energy =               0.0000000000000000
    EFP Energy =                            0.0000000000000000
    Total Energy =                       -457.5006787166282720
    Molecular point group: c1
  Basis Set: CC-PVTZ
  Basis Set:

  -Total Gradient:
     Atom            X                  Y                   Z
    ------   -----------------  -----------------  -----------------
       1       -0.000000694872     0.000008505201     0.000006516046
       2        0.000014541182    -0.000118517166    -0.000020401713
       3        0.000088020510     0.000078150707     0.000002175387
       4       -0.000123347820     0.000027444119     0.000009518483
       5       -0.000009151543    -0.000003111693     0.000001364648
       6       -0.000124487011     0.000018756879     0.003956107139
       7        0.000004801299    -0.000000312287    -0.000002102356
       8        0.000070598753     0.000102233070    -0.000007473623
       9        0.000003075547    -0.000004516338    -0.000003301543
      10       -0.000263112211     0.001015053589    -0.005267489531
      11       -0.000010862885    -0.000002633552    -0.000001624245
      12        0.000981352742    -0.004702733389     0.000053163879
      13       -0.000721896174     0.003624466292     0.001229578714
      14        0.000027738955    -0.000039826985     0.000031174899
      15        0.000066148092    -0.000020026664     0.000027042074
      16        0.000000187183    -0.000005251286    -0.000010169931
      17        0.000007014235     0.000010791220    -0.000004513835
      18       -0.000009925974     0.000011528287     0.000000435507

  **** Optimization is complete! (in 6 steps) ****
    Final optimized geometry and variables:
    Molecular point group: c1

    Geometry (in Angstrom), charge = 0, multiplicity = 1:

    H           -3.994747537334    -0.606916167496    -0.127692976147
    C           -2.935739182796    -0.434159942803    -0.141574498809
    C           -2.446084612648     0.858007893748    -0.158667606579
    C           -2.060472670445    -1.503802006694    -0.138604568773
    H           -3.122995338117     1.690468769249    -0.153991991595
    C           -1.083167010440     1.081881073902    -0.184725122826
    H           -2.437555096319    -2.508186746335    -0.122436532542
    C           -0.697104331384    -1.282340786149    -0.145833947194
    H           -0.700796215913     2.083900138885    -0.213177415862
    C           -0.208727800139     0.010739340157    -0.188311881182
    H           -0.017947207450    -2.112863365724    -0.122827803060
    C            1.265991273430     0.271456519225    -0.184664319232
    O            1.824624815260    -0.059308743874     0.963149748065
    O            1.858800326798     0.755129104884    -1.086786615420
    C            3.220011612099     0.144741463144     1.085113043262
    H            3.754625778184    -0.426705990300     0.341044876353
    H            3.482313117987    -0.191286071532     2.074770593028
    H            3.461225734167     1.190613181408     0.968409052871

  Mulliken Charges: (a.u.)
   Center  Symbol    Alpha    Beta     Spin     Total
       1     H     0.42141  0.42141  0.00000  0.15718
       2     C     3.08279  3.08279  0.00000 -0.16559
       3     C     3.06575  3.06575  0.00000 -0.13151
       4     C     3.06557  3.06557  0.00000 -0.13114
       5     H     0.42156  0.42156  0.00000  0.15687
       6     C     3.09355  3.09355  0.00000 -0.18711
       7     H     0.42175  0.42175  0.00000  0.15650
       8     C     3.09169  3.09169  0.00000 -0.18338
       9     H     0.41979  0.41979  0.00000  0.16041
      10     C     2.92127  2.92127  0.00000  0.15745
      11     H     0.42388  0.42388  0.00000  0.15224
      12     C     2.84272  2.84272  0.00000  0.31456
      13     O     4.14284  4.14284  0.00000 -0.28567
      14     O     4.19822  4.19822  0.00000 -0.39643
      15     C     3.03731  3.03731  0.00000 -0.07463
      16     H     0.45411  0.45411  0.00000  0.09177
      17     H     0.44308  0.44308  0.00000  0.11384
      18     H     0.45268  0.45268  0.00000  0.09464

   Total alpha = 36.00000, Total beta = 36.00000, Total charge = -0.00000

*** Psi4 exiting successfully. Buy a developer a beer!
