  ==> Input File <==

--------------------------------------------------------------------------
set {
	reference rhf
	basis 6-31G*
}

set_num_threads( 4 )
memory 2 gb

molecule MOL {
0 1

H	 2.772380	 0.594861	 -0.599989
N	 2.332695	 -0.069570	 0.000000
C	 0.936681	 -0.007078	 0.000000
H	 2.701754	 -0.982867	 -0.156398
C	 0.227108	 -0.002120	 -1.198267
C	 0.227108	 -0.002120	 1.198267
H	 0.761569	 -0.014657	 -2.132680
C	 -1.156334	 0.010459	 -1.192360
H	 0.761569	 -0.014657	 2.132680
C	 -1.156334	 0.010459	 1.192360
H	 -1.684791	 0.014915	 -2.129421
C	 -1.862085	 0.017996	 0.000000
H	 -1.684791	 0.014915	 2.129421
H	 -2.936703	 0.028387	 0.000000

	symmetry c1
}
set optking {
	frozen_dihedral = ("
		1 2 3 5
	")
}

ee = optimize('scf')
oeprop('DIPOLE', 'QUADRUPOLE', 'MULLIKEN_CHARGES')
f=open( 'psi4out.xyz', 'w' )
f.write( "14  " )
f.write( str(ee) + "\n" )
f.write( MOL.save_string_xyz() )
f.close()
--------------------------------------------------------------------------

    Molecular point group: c1
  Charge       = 0
  Multiplicity = 1
  Basis Set: 6-31G*
  Basis Set:
  @DF-RHF Final Energy:  -285.72294168094436
    Total Energy =                       -285.7229416809444729
    Molecular point group: c1
  Basis Set: 6-31G*
  Basis Set:
  Basis Set: 6-31G*
  Basis Set:
  @DF-RHF Final Energy:  -285.72423445222563
    Total Energy =                       -285.7242344522256303
  Basis Set: 6-31G*
  Basis Set:
  Basis Set: 6-31G*
  Basis Set:
  @DF-RHF Final Energy:  -285.72452272867918
    Total Energy =                       -285.7245227286793465
  Basis Set: 6-31G*
  Basis Set:
  Basis Set: 6-31G*
  Basis Set:
  @DF-RHF Final Energy:  -285.72455567817559
    Total Energy =                       -285.7245556781753066
  Basis Set: 6-31G*
  Basis Set:
  Basis Set: 6-31G*
  Basis Set:
  @DF-RHF Final Energy:  -285.72455746223619
    Total Energy =                       -285.7245574622358504
  Basis Set: 6-31G*
  Basis Set:
  Charge       = 0
  Multiplicity = 1
  Basis Set: 6-31G*
  Basis Set:

    Orbital Energies (a.u.)
    -----------------------

    Doubly Occupied:

       1A    -15.546207     2A    -11.258903     3A    -11.229625
       4A    -11.227698     5A    -11.225663     6A    -11.225475
       7A    -11.220337     8A     -1.204519     9A     -1.126026
      10A     -1.011261    11A     -0.985451    12A     -0.825961
      13A     -0.806250    14A     -0.700769    15A     -0.660474
      16A     -0.645371    17A     -0.624919    18A     -0.589601
      19A     -0.582008    20A     -0.504949    21A     -0.494811
      22A     -0.491782    23A     -0.406500    24A     -0.330733
      25A     -0.323077

  @DF-RHF Final Energy:  -285.72455771989604

   => Energetics <=

    Nuclear Repulsion Energy =            272.3075524262313252
    One-Electron Energy =                -925.5674806269000783
    Two-Electron Energy =                 367.5353704807730537
    DFT Exchange-Correlation Energy =       0.0000000000000000
    Empirical Dispersion Energy =           0.0000000000000000
    PCM Polarization Energy =               0.0000000000000000
    EFP Energy =                            0.0000000000000000
    Total Energy =                       -285.7245577198957562
    Molecular point group: c1
  Basis Set: 6-31G*
  Basis Set:

  -Total Gradient:
     Atom            X                  Y                   Z
    ------   -----------------  -----------------  -----------------
       1       -0.000016179571     0.000779467405     0.000900591604
       2       -0.000015810333    -0.001477896875    -0.001127232397
       3        0.000027501757     0.001663103460     0.000239229977
       4        0.000006090846    -0.000003167259    -0.000002181932
       5       -0.000019880041    -0.000976499111    -0.000012748389
       6        0.000002363508     0.000011276897    -0.000001028123
       7       -0.000003942390    -0.000000744949     0.000006673366
       8        0.000017835521     0.000035883393    -0.000000005468
       9       -0.000003172044    -0.000006150508    -0.000000919226
      10        0.000018204563    -0.000007780716    -0.000011386840
      11       -0.000005699671    -0.000003217451    -0.000004378752
      12       -0.000012817711    -0.000018138570     0.000009044992
      13       -0.000000349825     0.000004795870     0.000006024487
      14        0.000005855391    -0.000000931586    -0.000001683300

  **** Optimization is complete! (in 6 steps) ****
    Final optimized geometry and variables:
    Molecular point group: c1

    Geometry (in Angstrom), charge = 0, multiplicity = 1:

    H            2.763808923390     0.642912206023    -0.540945627325
    N            2.358271547606    -0.053558605017     0.053017007189
    C            0.927705941232    -0.015189824525     0.001382808548
    H            2.710531554038    -0.945550226216    -0.236110513901
    C            0.221562153126    -0.009921452919    -1.196037616321
    C            0.224736962097     0.005244387348     1.196792615354
    H            0.759282505745    -0.030748681291    -2.128783829915
    C           -1.163107792714     0.024447666204    -1.196928785011
    H            0.777585932019     0.004619259078     2.117900909296
    C           -1.161132058059     0.030770640773     1.197549810573
    H           -1.696548049891     0.032388811887    -2.130940269040
    C           -1.859340366961     0.042561924609     0.001334165645
    H           -1.693745173528     0.046379923399     2.131886766860
    H           -2.934436482736     0.066459915809     0.001621060594

  Mulliken Charges: (a.u.)
   Center  Symbol    Alpha    Beta     Spin     Total
       1     H     0.32570  0.32570  0.00000  0.34860
       2     N     3.93984  3.93984  0.00000 -0.87967
       3     C     2.90430  2.90430  0.00000  0.19140
       4     H     0.32400  0.32400  0.00000  0.35199
       5     C     3.11022  3.11022  0.00000 -0.22043
       6     C     3.09764  3.09764  0.00000 -0.19529
       7     H     0.40320  0.40320  0.00000  0.19360
       8     C     3.09955  3.09955  0.00000 -0.19911
       9     H     0.39302  0.39302  0.00000  0.21397
      10     C     3.09992  3.09992  0.00000 -0.19984
      11     H     0.40005  0.40005  0.00000  0.19989
      12     C     3.10250  3.10250  0.00000 -0.20500
      13     H     0.39966  0.39966  0.00000  0.20068
      14     H     0.40040  0.40040  0.00000  0.19921

   Total alpha = 25.00000, Total beta = 25.00000, Total charge =  0.00000
