                              Psi4 1.0.54 Driver

  ==> Input File <==

--------------------------------------------------------------------------
set {
	reference rhf
	basis cc-pvtz
}

set_num_threads( 4 )
memory 2 gb

molecule MOL {
0 1

O	 -2.817697	 1.304178	 0.001046
C	 -2.664672	 0.129869	 0.003507
C	 -3.797908	 -0.860100	 -0.001145
O	 -1.481217	 -0.452708	 0.001092
H	 -4.408836	 -0.679689	 -0.875387
H	 -3.443486	 -1.878443	 -0.002770
H	 -4.412123	 -0.683688	 0.871605
C	 -0.332055	 0.384012	 -0.000250
C	 0.892252	 -0.506059	 -0.000295
H	 -0.360822	 1.020205	 -0.874146
H	 -0.359817	 1.021310	 0.872861
C	 2.188199	 0.299473	 -0.001416
H	 0.857046	 -1.152781	 -0.871031
H	 0.857910	 -1.151798	 0.871202
C	 3.437151	 -0.577593	 -0.000991
H	 2.209565	 0.950707	 -0.871712
H	 2.210062	 0.952234	 0.867721
C	 3.347861	 -1.745089	 -0.977715
H	 3.606617	 -0.958655	 1.002069
H	 4.302557	 0.031807	 -0.245514
H	 2.511212	 -2.392756	 -0.738149
H	 4.248943	 -2.346706	 -0.952933
H	 3.212215	 -1.394615	 -1.995370

	symmetry c1
}
set optking {
	frozen_dihedral = ("
		19 15 12 16
	")
}

ee,wfn = optimize('scf', return_wfn=True)
oeprop( wfn, 'DIPOLE', 'QUADRUPOLE', 'MULLIKEN_CHARGES')
f=open( 'psi4out.xyz', 'w' )
f.write( "23  " )
f.write( str(ee) + "\n" )
f.write( MOL.save_string_xyz() )
f.close()
--------------------------------------------------------------------------

    Molecular point group: c1
  Charge       = 0
  Multiplicity = 1
  Basis Set: CC-PVTZ
  Basis Set:
  @DF-RHF Final Energy:  -423.12988063418913
    Total Energy =                       -423.1298806341892487
    Molecular point group: c1
  Basis Set: CC-PVTZ
  Basis Set:
  Basis Set: CC-PVTZ
  Basis Set:
  @DF-RHF Final Energy:  -423.12689172522789
    Total Energy =                       -423.1268917252269830
  Basis Set: CC-PVTZ
  Basis Set:
  Basis Set: CC-PVTZ
  Basis Set:
  @DF-RHF Final Energy:  -423.13161215165547
    Total Energy =                       -423.1316121516551902
  Basis Set: CC-PVTZ
  Basis Set:
  Basis Set: CC-PVTZ
  Basis Set:
  @DF-RHF Final Energy:  -423.13186765863469
    Total Energy =                       -423.1318676586347465
  Basis Set: CC-PVTZ
  Basis Set:
  Basis Set: CC-PVTZ
  Basis Set:
  @DF-RHF Final Energy:  -423.13103813918428
    Total Energy =                       -423.1310381391838291
  Basis Set: CC-PVTZ
  Basis Set:
  Basis Set: CC-PVTZ
  Basis Set:
  @DF-RHF Final Energy:  -423.13190497437921
    Total Energy =                       -423.1319049743792675
  Basis Set: CC-PVTZ
  Basis Set:
  Basis Set: CC-PVTZ
  Basis Set:
  @DF-RHF Final Energy:  -423.13190969919424
    Total Energy =                       -423.1319096991945798
  Basis Set: CC-PVTZ
  Basis Set:
  Charge       = 0
  Multiplicity = 1
  Basis Set: CC-PVTZ
  Basis Set:

    Orbital Energies (a.u.)
    -----------------------

    Doubly Occupied:

       1A    -20.595864     2A    -20.529462     3A    -11.366356
       4A    -11.279380     5A    -11.230643     6A    -11.222108
       7A    -11.221484     8A    -11.219844     9A    -11.211098
      10A     -1.471101    11A     -1.363936    12A     -1.094780
      13A     -1.041802    14A     -1.002574    15A     -0.932343
      16A     -0.857469    17A     -0.791911    18A     -0.771589
      19A     -0.694067    20A     -0.688014    21A     -0.673266
      22A     -0.639423    23A     -0.613725    24A     -0.602069
      25A     -0.576256    26A     -0.570660    27A     -0.550016
      28A     -0.539595    29A     -0.527310    30A     -0.508777
      31A     -0.499003    32A     -0.469999    33A     -0.467699
      34A     -0.465704    35A     -0.455235    36A     -0.438837

  @DF-RHF Final Energy:  -423.13190999788668

   => Energetics <=

    Nuclear Repulsion Energy =            455.3438077170514475
    One-Electron Energy =               -1478.5846354461953069
    Two-Electron Energy =                 600.1089177312567244
    DFT Exchange-Correlation Energy =       0.0000000000000000
    Empirical Dispersion Energy =           0.0000000000000000
    PCM Polarization Energy =               0.0000000000000000
    EFP Energy =                            0.0000000000000000
    Total Energy =                       -423.1319099978870781
    Molecular point group: c1
  Basis Set: CC-PVTZ
  Basis Set:

  -Total Gradient:
     Atom            X                  Y                   Z
    ------   -----------------  -----------------  -----------------
       1       -0.000026208527     0.000031243371    -0.000005817707
       2        0.000045718142    -0.000060307787     0.000007736259
       3       -0.000004885114     0.000016974054     0.000005134138
       4       -0.000052522492     0.000010869650    -0.000014843792
       5        0.000004339372    -0.000000782011     0.000000624750
       6       -0.000000695652    -0.000002124308     0.000000210780
       7        0.000005725722    -0.000000953848    -0.000006157420
       8        0.000024038990     0.000009657138     0.000028350712
       9       -0.000007185127    -0.000012106760     0.000000432414
      10       -0.000004048894    -0.000001382017    -0.000002064193
      11        0.000007655898    -0.000003236054    -0.000010252324
      12       -0.001524514848    -0.003034810791    -0.001935056946
      13       -0.000003176268     0.000002045403     0.000004199591
      14       -0.000005753708    -0.000000816237    -0.000000173775
      15       -0.002029513361    -0.003336815159    -0.000080589521
      16        0.001628640634     0.003083930025     0.001647724918
      17        0.000006024637    -0.000000983052    -0.000001015036
      18       -0.000005242814    -0.000014132197     0.000000002694
      19        0.001941730661     0.003310542168     0.000360856712
      20       -0.000004094531     0.000009988357     0.000006067778
      21        0.000006603384    -0.000007692686    -0.000002799999
      22       -0.000002306370     0.000001453758    -0.000001607883
      23       -0.000000329738    -0.000000561018    -0.000000962151

  **** Optimization is complete! (in 8 steps) ****
    Final optimized geometry and variables:
    Molecular point group: c1

    Geometry (in Angstrom), charge = 0, multiplicity = 1:

    O           -2.691806804463     1.516513668429    -0.040412274054
    C           -2.536846821437     0.349276373913     0.086597282298
    C           -3.668576904305    -0.634369440809     0.214458532840
    O           -1.352650033476    -0.229738739254     0.131411671512
    H           -4.296488044380    -0.552100370696    -0.662542931511
    H           -3.312759076913    -1.646828577474     0.319573521790
    H           -4.266072752458    -0.361272660722     1.073883831094
    C           -0.205156771209     0.601705675218     0.020785685823
    C            1.020531732711    -0.283565054448     0.096394822995
    H           -0.248475806135     1.139188263432    -0.916703420974
    H           -0.219694874768     1.330292986554     0.819565701184
    C            2.307323227025     0.525640433092    -0.037750651109
    H            0.955080776424    -1.031810366756    -0.684290751690
    H            1.013135799535    -0.814842205725     1.043430357094
    C            3.602514014223    -0.264822695370     0.174770660569
    H            2.342700898678     1.021286389099    -1.004624672958
    H            2.290207484839     1.331693896394     0.691606416718
    C            3.720907645801    -1.560613448055    -0.620957614823
    H            3.734049187307    -0.460092395499     1.235276474842
    H            4.429941680417     0.384354427349    -0.096200983453
    H            2.990508097704    -2.297329854149    -0.309552310322
    H            4.702992472145    -1.999423692626    -0.488980525708
    H            3.580096931809    -1.382214470401    -1.682373278377

  Mulliken Charges: (a.u.)
   Center  Symbol    Alpha    Beta     Spin     Total
       1     O     4.20239  4.20239  0.00000 -0.40478
       2     C     2.81532  2.81532  0.00000  0.36936
       3     C     3.13994  3.13994  0.00000 -0.27988
       4     O     4.14467  4.14467  0.00000 -0.28934
       5     H     0.44210  0.44210  0.00000  0.11579
       6     H     0.44191  0.44191  0.00000  0.11618
       7     H     0.44212  0.44212  0.00000  0.11577
       8     C     2.97933  2.97933  0.00000  0.04134
       9     C     3.08566  3.08566  0.00000 -0.17132
      10     H     0.45419  0.45419  0.00000  0.09162
      11     H     0.45298  0.45298  0.00000  0.09403
      12     C     3.10575  3.10575  0.00000 -0.21149
      13     H     0.44811  0.44811  0.00000  0.10377
      14     H     0.44987  0.44987  0.00000  0.10026
      15     C     3.08999  3.08999  0.00000 -0.17997
      16     H     0.45006  0.45006  0.00000  0.09988
      17     H     0.44933  0.44933  0.00000  0.10134
      18     C     3.15584  3.15584  0.00000 -0.31168
      19     H     0.45189  0.45189  0.00000  0.09623
      20     H     0.44895  0.44895  0.00000  0.10210
      21     H     0.45168  0.45168  0.00000  0.09664
      22     H     0.44466  0.44466  0.00000  0.11068
      23     H     0.45326  0.45326  0.00000  0.09347

   Total alpha = 36.00000, Total beta = 36.00000, Total charge = -0.00000

*** Psi4 exiting successfully. Buy a developer a beer!
