                              Psi4 1.0.54 Driver

  ==> Input File <==

--------------------------------------------------------------------------
set {
	reference rhf
	basis cc-pvtz
}

set_num_threads( 4 )
memory 2 gb

molecule MOL {
0 1

H	 -0.419049	 -1.452104	 -0.562010
N	 -0.625934	 -0.663929	 -0.000707
C	 -1.978635	 -0.158664	 0.001017
C	 0.376272	 -0.120333	 0.725012
H	 -2.519057	 -0.493535	 -0.876362
H	 -1.938890	 0.917202	 -0.004137
H	 -2.514266	 -0.485137	 0.884506
C	 1.711838	 -0.814832	 0.574170
O	 0.230401	 0.828687	 1.437163
H	 2.037931	 -0.787108	 -0.459026
H	 2.438077	 -0.314547	 1.193330
H	 1.635138	 -1.853319	 0.874640

	symmetry c1
}
set optking {
	frozen_dihedral = ("
		4 2 3 5
	")
}

ee,wfn = optimize('scf', return_wfn=True)
oeprop( wfn, 'DIPOLE', 'QUADRUPOLE', 'MULLIKEN_CHARGES')
f=open( 'psi4out.xyz', 'w' )
f.write( "12  " )
f.write( str(ee) + "\n" )
f.write( MOL.save_string_xyz() )
f.close()
--------------------------------------------------------------------------

    Molecular point group: c1
  Charge       = 0
  Multiplicity = 1
  Basis Set: CC-PVTZ
  Basis Set:
  @DF-RHF Final Energy:  -247.10077468651218
    Total Energy =                       -247.1007746865123522
    Molecular point group: c1
  Basis Set: CC-PVTZ
  Basis Set:
  Basis Set: CC-PVTZ
  Basis Set:
  @DF-RHF Final Energy:  -247.10108775673754
    Total Energy =                       -247.1010877567375701
  Basis Set: CC-PVTZ
  Basis Set:
  Basis Set: CC-PVTZ
  Basis Set:
  @DF-RHF Final Energy:  -247.10102086314083
    Total Energy =                       -247.1010208631409455
  Basis Set: CC-PVTZ
  Basis Set:
  Basis Set: CC-PVTZ
  Basis Set:
  @DF-RHF Final Energy:  -247.10120024685105
    Total Energy =                       -247.1012002468509650
  Basis Set: CC-PVTZ
  Basis Set:
  @DF-RHF Final Energy:  -247.10121063934204
    Total Energy =                       -247.1012106393420709
  @DF-RHF Final Energy:  -247.10123251089371
    Total Energy =                       -247.1012325108937375
  @DF-RHF Final Energy:  -247.10124102794597
    Total Energy =                       -247.1012410279460596
  @DF-RHF Final Energy:  -247.10124299508556
    Total Energy =                       -247.1012429950856131
  @DF-RHF Final Energy:  -247.10124549265990
    Total Energy =                       -247.1012454926600412
  @DF-RHF Final Energy:  -247.10124790142635
    Total Energy =                       -247.1012479014264045
  @DF-RHF Final Energy:  -247.10125015435403
    Total Energy =                       -247.1012501543539202
  @DF-RHF Final Energy:  -247.10120896338569
    Total Energy =                       -247.1012089633856021
  @DF-RHF Final Energy:  -247.10125202101872
    Total Energy =                       -247.1012520210185244
  @DF-RHF Final Energy:  -247.10125492132298
    Total Energy =                       -247.1012549213228340
  @DF-RHF Final Energy:  -247.10126338916888
    Total Energy =                       -247.1012633891689347
  @DF-RHF Final Energy:  -247.10125498994188
    Total Energy =                       -247.1012549899418786
  @DF-RHF Final Energy:  -247.10128234458273
    Total Energy =                       -247.1012823445827280
  @DF-RHF Final Energy:  -247.10122695313518
    Total Energy =                       -247.1012269531352104
  @DF-RHF Final Energy:  -247.10129437115592
    Total Energy =                       -247.1012943711560297
  @DF-RHF Final Energy:  -247.10133145644809
    Total Energy =                       -247.1013314564482926
  @DF-RHF Final Energy:  -247.10138135632778
    Total Energy =                       -247.1013813563278063
  @DF-RHF Final Energy:  -247.10139169535802
    Total Energy =                       -247.1013916953579610
  Basis Set: CC-PVTZ
  Basis Set:
  @DF-RHF Final Energy:  -247.10141273915329
    Total Energy =                       -247.1014127391532611
  Basis Set: CC-PVTZ
  Basis Set:
  Basis Set: CC-PVTZ
  Basis Set:
  @DF-RHF Final Energy:  -247.10141761336604
    Total Energy =                       -247.1014176133658680
  Basis Set: CC-PVTZ
  Basis Set:
  Basis Set: CC-PVTZ
  Basis Set:
  @DF-RHF Final Energy:  -247.10142233038337
    Total Energy =                       -247.1014223303832296
  Basis Set: CC-PVTZ
  Basis Set:
  Charge       = 0
  Multiplicity = 1
  Basis Set: CC-PVTZ
  Basis Set:

    Orbital Energies (a.u.)
    -----------------------

    Doubly Occupied:

       1A    -20.504503     2A    -15.576850     3A    -11.335738
       4A    -11.253884     5A    -11.228548     6A     -1.387628
       7A     -1.231709     8A     -1.016002     9A     -0.934161
      10A     -0.789988    11A     -0.690778    12A     -0.652019
      13A     -0.635766    14A     -0.585862    15A     -0.582981
      16A     -0.555589    17A     -0.547878    18A     -0.506024
      19A     -0.416924    20A     -0.390903

  @DF-RHF Final Energy:  -247.10142320176189

   => Energetics <=

    Nuclear Repulsion Energy =            181.8300749082846153
    One-Electron Energy =                -696.2155280769435421
    Two-Electron Energy =                 267.2840299668970943
    DFT Exchange-Correlation Energy =       0.0000000000000000
    Empirical Dispersion Energy =           0.0000000000000000
    PCM Polarization Energy =               0.0000000000000000
    EFP Energy =                            0.0000000000000000
    Total Energy =                       -247.1014232017618610
    Molecular point group: c1
  Basis Set: CC-PVTZ
  Basis Set:

  -Total Gradient:
     Atom            X                  Y                   Z
    ------   -----------------  -----------------  -----------------
       1        0.000024398692    -0.000027478648    -0.000028215011
       2       -0.000074749991    -0.000154592537     0.000169693833
       3       -0.000031327223    -0.000151998774     0.000070923642
       4        0.000047851688     0.000116108118    -0.000235145075
       5        0.000056352112     0.000169545407    -0.000078224730
       6        0.000006702740     0.000016499795     0.000002424098
       7       -0.000016317843    -0.000015892079    -0.000006260687
       8       -0.000139994893     0.000095915298    -0.000071506631
       9       -0.000006141885     0.000057484461     0.000096464927
      10        0.000003835798    -0.000088924436    -0.000153081118
      11        0.000124692407     0.000135871945     0.000046161646
      12        0.000004698397    -0.000152538548     0.000186765105

  **** Optimization is complete! (in 26 steps) ****
    Final optimized geometry and variables:
    Molecular point group: c1

    Geometry (in Angstrom), charge = 0, multiplicity = 1:

    H           -0.317197261721    -1.075344732051    -1.318316876047
    N           -0.522869898688    -0.354185943770    -0.674208700833
    C           -1.886828765275     0.109364281452    -0.565392050591
    C            0.438002781695     0.033296323107     0.189548402546
    H           -2.381763375675    -0.025403593716    -1.517221042062
    H           -1.892464230230     1.157665113737    -0.312330795861
    H           -2.439473030814    -0.427398400736     0.197241837694
    C            1.792214896354    -0.612773442356     0.003505412796
    O            0.240500424530     0.831169270749     1.058663600768
    H            1.905755140342    -1.099505576340    -0.956394104332
    H            2.553631870855     0.144679644229     0.118371669281
    H            1.930859183943    -1.347215362068     0.787949136724

  Mulliken Charges: (a.u.)
   Center  Symbol    Alpha    Beta     Spin     Total
       1     H     0.41090  0.41090  0.00000  0.17821
       2     N     3.61411  3.61411  0.00000 -0.22822
       3     C     3.07835  3.07835  0.00000 -0.15670
       4     C     2.84231  2.84231  0.00000  0.31538
       5     H     0.45543  0.45543  0.00000  0.08913
       6     H     0.43843  0.43843  0.00000  0.12315
       7     H     0.45654  0.45654  0.00000  0.08692
       8     C     3.14420  3.14420  0.00000 -0.28840
       9     O     4.22015  4.22015  0.00000 -0.44029
      10     H     0.45836  0.45836  0.00000  0.08328
      11     H     0.43768  0.43768  0.00000  0.12463
      12     H     0.44354  0.44354  0.00000  0.11292

   Total alpha = 20.00000, Total beta = 20.00000, Total charge =  0.00000

*** Psi4 exiting successfully. Buy a developer a beer!
