  ==> Input File <==

--------------------------------------------------------------------------
set {
	reference rhf
	basis 6-31G*
}

set_num_threads( 4 )
memory 2 gb

molecule MOL {
0 1

H	 -3.269016	 -0.876744	 0.468090
C	 -2.809304	 0.000122	 0.025886
N	 -1.391456	 0.000019	 0.300661
H	 -3.037557	 -0.000063	 -1.044252
H	 -3.269223	 0.876956	 0.468000
C	 -1.015425	 -1.027317	 1.251959
C	 -0.914246	 1.299383	 0.731627
H	 -1.494031	 -0.870259	 2.223441
H	 -1.344823	 -1.989903	 0.874482
C	 0.493477	 -1.050920	 1.439648
H	 -1.169881	 2.033690	 -0.025341
H	 -1.386153	 1.610464	 1.668666
C	 0.594656	 1.275780	 0.919315
H	 0.749113	 -1.785227	 2.196615
H	 0.965384	 -1.362000	 0.502609
N	 0.970687	 0.248444	 1.870614
H	 0.924054	 2.238366	 1.296793
H	 1.073262	 1.118722	 -0.052165
C	 2.388535	 0.248341	 2.145390
H	 2.615079	 -0.490800	 2.905732
H	 2.689666	 1.219071	 2.523319
H	 2.995216	 0.024367	 1.262741

	symmetry c1
}
set optking {
	frozen_dihedral = ("
		6 3 2 4
	")
}

ee = optimize('scf')
oeprop('DIPOLE', 'QUADRUPOLE', 'MULLIKEN_CHARGES')
f=open( 'psi4out.xyz', 'w' )
f.write( "22  " )
f.write( str(ee) + "\n" )
f.write( MOL.save_string_xyz() )
f.close()
--------------------------------------------------------------------------

    Molecular point group: c1
  Charge       = 0
  Multiplicity = 1
  Basis Set: 6-31G*
  Basis Set:
  @DF-RHF Final Energy:  -344.22409804103665
    Total Energy =                       -344.2240980410361999
    Molecular point group: c1
  Basis Set: 6-31G*
  Basis Set:
  Basis Set: 6-31G*
  Basis Set:
  @DF-RHF Final Energy:  -344.22504161140409
    Total Energy =                       -344.2250416114040945
  Basis Set: 6-31G*
  Basis Set:
  Basis Set: 6-31G*
  Basis Set:
  @DF-RHF Final Energy:  -344.22521598801831
    Total Energy =                       -344.2252159880182489
  Basis Set: 6-31G*
  Basis Set:
  Basis Set: 6-31G*
  Basis Set:
  @DF-RHF Final Energy:  -344.22522834302231
    Total Energy =                       -344.2252283430226498
  Basis Set: 6-31G*
  Basis Set:
  Charge       = 0
  Multiplicity = 1
  Basis Set: 6-31G*
  Basis Set:

    Orbital Energies (a.u.)
    -----------------------

    Doubly Occupied:

       1A    -15.541340     2A    -15.537636     3A    -11.238536
       4A    -11.238314     5A    -11.237419     6A    -11.237401
       7A    -11.235731     8A    -11.235446     9A     -1.252682
      10A     -1.200813    11A     -1.024381    12A     -0.990595
      13A     -0.911885    14A     -0.866574    15A     -0.835311
      16A     -0.753131    17A     -0.664345    18A     -0.634920
      19A     -0.629414    20A     -0.624279    21A     -0.619045
      22A     -0.578957    23A     -0.550796    24A     -0.549162
      25A     -0.542453    26A     -0.519349    27A     -0.496574
      28A     -0.487697    29A     -0.465167    30A     -0.455226
      31A     -0.348367    32A     -0.337329

  @DF-RHF Final Energy:  -344.22522940284182

   => Energetics <=

    Nuclear Repulsion Energy =            420.8187816494762501
    One-Electron Energy =               -1300.4074682209252387
    Two-Electron Energy =                 535.3634571686068284
    DFT Exchange-Correlation Energy =       0.0000000000000000
    Empirical Dispersion Energy =           0.0000000000000000
    PCM Polarization Energy =               0.0000000000000000
    EFP Energy =                            0.0000000000000000
    Total Energy =                       -344.2252294028421602
    Molecular point group: c1
  Basis Set: 6-31G*
  Basis Set:

  -Total Gradient:
     Atom            X                  Y                   Z
    ------   -----------------  -----------------  -----------------
       1       -0.000006958541    -0.000013476962     0.000004799913
       2        0.000094387780     0.004061302833    -0.000771225242
       3       -0.000696732946     0.001508997929     0.003102673385
       4        0.000066599302    -0.003760544368    -0.000114791341
       5        0.000030710640    -0.000030921324     0.000010977422
       6        0.000526652984    -0.001799427138    -0.002208169580
       7       -0.000008931742     0.000028279879    -0.000023167269
       8        0.000000399246     0.000008273849    -0.000015207386
       9        0.000001888874     0.000002615841     0.000003820341
      10        0.000005841698    -0.000005427967     0.000008578490
      11       -0.000000553896     0.000003646981     0.000003501785
      12       -0.000001715497    -0.000010022483    -0.000003144523
      13       -0.000005786528     0.000019162549     0.000007681855
      14        0.000006604631    -0.000002671177     0.000000379570
      15       -0.000009443165    -0.000004223199    -0.000001894693
      16       -0.000019730359    -0.000008727734    -0.000018033634
      17        0.000004026914     0.000001238128    -0.000001971095
      18       -0.000008050122     0.000003979646    -0.000003615591
      19        0.000004068285    -0.000002071927     0.000019402991
      20        0.000009993408     0.000002140625     0.000000049766
      21        0.000007126247    -0.000002370640     0.000000001382
      22       -0.000000397212     0.000000246659    -0.000000646544

  **** Optimization is complete! (in 5 steps) ****
    Final optimized geometry and variables:
    Molecular point group: c1

    Geometry (in Angstrom), charge = 0, multiplicity = 1:

    H           -3.080944430456    -1.033740193835    -0.748326711757
    C           -2.607619124158    -0.119195956378    -1.088671419996
    N           -1.199552125885    -0.118201736376    -0.735721657955
    H           -2.737420896234    -0.081851882201    -2.166377260647
    H           -3.151052931225     0.709783831413    -0.638677576720
    C           -0.807535680471    -1.155955428026     0.195001434584
    C           -0.702053158737     1.182566242666    -0.344201039084
    H           -1.265220848094    -1.019710575217     1.179916528942
    H           -1.135603004662    -2.114538298273    -0.191698545415
    C            0.704968976131    -1.176110704733     0.352801016038
    H           -0.959673855818     1.901601562427    -1.115320007859
    H           -1.157125451296     1.523684030306     0.590972642364
    C            0.808980394635     1.147863148652    -0.178236787591
    H            0.977004462651    -1.910715565089     1.103842352942
    H            1.158504354521    -1.485181663823    -0.594054345960
    N            1.190057261439     0.123597910776     0.774679598916
    H            1.152148606154     2.110180819796     0.187666841320
    H            1.272659957519     0.979348316749    -1.155101800928
    C            2.610725988979     0.119410787664     1.034622360815
    H            2.842907928574    -0.616973711899     1.795966855641
    H            2.919427633081     1.090759074345     1.404762370549
    H            3.207400438247    -0.110691641280     0.146674036289

  Mulliken Charges: (a.u.)
   Center  Symbol    Alpha    Beta     Spin     Total
       1     H     0.42077  0.42077  0.00000  0.15846
       2     C     3.13826  3.13826  0.00000 -0.27651
       3     N     3.79430  3.79430  0.00000 -0.58860
       4     H     0.41652  0.41652  0.00000  0.16696
       5     H     0.42630  0.42630  0.00000  0.14741
       6     C     3.05294  3.05294  0.00000 -0.10588
       7     C     3.05370  3.05370  0.00000 -0.10739
       8     H     0.42952  0.42952  0.00000  0.14096
       9     H     0.41803  0.41803  0.00000  0.16394
      10     C     3.05694  3.05694  0.00000 -0.11387
      11     H     0.41778  0.41778  0.00000  0.16444
      12     H     0.42916  0.42916  0.00000  0.14167
      13     C     3.05655  3.05655  0.00000 -0.11311
      14     H     0.41836  0.41836  0.00000  0.16328
      15     H     0.42898  0.42898  0.00000  0.14205
      16     N     3.78718  3.78718  0.00000 -0.57435
      17     H     0.41833  0.41833  0.00000  0.16334
      18     H     0.42900  0.42900  0.00000  0.14199
      19     C     3.14009  3.14009  0.00000 -0.28017
      20     H     0.41686  0.41686  0.00000  0.16628
      21     H     0.41686  0.41686  0.00000  0.16628
      22     H     0.43359  0.43359  0.00000  0.13282

   Total alpha = 32.00000, Total beta = 32.00000, Total charge =  0.00000
