                              Psi4 1.0.54 Driver

  ==> Input File <==

--------------------------------------------------------------------------
set {
	reference rhf
	basis cc-pvtz
}

set_num_threads( 4 )
memory 2 gb

molecule MOL {
0 1

H	 -4.024094	 -0.454727	 0.000004
C	 -2.962215	 -0.297920	 0.000004
C	 -2.454736	 0.988978	 0.000025
C	 -2.105837	 -1.382632	 -0.000016
H	 -3.120052	 1.830438	 0.000041
C	 -1.090106	 1.189676	 0.000026
H	 -2.500390	 -2.380229	 -0.000033
C	 -0.739175	 -1.183302	 -0.000016
H	 -0.680214	 2.179144	 0.000042
C	 -0.227341	 0.104540	 0.000006
H	 -0.073209	 -2.021168	 -0.000032
C	 1.238974	 0.374429	 0.000004
O	 1.858423	 -0.128711	 1.051251
O	 1.798347	 0.978171	 -0.853095
C	 3.254674	 0.077696	 1.137501
H	 3.756932	 -0.365796	 0.291080
H	 3.568385	 -0.400896	 2.050805
H	 3.481060	 1.132695	 1.171051

	symmetry c1
}
set optking {
	frozen_dihedral = ("
		13 12 10 6
	")
}

ee,wfn = optimize('scf', return_wfn=True)
oeprop( wfn, 'DIPOLE', 'QUADRUPOLE', 'MULLIKEN_CHARGES')
f=open( 'psi4out.xyz', 'w' )
f.write( "18  " )
f.write( str(ee) + "\n" )
f.write( MOL.save_string_xyz() )
f.close()
--------------------------------------------------------------------------

    Molecular point group: c1
  Charge       = 0
  Multiplicity = 1
  Basis Set: CC-PVTZ
  Basis Set:
  @DF-RHF Final Energy:  -457.50196811155689
    Total Energy =                       -457.5019681115567209
    Molecular point group: c1
  Basis Set: CC-PVTZ
  Basis Set:
  Basis Set: CC-PVTZ
  Basis Set:
  @DF-RHF Final Energy:  -457.49960213234817
    Total Energy =                       -457.4996021323482864
  Basis Set: CC-PVTZ
  Basis Set:
  Basis Set: CC-PVTZ
  Basis Set:
  @DF-RHF Final Energy:  -457.50225307664357
    Total Energy =                       -457.5022530766440241
  Basis Set: CC-PVTZ
  Basis Set:
  Basis Set: CC-PVTZ
  Basis Set:
  @DF-RHF Final Energy:  -457.50245363669757
    Total Energy =                       -457.5024536366972825
  Basis Set: CC-PVTZ
  Basis Set:
  Basis Set: CC-PVTZ
  Basis Set:
  @DF-RHF Final Energy:  -457.50247747039595
    Total Energy =                       -457.5024774703961157
  Basis Set: CC-PVTZ
  Basis Set:
  Charge       = 0
  Multiplicity = 1
  Basis Set: CC-PVTZ
  Basis Set:

    Orbital Energies (a.u.)
    -----------------------

    Doubly Occupied:

       1A    -20.603352     2A    -20.539067     3A    -11.373680
       4A    -11.282138     5A    -11.249070     6A    -11.242431
       7A    -11.241468     8A    -11.239673     9A    -11.237610
      10A    -11.237026    11A     -1.479122    12A     -1.371474
      13A     -1.171783    14A     -1.052632    15A     -1.029745
      16A     -0.981845    17A     -0.862911    18A     -0.841582
      19A     -0.783198    20A     -0.742949    21A     -0.688485
      22A     -0.683929    23A     -0.681027    24A     -0.634891
      25A     -0.632697    26A     -0.600452    27A     -0.593422
      28A     -0.554819    29A     -0.537871    30A     -0.520816
      31A     -0.512843    32A     -0.505016    33A     -0.464433
      34A     -0.449445    35A     -0.348175    36A     -0.347450

  @DF-RHF Final Energy:  -457.50247926222835

   => Energetics <=

    Nuclear Repulsion Energy =            493.2348614271498946
    One-Electron Energy =               -1600.8376363195741305
    Two-Electron Energy =                 650.1002956301958875
    DFT Exchange-Correlation Energy =       0.0000000000000000
    Empirical Dispersion Energy =           0.0000000000000000
    PCM Polarization Energy =               0.0000000000000000
    EFP Energy =                            0.0000000000000000
    Total Energy =                       -457.5024792622284622
    Molecular point group: c1
  Basis Set: CC-PVTZ
  Basis Set:

  -Total Gradient:
     Atom            X                  Y                   Z
    ------   -----------------  -----------------  -----------------
       1       -0.000001071339     0.000007678072     0.000005797268
       2        0.000021107123    -0.000134290178    -0.000028330203
       3        0.000108680494     0.000090803930     0.000003523237
       4       -0.000126879729     0.000040381285     0.000024990950
       5       -0.000011805975    -0.000006081553     0.000004658095
       6       -0.000189679892    -0.000016715695     0.004921525697
       7        0.000003640140    -0.000001298978    -0.000003417569
       8        0.000057049382     0.000114630674    -0.000019373297
       9        0.000012599435    -0.000005785458    -0.000004751439
      10       -0.000231238025     0.001238350254    -0.006288043825
      11       -0.000007238223    -0.000004292192    -0.000000352877
      12        0.001049756828    -0.005454377451    -0.001030254020
      13       -0.000815500446     0.004232744465     0.002299257697
      14        0.000056901015    -0.000084743860     0.000099329292
      15        0.000068534982    -0.000041060726     0.000019218940
      16       -0.000000383404     0.000003811159    -0.000001411675
      17        0.000021774732     0.000015432607    -0.000001968329
      18       -0.000016247092     0.000004813646    -0.000000397942

  **** Optimization is complete! (in 6 steps) ****
    Final optimized geometry and variables:
    Molecular point group: c1

    Geometry (in Angstrom), charge = 0, multiplicity = 1:

    H           -3.999258957375    -0.570463545416    -0.110344926460
    C           -2.939651299749    -0.401355386043    -0.127866106589
    C           -2.446131072496     0.889523584868    -0.141813200709
    C           -2.068649923890    -1.474770037317    -0.131039674522
    H           -3.120373917120     1.724014471437    -0.129638331486
    C           -1.082711808407     1.108307189295    -0.174404909688
    H           -2.449827316487    -2.477597849133    -0.116273755829
    C           -0.704772350376    -1.258030392741    -0.139504486239
    H           -0.694015852707     2.107537794282    -0.203032903431
    C           -0.211740804843     0.033799463189    -0.184932614743
    H           -0.027720356685    -2.089759515415    -0.114991398630
    C            1.260192579249     0.297898666104    -0.171872318193
    O            1.851841288591    -0.230786775058     0.881756140628
    O            1.825812712603     0.949405599927    -0.981859143275
    C            3.249579752939    -0.042820378357     0.999380274302
    H            3.763553778306    -0.464819435994     0.148627991860
    H            3.541382856895    -0.551952991921     1.903187362507
    H            3.485212823013     1.008448545096     1.069096416748

  Mulliken Charges: (a.u.)
   Center  Symbol    Alpha    Beta     Spin     Total
       1     H     0.42121  0.42121  0.00000  0.15758
       2     C     3.08049  3.08049  0.00000 -0.16098
       3     C     3.06690  3.06690  0.00000 -0.13380
       4     C     3.06698  3.06698  0.00000 -0.13397
       5     H     0.42140  0.42140  0.00000  0.15720
       6     C     3.09313  3.09313  0.00000 -0.18626
       7     H     0.42169  0.42169  0.00000  0.15661
       8     C     3.09013  3.09013  0.00000 -0.18026
       9     H     0.41675  0.41675  0.00000  0.16649
      10     C     2.93161  2.93161  0.00000  0.13677
      11     H     0.42229  0.42229  0.00000  0.15541
      12     C     2.83713  2.83713  0.00000  0.32573
      13     O     4.14307  4.14307  0.00000 -0.28615
      14     O     4.20047  4.20047  0.00000 -0.40095
      15     C     3.03711  3.03711  0.00000 -0.07422
      16     H     0.45402  0.45402  0.00000  0.09195
      17     H     0.44330  0.44330  0.00000  0.11341
      18     H     0.45229  0.45229  0.00000  0.09542

   Total alpha = 36.00000, Total beta = 36.00000, Total charge = -0.00000

*** Psi4 exiting successfully. Buy a developer a beer!
