  ==> Input File <==

--------------------------------------------------------------------------
set {
	reference rhf
	basis 6-31G*
}

set_num_threads( 4 )
memory 2 gb

molecule MOL {
0 1

H	 -3.420663	 1.227371	 -1.044276
O	 -3.452007	 0.283848	 -0.965577
C	 -3.181085	 -0.079926	 0.364119
C	 -1.765924	 0.277073	 0.805136
H	 -3.327791	 -1.152017	 0.410903
H	 -3.905698	 0.375695	 1.036898
C	 -0.677594	 -0.417312	 -0.014550
H	 -1.637766	 1.358238	 0.744969
H	 -1.659588	 0.017670	 1.857098
C	 0.738335	 -0.034840	 0.421385
H	 -0.814977	 -0.178223	 -1.064632
H	 -0.802730	 -1.495410	 0.071702
C	 1.822265	 -0.738362	 -0.399735
H	 0.853533	 1.043532	 0.342250
H	 0.871597	 -0.279636	 1.474438
C	 3.150708	 0.021039	 -0.493033
H	 1.446462	 -0.927756	 -1.404024
H	 2.013454	 -1.714733	 0.040676
C	 3.075030	 1.343009	 -1.259240
H	 3.881054	 -0.621468	 -0.978904
H	 3.530289	 0.206172	 0.509887
H	 2.686479	 1.190464	 -2.262682
H	 4.059345	 1.791758	 -1.351892
H	 2.434797	 2.064607	 -0.762690

	symmetry c1
}
set optking {
	frozen_dihedral = ("
		17 13 10 7
	")
}

ee = optimize('scf')
oeprop('DIPOLE', 'QUADRUPOLE', 'MULLIKEN_CHARGES')
f=open( 'psi4out.xyz', 'w' )
f.write( "24  " )
f.write( str(ee) + "\n" )
f.write( MOL.save_string_xyz() )
f.close()
--------------------------------------------------------------------------

    Molecular point group: c1
  Charge       = 0
  Multiplicity = 1
  Basis Set: 6-31G*
  Basis Set:
  @DF-RHF Final Energy:  -349.24484697081419
    Total Energy =                       -349.2448469708145922
    Molecular point group: c1
  Basis Set: 6-31G*
  Basis Set:
  Basis Set: 6-31G*
  Basis Set:
  @DF-RHF Final Energy:  -349.24502800972868
    Total Energy =                       -349.2450280097283439
  Basis Set: 6-31G*
  Basis Set:
  Basis Set: 6-31G*
  Basis Set:
  @DF-RHF Final Energy:  -349.24526741571810
    Total Energy =                       -349.2452674157182173
  Basis Set: 6-31G*
  Basis Set:
  Basis Set: 6-31G*
  Basis Set:
  @DF-RHF Final Energy:  -349.24527520064981
    Total Energy =                       -349.2452752006497576
  Basis Set: 6-31G*
  Basis Set:
  Basis Set: 6-31G*
  Basis Set:
  @DF-RHF Final Energy:  -349.24529371568883
    Total Energy =                       -349.2452937156890016
  Basis Set: 6-31G*
  Basis Set:
  Basis Set: 6-31G*
  Basis Set:
  @DF-RHF Final Energy:  -349.24529637351344
    Total Energy =                       -349.2452963735136109
  Basis Set: 6-31G*
  Basis Set:
  Charge       = 0
  Multiplicity = 1
  Basis Set: 6-31G*
  Basis Set:

    Orbital Energies (a.u.)
    -----------------------

    Doubly Occupied:

       1A    -20.553564     2A    -11.267685     3A    -11.217349
       4A    -11.214427     5A    -11.212350     6A    -11.211390
       7A    -11.211174     8A    -11.207386     9A     -1.360151
      10A     -1.087764    11A     -1.048189    12A     -0.985417
      13A     -0.915233    14A     -0.849453    15A     -0.800277
      16A     -0.778562    17A     -0.678984    18A     -0.653600
      19A     -0.623915    20A     -0.618895    21A     -0.599276
      22A     -0.578342    23A     -0.565099    24A     -0.535492
      25A     -0.516452    26A     -0.511532    27A     -0.495919
      28A     -0.474142    29A     -0.467125    30A     -0.459717
      31A     -0.455858    32A     -0.448924    33A     -0.418692

  @DF-RHF Final Energy:  -349.24529634206266

   => Energetics <=

    Nuclear Repulsion Energy =            385.5388960361780732
    One-Electron Energy =               -1237.5237125148109953
    Two-Electron Energy =                 502.7395201365699791
    DFT Exchange-Correlation Energy =       0.0000000000000000
    Empirical Dispersion Energy =           0.0000000000000000
    PCM Polarization Energy =               0.0000000000000000
    EFP Energy =                            0.0000000000000000
    Total Energy =                       -349.2452963420628862
    Molecular point group: c1
  Basis Set: 6-31G*
  Basis Set:

  -Total Gradient:
     Atom            X                  Y                   Z
    ------   -----------------  -----------------  -----------------
       1       -0.000001976567     0.000007543481    -0.000005155132
       2       -0.000024889224     0.000021427910     0.000017939734
       3        0.000016449731    -0.000055014161    -0.000013734029
       4        0.000007492081     0.000039737266    -0.000007148441
       5       -0.000003075197    -0.000004692770    -0.000000301277
       6        0.000005075050    -0.000000581036    -0.000002944160
       7       -0.000014318711     0.002104991762    -0.001791012016
       8        0.000007636669     0.000007597702    -0.000000227110
       9       -0.000004214192     0.000007281286    -0.000001692575
      10       -0.000306506416    -0.003756877450     0.002758362794
      11       -0.000004115960    -0.000003706261     0.000013744294
      12        0.000005568823    -0.000001877186    -0.000008884434
      13        0.001614543999     0.005026330393    -0.002033018078
      14       -0.000008482425    -0.000011641765    -0.000003805205
      15        0.000003997612     0.000007763548     0.000011128171
      16        0.000008105102    -0.000014634369    -0.000025661905
      17       -0.001301938476    -0.003382931276     0.001083192504
      18        0.000007362655     0.000007732903    -0.000005113915
      19       -0.000012586137     0.000009176970     0.000018253169
      20        0.000003221794    -0.000015400824     0.000002711020
      21       -0.000003677521     0.000010198986    -0.000007525590
      22        0.000004989282    -0.000007437409     0.000001806338
      23       -0.000000529260    -0.000004374037     0.000005304906
      24        0.000001867285     0.000009386336    -0.000006219060

  **** Optimization is complete! (in 7 steps) ****
    Final optimized geometry and variables:
    Molecular point group: c1

    Geometry (in Angstrom), charge = 0, multiplicity = 1:

    H           -3.356076452929     1.182301732102    -0.731730202690
    O           -3.377617639249     0.235366059758    -0.717688466900
    C           -3.100827854061    -0.215585717233     0.583844660063
    C           -1.688074342345     0.123669928410     1.046245324216
    H           -3.237473270944    -1.289609473194     0.557648075537
    H           -3.828318053152     0.186334443690     1.286962044970
    C           -0.595331906257    -0.504685234819     0.180947964618
    H           -1.569346376282     1.207640817815     1.058021041008
    H           -1.577674907393    -0.204140174826     2.078457810411
    C            0.818025236779    -0.123129590875     0.625526515735
    H           -0.740649075262    -0.206263027596    -0.852294562346
    H           -0.704857462677    -1.588268973304     0.203721466218
    C            1.916897606238    -0.812231369299    -0.199146592900
    H            0.917834097173     0.957253034734     0.548911098239
    H            0.955987247902    -0.360964628374     1.678209688375
    C            3.253806900571    -0.064325440936    -0.243595943154
    H            1.558426591688    -0.996195614966    -1.210252256987
    H            2.086761124948    -1.801594494990     0.220904596497
    C            3.241966074793     1.191351892906    -1.117350125372
    H            4.019712465225    -0.738818970571    -0.618122581296
    H            3.551865864937     0.199297094745     0.769396296071
    H            2.989385703193     0.945294085139    -2.144999475605
    H            4.217379901627     1.668312780185    -1.122393025445
    H            2.523124926106     1.925489205738    -0.768202836427

  Mulliken Charges: (a.u.)
   Center  Symbol    Alpha    Beta     Spin     Total
       1     H     0.28337  0.28337  0.00000  0.43325
       2     O     4.36833  4.36833  0.00000 -0.73665
       3     C     2.99613  2.99613  0.00000  0.00774
       4     C     3.16920  3.16920  0.00000 -0.33840
       5     H     0.41630  0.41630  0.00000  0.16741
       6     H     0.42819  0.42819  0.00000  0.14363
       7     C     3.15325  3.15325  0.00000 -0.30649
       8     H     0.42840  0.42840  0.00000  0.14321
       9     H     0.42228  0.42228  0.00000  0.15544
      10     C     3.15372  3.15372  0.00000 -0.30743
      11     H     0.41144  0.41144  0.00000  0.17712
      12     H     0.42366  0.42366  0.00000  0.15268
      13     C     3.15466  3.15466  0.00000 -0.30931
      14     H     0.42385  0.42385  0.00000  0.15230
      15     H     0.42332  0.42332  0.00000  0.15337
      16     C     3.15334  3.15334  0.00000 -0.30669
      17     H     0.42181  0.42181  0.00000  0.15637
      18     H     0.42152  0.42152  0.00000  0.15697
      19     C     3.24001  3.24001  0.00000 -0.48001
      20     H     0.42109  0.42109  0.00000  0.15782
      21     H     0.42349  0.42349  0.00000  0.15303
      22     H     0.42150  0.42150  0.00000  0.15700
      23     H     0.41965  0.41965  0.00000  0.16071
      24     H     0.42152  0.42152  0.00000  0.15697

   Total alpha = 33.00000, Total beta = 33.00000, Total charge =  0.00000
