                              Psi4 1.0.54 Driver

  ==> Input File <==

--------------------------------------------------------------------------
set {
	reference rhf
	basis cc-pvtz
}

set_num_threads( 4 )
memory 2 gb

molecule MOL {
0 1

H	 2.165503	 1.891312	 -0.127374
O	 1.244801	 1.874365	 0.056106
C	 0.700177	 0.619554	 -0.266242
C	 -0.713111	 0.588314	 0.266177
H	 1.277853	 -0.177763	 0.191471
H	 0.688133	 0.466356	 -1.342236
O	 -1.421673	 -0.521378	 -0.196983
H	 -1.244794	 1.469161	 -0.069059
H	 -0.685100	 0.604721	 1.352683
H	 -0.933408	 -1.297830	 0.014544

	symmetry c1
}
set optking {
	frozen_dihedral = ("
		5 3 4 7
	")
}

ee,wfn = optimize('scf', return_wfn=True)
oeprop( wfn, 'DIPOLE', 'QUADRUPOLE', 'MULLIKEN_CHARGES')
f=open( 'psi4out.xyz', 'w' )
f.write( "10  " )
f.write( str(ee) + "\n" )
f.write( MOL.save_string_xyz() )
f.close()
--------------------------------------------------------------------------

    Molecular point group: c1
  Charge       = 0
  Multiplicity = 1
  Basis Set: CC-PVTZ
  Basis Set:
  @DF-RHF Final Energy:  -229.02433796319502
    Total Energy =                       -229.0243379631951370
    Molecular point group: c1
  Basis Set: CC-PVTZ
  Basis Set:
  Basis Set: CC-PVTZ
  Basis Set:
  @DF-RHF Final Energy:  -229.02495999636992
    Total Energy =                       -229.0249599963700859
  Basis Set: CC-PVTZ
  Basis Set:
  Basis Set: CC-PVTZ
  Basis Set:
  @DF-RHF Final Energy:  -229.02507985055504
    Total Energy =                       -229.0250798505550733
  Basis Set: CC-PVTZ
  Basis Set:
  Basis Set: CC-PVTZ
  Basis Set:
  @DF-RHF Final Energy:  -229.02514745302548
    Total Energy =                       -229.0251474530254256
  Basis Set: CC-PVTZ
  Basis Set:
  Basis Set: CC-PVTZ
  Basis Set:
  @DF-RHF Final Energy:  -229.02517225040296
    Total Energy =                       -229.0251722504029317
  Basis Set: CC-PVTZ
  Basis Set:
  Charge       = 0
  Multiplicity = 1
  Basis Set: CC-PVTZ
  Basis Set:

    Orbital Energies (a.u.)
    -----------------------

    Doubly Occupied:

       1A    -20.554753     2A    -20.552956     3A    -11.270623
       4A    -11.267150     5A     -1.378414     6A     -1.365318
       7A     -0.999647     8A     -0.847103     9A     -0.721254
      10A     -0.697151    11A     -0.637228    12A     -0.614922
      13A     -0.581333    14A     -0.528418    15A     -0.492891
      16A     -0.447551    17A     -0.443082

  @DF-RHF Final Energy:  -229.02517306834707

   => Energetics <=

    Nuclear Repulsion Energy =            131.4885716680559824
    One-Electron Energy =                -574.2278988259716925
    Two-Electron Energy =                 213.7141540895686944
    DFT Exchange-Correlation Energy =       0.0000000000000000
    Empirical Dispersion Energy =           0.0000000000000000
    PCM Polarization Energy =               0.0000000000000000
    EFP Energy =                            0.0000000000000000
    Total Energy =                       -229.0251730683469873
    Molecular point group: c1
  Basis Set: CC-PVTZ
  Basis Set:

  -Total Gradient:
     Atom            X                  Y                   Z
    ------   -----------------  -----------------  -----------------
       1        0.000037732750     0.000046414476     0.000010466522
       2        0.000022373987    -0.000024807336    -0.000025318958
       3       -0.000949081681    -0.001286435314    -0.002577245869
       4        0.000874131860    -0.001035167452     0.002259370834
       5        0.000598517759     0.001348452113     0.001726268177
       6       -0.000015291217    -0.000024962761    -0.000015652529
       7       -0.000591216825     0.001026971742    -0.001405959655
       8        0.000007500553     0.000013621462     0.000000632316
       9        0.000002202999    -0.000007251224     0.000004770818
      10        0.000013129815    -0.000056835705     0.000022668345

  **** Optimization is complete! (in 6 steps) ****
    Final optimized geometry and variables:
    Molecular point group: c1

    Geometry (in Angstrom), charge = 0, multiplicity = 1:

    H            2.167435764630     1.301133404512    -0.172680536937
    O            1.279979133438     1.235178506536     0.126895320308
    C            0.734397397360    -0.004600944545    -0.231471849929
    C           -0.685402326431    -0.045884490518     0.298853924461
    H            1.318694010682    -0.813097257404     0.205111262747
    H            0.714126278658    -0.136369907029    -1.308464694530
    O           -1.392167304170    -1.148490245737    -0.196764958401
    H           -1.207263976057     0.838146523308    -0.038961753209
    H           -0.678194501561    -0.029206298335     1.384054242017
    H           -1.117665809776    -1.935290645745     0.237516521812

  Mulliken Charges: (a.u.)
   Center  Symbol    Alpha    Beta     Spin     Total
       1     H     0.39325  0.39325  0.00000  0.21350
       2     O     4.19914  4.19914  0.00000 -0.39828
       3     C     2.96682  2.96682  0.00000  0.06636
       4     C     2.97709  2.97709  0.00000  0.04582
       5     H     0.48052  0.48052  0.00000  0.03896
       6     H     0.46906  0.46906  0.00000  0.06188
       7     O     4.20167  4.20167  0.00000 -0.40334
       8     H     0.45183  0.45183  0.00000  0.09635
       9     H     0.46626  0.46626  0.00000  0.06747
      10     H     0.39436  0.39436  0.00000  0.21127

   Total alpha = 17.00000, Total beta = 17.00000, Total charge =  0.00000

*** Psi4 exiting successfully. Buy a developer a beer!
