  ==> Input File <==

--------------------------------------------------------------------------
set {
	reference rhf
	basis 6-31G*
}

set_num_threads( 4 )
memory 2 gb

molecule MOL {
0 1

H	 2.312749	 -0.146194	 -0.309768
O	 1.586534	 -0.678666	 -0.000226
C	 0.489431	 0.077273	 0.000046
C	 -0.764129	 -0.759190	 0.000191
O	 0.537743	 1.263962	 0.000257
C	 -2.038368	 0.075731	 -0.000248
H	 -0.717284	 -1.412404	 -0.866059
H	 -0.717458	 -1.411724	 0.866967
H	 -2.086483	 0.712501	 -0.875098
H	 -2.908485	 -0.571682	 -0.000042
H	 -2.086576	 0.713280	 0.874068

	symmetry c1
}
set optking {
	frozen_dihedral = ("
		1 2 3 5
	")
}

ee = optimize('scf')
oeprop('DIPOLE', 'QUADRUPOLE', 'MULLIKEN_CHARGES')
f=open( 'psi4out.xyz', 'w' )
f.write( "11  " )
f.write( str(ee) + "\n" )
f.write( MOL.save_string_xyz() )
f.close()
--------------------------------------------------------------------------

    Molecular point group: c1
  Charge       = 0
  Multiplicity = 1
  Basis Set: 6-31G*
  Basis Set:
  @DF-RHF Final Energy:  -266.84363379659464
    Total Energy =                       -266.8436337965945313
    Molecular point group: c1
  Basis Set: 6-31G*
  Basis Set:
  Basis Set: 6-31G*
  Basis Set:
  @DF-RHF Final Energy:  -266.84011167168757
    Total Energy =                       -266.8401116716877368
  Basis Set: 6-31G*
  Basis Set:
  Basis Set: 6-31G*
  Basis Set:
  @DF-RHF Final Energy:  -266.84382211933610
    Total Energy =                       -266.8438221193362097
  Basis Set: 6-31G*
  Basis Set:
  Basis Set: 6-31G*
  Basis Set:
  @DF-RHF Final Energy:  -266.84387374791254
    Total Energy =                       -266.8438737479124256
  Basis Set: 6-31G*
  Basis Set:
  @DF-RHF Final Energy:  -266.84387825675162
    Total Energy =                       -266.8438782567515659
  Basis Set: 6-31G*
  Basis Set:
  @DF-RHF Final Energy:  -266.84122398504019
    Total Energy =                       -266.8412239850401306
  Basis Set: 6-31G*
  Basis Set:
  Basis Set: 6-31G*
  Basis Set:
  @DF-RHF Final Energy:  -266.84381044959730
    Total Energy =                       -266.8438104495975267
  Basis Set: 6-31G*
  Basis Set:
  Basis Set: 6-31G*
  Basis Set:
  @DF-RHF Final Energy:  -266.84388008099916
    Total Energy =                       -266.8438800809991562
  Basis Set: 6-31G*
  Basis Set:
  Charge       = 0
  Multiplicity = 1
  Basis Set: 6-31G*
  Basis Set:

    Orbital Energies (a.u.)
    -----------------------

    Doubly Occupied:

       1A    -20.611952     2A    -20.553740     3A    -11.382146
       4A    -11.243963     5A    -11.220305     6A     -1.473865
       7A     -1.367360     8A     -1.064961     9A     -0.916477
      10A     -0.801553    11A     -0.702610    12A     -0.689437
      13A     -0.661277    14A     -0.601518    15A     -0.586243
      16A     -0.530887    17A     -0.525881    18A     -0.505275
      19A     -0.480617    20A     -0.445807

  @DF-RHF Final Energy:  -266.84388089383117

   => Energetics <=

    Nuclear Repulsion Energy =            179.6991817867187535
    One-Electron Energy =                -720.3543757234571103
    Two-Electron Energy =                 273.8113130429071589
    DFT Exchange-Correlation Energy =       0.0000000000000000
    Empirical Dispersion Energy =           0.0000000000000000
    PCM Polarization Energy =               0.0000000000000000
    EFP Energy =                            0.0000000000000000
    Total Energy =                       -266.8438808938311695
    Molecular point group: c1
  Basis Set: 6-31G*
  Basis Set:

  -Total Gradient:
     Atom            X                  Y                   Z
    ------   -----------------  -----------------  -----------------
       1       -0.001028383398    -0.002307601003    -0.006979039506
       2        0.001082781791     0.002917912827     0.011752159905
       3        0.000307036693    -0.000780963532    -0.011553226810
       4        0.000014778038    -0.000005703210     0.000024939473
       5       -0.000380122389     0.000169416192     0.006740203679
       6       -0.000001118810    -0.000003663331    -0.000009251931
       7        0.000014699386    -0.000012633746     0.000007974900
       8       -0.000007211912     0.000019641710     0.000012790340
       9       -0.000001822231     0.000001045818     0.000000376426
      10       -0.000000515819     0.000001425377     0.000000975657
      11       -0.000000121354     0.000001122897     0.000002097866

  **** Optimization is complete! (in 9 steps) ****
    Final optimized geometry and variables:
    Molecular point group: c1

    Geometry (in Angstrom), charge = 0, multiplicity = 1:

    H            2.335781891264    -0.157893644233    -0.218877503894
    O            1.588405051686    -0.675606509967     0.062646632106
    C            0.489777073824     0.078892242843    -0.024396522074
    C           -0.762952798455    -0.758411003315    -0.002448955653
    O            0.534934997697     1.264382708750    -0.058100849104
    C           -2.038325603883     0.073948935986     0.030826231956
    H           -0.733803295979    -1.403985102345    -0.875627202653
    H           -0.695878269764    -1.419221770775     0.856470732809
    H           -2.103883664709     0.721056689264    -0.835175945824
    H           -2.907398576464    -0.574844145674     0.040105806741
    H           -2.071115217212     0.700998590900     0.913561079140

  Mulliken Charges: (a.u.)
   Center  Symbol    Alpha    Beta     Spin     Total
       1     H     0.26735  0.26735  0.00000  0.46530
       2     O     4.35201  4.35201  0.00000 -0.70401
       3     C     2.62632  2.62632  0.00000  0.74735
       4     C     3.20821  3.20821  0.00000 -0.41642
       5     O     4.27504  4.27504  0.00000 -0.55008
       6     C     3.23956  3.23956  0.00000 -0.47912
       7     H     0.39941  0.39941  0.00000  0.20118
       8     H     0.39730  0.39730  0.00000  0.20541
       9     H     0.40888  0.40888  0.00000  0.18224
      10     H     0.41672  0.41672  0.00000  0.16657
      11     H     0.40921  0.40921  0.00000  0.18158

   Total alpha = 20.00000, Total beta = 20.00000, Total charge =  0.00000
