  ==> Input File <==

--------------------------------------------------------------------------
set {
	reference rhf
	basis 6-31G*
}

set_num_threads( 4 )
memory 2 gb

molecule MOL {
0 1

H	 0.960631	 2.461740	 -0.610078
O	 1.255120	 1.918537	 0.108295
C	 0.709265	 0.639550	 -0.033818
C	 -0.793441	 0.596080	 0.058728
H	 1.140408	 0.037111	 0.757628
H	 1.022358	 0.187479	 -0.974366
C	 -1.530462	 -0.493172	 -0.025500
H	 -1.268471	 1.554324	 0.202247
H	 -1.092586	 -1.461565	 -0.186463
H	 -2.602122	 -0.450675	 0.050101

	symmetry c1
}
set optking {
	frozen_dihedral = ("
		5 3 4 7
	")
}

ee = optimize('scf')
oeprop('DIPOLE', 'QUADRUPOLE', 'MULLIKEN_CHARGES')
f=open( 'psi4out.xyz', 'w' )
f.write( "10  " )
f.write( str(ee) + "\n" )
f.write( MOL.save_string_xyz() )
f.close()
--------------------------------------------------------------------------

    Molecular point group: c1
  Charge       = 0
  Multiplicity = 1
  Basis Set: 6-31G*
  Basis Set:
  @DF-RHF Final Energy:  -191.91289734954984
    Total Energy =                       -191.9128973495498087
    Molecular point group: c1
  Basis Set: 6-31G*
  Basis Set:
  Basis Set: 6-31G*
  Basis Set:
  @DF-RHF Final Energy:  -191.91318570902823
    Total Energy =                       -191.9131857090281983
  Basis Set: 6-31G*
  Basis Set:
  Basis Set: 6-31G*
  Basis Set:
  @DF-RHF Final Energy:  -191.91322817966378
    Total Energy =                       -191.9132281796636335
  Basis Set: 6-31G*
  Basis Set:
  Basis Set: 6-31G*
  Basis Set:
  @DF-RHF Final Energy:  -191.91323178928221
    Total Energy =                       -191.9132317892822073
  Basis Set: 6-31G*
  Basis Set:
  Charge       = 0
  Multiplicity = 1
  Basis Set: 6-31G*
  Basis Set:

    Orbital Energies (a.u.)
    -----------------------

    Doubly Occupied:

       1A    -20.560189     2A    -11.277537     3A    -11.230681
       4A    -11.220772     5A     -1.368035     6A     -1.060431
       7A     -0.919698     8A     -0.775866     9A     -0.699819
      10A     -0.634300    11A     -0.622285    12A     -0.584277
      13A     -0.524421    14A     -0.502366    15A     -0.445428
      16A     -0.363445

  @DF-RHF Final Energy:  -191.91323201184119

   => Energetics <=

    Nuclear Repulsion Energy =            116.8472775241972670
    One-Electron Energy =                -491.9419172882185762
    Two-Electron Energy =                 183.1814077521801778
    DFT Exchange-Correlation Energy =       0.0000000000000000
    Empirical Dispersion Energy =           0.0000000000000000
    PCM Polarization Energy =               0.0000000000000000
    EFP Energy =                            0.0000000000000000
    Total Energy =                       -191.9132320118411030
    Molecular point group: c1
  Basis Set: 6-31G*
  Basis Set:

  -Total Gradient:
     Atom            X                  Y                   Z
    ------   -----------------  -----------------  -----------------
       1       -0.000002520149     0.000001833259    -0.000005136808
       2       -0.000008367478    -0.000017116943    -0.000005847280
       3        0.000071443070     0.001266267938     0.001633923647
       4       -0.000125401805    -0.000061258532    -0.002077024510
       5       -0.000027202128    -0.001079282619    -0.000796776784
       6       -0.000006760041     0.000012529402    -0.000002201210
       7        0.000117141791    -0.000122278116     0.001257555273
       8       -0.000003710879     0.000001225440    -0.000000338338
       9       -0.000011119968     0.000002163966    -0.000001485705
      10       -0.000003502416    -0.000004083795    -0.000002668284

  **** Optimization is complete! (in 5 steps) ****
    Final optimized geometry and variables:
    Molecular point group: c1

    Geometry (in Angstrom), charge = 0, multiplicity = 1:

    H            1.035591233367     1.726080985613    -0.655561608194
    O            1.254691234322     1.204890860481     0.104239782188
    C            0.739268308013    -0.089151308800    -0.052739115706
    C           -0.771355387549    -0.127521913760     0.035172512343
    H            1.174716055010    -0.686366723126     0.737695599816
    H            1.071658972224    -0.522081459114    -0.994099022041
    C           -1.505239264968    -1.218604092804    -0.048163595821
    H           -1.244689278897     0.825673808159     0.208064978564
    H           -1.069234859169    -2.191611409022    -0.205995873001
    H           -2.576221103293    -1.184586418459     0.038173157607

  Mulliken Charges: (a.u.)
   Center  Symbol    Alpha    Beta     Spin     Total
       1     H     0.28143  0.28143  0.00000  0.43714
       2     O     4.37010  4.37010  0.00000 -0.74019
       3     C     3.00319  3.00319  0.00000 -0.00638
       4     C     3.09262  3.09262  0.00000 -0.18525
       5     H     0.40547  0.40547  0.00000  0.18907
       6     H     0.42158  0.42158  0.00000  0.15685
       7     C     3.19800  3.19800  0.00000 -0.39601
       8     H     0.40429  0.40429  0.00000  0.19142
       9     H     0.41421  0.41421  0.00000  0.17158
      10     H     0.40911  0.40911  0.00000  0.18177

   Total alpha = 16.00000, Total beta = 16.00000, Total charge =  0.00000
