  ==> Input File <==

--------------------------------------------------------------------------
set {
	reference rhf
	basis 6-31G*
}

set_num_threads( 1 )
memory 2 gb

molecule MOL {
0 1

H	 3.463771	 0.168298	 -0.756243
C	 2.752674	 -0.045734	 0.033351
C	 1.322923	 0.120767	 -0.479465
H	 2.934561	 -1.059086	 0.377456
H	 2.958358	 0.631174	 0.856809
C	 0.306652	 -0.176050	 0.621399
H	 1.144658	 -0.551717	 -1.312180
H	 1.166477	 1.131798	 -0.836680
N	 -1.068537	 -0.011044	 0.085269
H	 0.372515	 -1.192590	 0.973735
H	 0.391664	 0.520566	 1.441230
O	 -1.877254	 0.505694	 0.792611
O	 -1.277322	 -0.438128	 -1.009278

	symmetry c1
}
set optking {
	frozen_dihedral = ("
		7 3 6 9
	")
}

ee = energy('scf')
oeprop('DIPOLE', 'QUADRUPOLE', 'MULLIKEN_CHARGES')
f=open( 'psi4out.xyz', 'w' )
f.write( "13  " )
f.write( str(ee) + "\n" )
f.write( MOL.save_string_xyz() )
f.close()
--------------------------------------------------------------------------

    Molecular point group: c1

    Geometry (in Angstrom), charge = 0, multiplicity = 1:

       Center              X                  Y                   Z               Mass
    ------------   -----------------  -----------------  -----------------  -----------------
           H          3.467181573347     0.175490208758    -0.762776890373     1.007825032070
           C          2.756084573347    -0.038541791242     0.026817109627    12.000000000000
           C          1.326333573347     0.127959208758    -0.485998890373    12.000000000000
           H          2.937971573347    -1.051893791242     0.370922109627     1.007825032070
           H          2.961768573347     0.638366208758     0.850275109627     1.007825032070
           C          0.310062573347    -0.168857791242     0.614865109627    12.000000000000
           H          1.148068573347    -0.544524791242    -1.318713890373     1.007825032070
           H          1.169887573347     1.138990208758    -0.843213890373     1.007825032070
           N         -1.065126426653    -0.003851791242     0.078735109627    14.003074004780
           H          0.375925573347    -1.185397791242     0.967201109627     1.007825032070
           H          0.395074573347     0.527758208758     1.434696109627     1.007825032070
           O         -1.873843426653     0.512886208758     0.786077109627    15.994914619560
           O         -1.273911426653    -0.430935791242    -1.015811890373    15.994914619560

  Charge       = 0
  Multiplicity = 1
  Basis Set: 6-31G*
  Basis Set:

    Orbital Energies (a.u.)
    -----------------------

    Doubly Occupied:

       1A    -20.602966     2A    -20.600814     3A    -15.848248
       4A    -11.299873     5A    -11.250414     6A    -11.236727
       7A     -1.631827     8A     -1.417583     9A     -1.134120
      10A     -1.026650    11A     -0.882912    12A     -0.828174
      13A     -0.761520    14A     -0.743042    15A     -0.725517
      16A     -0.663551    17A     -0.604505    18A     -0.583268
      19A     -0.549821    20A     -0.520526    21A     -0.510554
      22A     -0.484284    23A     -0.473144    24A     -0.449635

  @DF-RHF Final Energy:  -321.73455637566207

   => Energetics <=

    Nuclear Repulsion Energy =            247.8500559941203960
    One-Electron Energy =                -929.5098231162571665
    Two-Electron Energy =                 359.9252107464745905
    DFT Exchange-Correlation Energy =       0.0000000000000000
    Empirical Dispersion Energy =           0.0000000000000000
    PCM Polarization Energy =               0.0000000000000000
    EFP Energy =                            0.0000000000000000
    Total Energy =                       -321.7345563756622369

  Mulliken Charges: (a.u.)
   Center  Symbol    Alpha    Beta     Spin     Total
       1     H     0.40797  0.40797  0.00000  0.18406
       2     C     3.24849  3.24849  0.00000 -0.49698
       3     C     3.17111  3.17111  0.00000 -0.34222
       4     H     0.41623  0.41623  0.00000  0.16754
       5     H     0.41675  0.41675  0.00000  0.16649
       6     C     3.08950  3.08950  0.00000 -0.17899
       7     H     0.39295  0.39295  0.00000  0.21410
       8     H     0.40625  0.40625  0.00000  0.18749
       9     N     3.22148  3.22148  0.00000  0.55703
      10     H     0.38534  0.38534  0.00000  0.22932
      11     H     0.38633  0.38633  0.00000  0.22733
      12     O     4.22861  4.22861  0.00000 -0.45723
      13     O     4.22897  4.22897  0.00000 -0.45794

   Total alpha = 24.00000, Total beta = 24.00000, Total charge = -0.00000
