  ==> Input File <==

--------------------------------------------------------------------------
set {
	reference rhf
	basis 6-31G*
}

set_num_threads( 4 )
memory 2 gb

molecule MOL {
0 1

H	 2.990738	 -0.997854	 -0.723113
N	 3.092854	 -0.246221	 -0.068770
C	 1.865559	 0.531981	 0.018834
H	 3.847669	 0.324625	 -0.399253
C	 0.645745	 -0.382037	 -0.029944
H	 1.841966	 1.207024	 -0.831236
H	 1.815756	 1.155410	 0.915079
C	 -0.679275	 0.379305	 0.025956
H	 0.698998	 -0.976915	 -0.937203
H	 0.693479	 -1.083846	 0.802235
C	 -1.903357	 -0.536963	 -0.023547
H	 -0.726309	 1.082987	 -0.803784
H	 -0.717680	 0.977832	 0.934877
C	 -3.225172	 0.228290	 0.028445
H	 -1.867824	 -1.134999	 -0.931459
H	 -1.860449	 -1.239604	 0.805977
H	 -3.313397	 0.915643	 -0.808262
H	 -4.073500	 -0.448134	 -0.008893
H	 -3.306061	 0.809945	 0.942516

	symmetry c1
}
set optking {
	frozen_dihedral = ("
		1 2 3 6
	")
}

ee = optimize('scf')
oeprop('DIPOLE', 'QUADRUPOLE', 'MULLIKEN_CHARGES')
f=open( 'psi4out.xyz', 'w' )
f.write( "19  " )
f.write( str(ee) + "\n" )
f.write( MOL.save_string_xyz() )
f.close()
--------------------------------------------------------------------------

    Molecular point group: c1
  Charge       = 0
  Multiplicity = 1
  Basis Set: 6-31G*
  Basis Set:
  @DF-RHF Final Energy:  -251.34823365211281
    Total Energy =                       -251.3482336521126967
    Molecular point group: c1
  Basis Set: 6-31G*
  Basis Set:
  Basis Set: 6-31G*
  Basis Set:
  @DF-RHF Final Energy:  -251.35028764332012
    Total Energy =                       -251.3502876433200299
  Basis Set: 6-31G*
  Basis Set:
  Basis Set: 6-31G*
  Basis Set:
  @DF-RHF Final Energy:  -251.35054489684742
    Total Energy =                       -251.3505448968474525
  Basis Set: 6-31G*
  Basis Set:
  Basis Set: 6-31G*
  Basis Set:
  @DF-RHF Final Energy:  -251.35054940861755
    Total Energy =                       -251.3505494086177805
  Basis Set: 6-31G*
  Basis Set:
  Charge       = 0
  Multiplicity = 1
  Basis Set: 6-31G*
  Basis Set:

    Orbital Energies (a.u.)
    -----------------------

    Doubly Occupied:

       1A    -15.530138     2A    -11.239102     3A    -11.215397
       4A    -11.214555     5A    -11.213307     6A    -11.208482
       7A     -1.175052     8A     -1.074434     9A     -0.999512
      10A     -0.900755    11A     -0.815312    12A     -0.791870
      13A     -0.657079    14A     -0.649442    15A     -0.615131
      16A     -0.593401    17A     -0.564351    18A     -0.545259
      19A     -0.536925    20A     -0.497468    21A     -0.484739
      22A     -0.466855    23A     -0.463098    24A     -0.449430
      25A     -0.377275

  @DF-RHF Final Energy:  -251.35054976038347

   => Energetics <=

    Nuclear Repulsion Energy =            245.7730179417589227
    One-Electron Energy =                -825.6903974056251627
    Two-Electron Energy =                 328.5668297034827674
    DFT Exchange-Correlation Energy =       0.0000000000000000
    Empirical Dispersion Energy =           0.0000000000000000
    PCM Polarization Energy =               0.0000000000000000
    EFP Energy =                            0.0000000000000000
    Total Energy =                       -251.3505497603835011
    Molecular point group: c1
  Basis Set: 6-31G*
  Basis Set:

  -Total Gradient:
     Atom            X                  Y                   Z
    ------   -----------------  -----------------  -----------------
       1       -0.001191970768    -0.001777965580     0.002214885493
       2        0.001837597755     0.002823878134    -0.002275033690
       3       -0.001956471504    -0.003095455099    -0.001653728224
       4       -0.000022768984    -0.000005681239    -0.000000806692
       5        0.000103866284     0.000048589028    -0.000003090670
       6        0.001250923371     0.001993462575     0.001615129327
       7       -0.000020818710    -0.000028429442     0.000039778103
       8       -0.000025252532     0.000006424500     0.000028101374
       9        0.000031006700     0.000017654495     0.000027980851
      10        0.000008231403     0.000031368385     0.000001741139
      11       -0.000016610468     0.000007063972    -0.000005157216
      12        0.000015424206    -0.000003226252     0.000016630642
      13       -0.000000602450    -0.000014420011     0.000010978426
      14       -0.000008832187    -0.000006505875    -0.000017311833
      15        0.000008094697    -0.000010688663     0.000002468527
      16       -0.000008319192     0.000011603058     0.000005146013
      17       -0.000004004705     0.000002921129    -0.000002788788
      18       -0.000004223067     0.000002519604    -0.000003281790
      19        0.000004730148    -0.000003112718    -0.000001640991

  **** Optimization is complete! (in 5 steps) ****
    Final optimized geometry and variables:
    Molecular point group: c1

    Geometry (in Angstrom), charge = 0, multiplicity = 1:

    H            3.051818254343    -0.999161461480    -0.659375845393
    N            3.097052448369    -0.243632070836    -0.003818624445
    C            1.866056257717     0.533365900058    -0.014905117735
    H            3.891768492802     0.318202766124    -0.235585915186
    C            0.646374461907    -0.379964967373    -0.038630556988
    H            1.817128284352     1.242944817376    -0.844060654864
    H            1.842672254636     1.131943188403     0.891831057188
    C           -0.677497289748     0.381796594117     0.035446231576
    H            0.666272664814    -0.979055014394    -0.948717735001
    H            0.721781557459    -1.075983865120     0.792718066410
    C           -1.902205704760    -0.534380627314     0.001859298209
    H           -0.736576490124     1.088321652106    -0.790888573454
    H           -0.700364874739     0.976089241656     0.947175069762
    C           -3.222741560125     0.231339314555     0.074833462584
    H           -1.880873627402    -1.130576723545    -0.907961032263
    H           -1.846962389857    -1.238479652358     0.829140981870
    H           -3.323311977031     0.920299912511    -0.759172440889
    H           -4.071712886763    -0.444814205628     0.049067277390
    H           -3.289539679087     0.811134404671     0.991107386506

  Mulliken Charges: (a.u.)
   Center  Symbol    Alpha    Beta     Spin     Total
       1     H     0.33457  0.33457  0.00000  0.33086
       2     N     3.92692  3.92692  0.00000 -0.85384
       3     C     3.05138  3.05138  0.00000 -0.10276
       4     H     0.33204  0.33204  0.00000  0.33593
       5     C     3.16029  3.16029  0.00000 -0.32058
       6     H     0.43477  0.43477  0.00000  0.13047
       7     H     0.42087  0.42087  0.00000  0.15826
       8     C     3.15401  3.15401  0.00000 -0.30803
       9     H     0.42741  0.42741  0.00000  0.14518
      10     H     0.41303  0.41303  0.00000  0.17393
      11     C     3.15123  3.15123  0.00000 -0.30247
      12     H     0.42404  0.42404  0.00000  0.15193
      13     H     0.42220  0.42220  0.00000  0.15560
      14     C     3.23943  3.23943  0.00000 -0.47887
      15     H     0.42331  0.42331  0.00000  0.15338
      16     H     0.42183  0.42183  0.00000  0.15635
      17     H     0.42204  0.42204  0.00000  0.15593
      18     H     0.41917  0.41917  0.00000  0.16165
      19     H     0.42146  0.42146  0.00000  0.15708

   Total alpha = 25.00000, Total beta = 25.00000, Total charge = -0.00000
