  ==> Input File <==

--------------------------------------------------------------------------
set {
	reference rhf
	basis cc-pvtz
}

set_num_threads( 4 )
memory 2 gb

molecule MOL {
0 1

O	 1.847685	 1.294399	 -0.000190
C	 1.704209	 0.119472	 -0.000093
C	 0.380337	 -0.600947	 -0.000234
O	 2.715427	 -0.733672	 0.000025
C	 -0.824290	 0.329213	 -0.000115
H	 0.371455	 -1.255476	 -0.865660
H	 0.371410	 -1.255787	 0.864952
C	 -2.146151	 -0.432825	 -0.000068
H	 -0.773936	 0.979158	 -0.866319
H	 -0.773838	 0.979034	 0.866186
C	 -3.366283	 0.483552	 0.000557
H	 -2.189286	 -1.084450	 -0.869996
H	 -2.188867	 -1.085083	 0.869399
C	 -4.319753	 0.212347	 -1.158216
H	 -3.036903	 1.518047	 -0.038006
H	 -3.899135	 0.369353	 0.940338
H	 -3.824906	 0.352152	 -2.113629
H	 -5.173601	 0.879256	 -1.128053
H	 -4.694268	 -0.805503	 -1.127332
C	 4.020999	 -0.192556	 0.000019
H	 4.182809	 0.412891	 -0.879449
H	 4.692590	 -1.035653	 0.000152
H	 4.182726	 0.413087	 0.879368

	symmetry c1
}
set optking {
	frozen_dihedral = ("
		15 11 8 12
	")
}

ee = optimize('scf')
oeprop('DIPOLE', 'QUADRUPOLE', 'MULLIKEN_CHARGES')
f=open( 'psi4out.xyz', 'w' )
f.write( "23  " )
f.write( str(ee) + "\n" )
f.write( MOL.save_string_xyz() )
f.close()
--------------------------------------------------------------------------

    Molecular point group: c1
  Charge       = 0
  Multiplicity = 1
  Basis Set: CC-PVTZ
  Basis Set:
  @DF-RHF Final Energy:  -423.12531555014914
    Total Energy =                       -423.1253155501492529
    Molecular point group: c1
  Basis Set: CC-PVTZ
  Basis Set:
  Basis Set: CC-PVTZ
  Basis Set:
  @DF-RHF Final Energy:  -423.12554776423804
    Total Energy =                       -423.1255477642378082
  Basis Set: CC-PVTZ
  Basis Set:
  Basis Set: CC-PVTZ
  Basis Set:
  @DF-RHF Final Energy:  -423.12561027619074
    Total Energy =                       -423.1256102761906277
  Basis Set: CC-PVTZ
  Basis Set:
  Charge       = 0
  Multiplicity = 1
  Basis Set: CC-PVTZ
  Basis Set:

    Orbital Energies (a.u.)
    -----------------------

    Doubly Occupied:

       1A    -20.596317     2A    -20.534125     3A    -11.364620
       4A    -11.278489     5A    -11.233610     6A    -11.217737
       7A    -11.215542     8A    -11.214206     9A    -11.208048
      10A     -1.472215    11A     -1.365786    12A     -1.093065
      13A     -1.043146    14A     -0.987899    15A     -0.932327
      16A     -0.845984    17A     -0.795032    18A     -0.769583
      19A     -0.699059    20A     -0.686593    21A     -0.675773
      22A     -0.645636    23A     -0.612969    24A     -0.599979
      25A     -0.579267    26A     -0.566425    27A     -0.545164
      28A     -0.527305    29A     -0.523235    30A     -0.504085
      31A     -0.493829    32A     -0.469536    33A     -0.462688
      34A     -0.461089    35A     -0.455892    36A     -0.438174

  @DF-RHF Final Energy:  -423.12561015096583

   => Energetics <=

    Nuclear Repulsion Energy =            453.7434535315430821
    One-Electron Energy =               -1475.5092708995662178
    Two-Electron Energy =                 598.6402072170574229
    DFT Exchange-Correlation Energy =       0.0000000000000000
    Empirical Dispersion Energy =           0.0000000000000000
    PCM Polarization Energy =               0.0000000000000000
    EFP Energy =                            0.0000000000000000
    Total Energy =                       -423.1256101509657128
    Molecular point group: c1
  Basis Set: CC-PVTZ
  Basis Set:

  -Total Gradient:
     Atom            X                  Y                   Z
    ------   -----------------  -----------------  -----------------
       1        0.000011127455    -0.000012002139     0.000169847325
       2       -0.000003074489    -0.000016192330    -0.000466178112
       3       -0.000008611295    -0.000007229224     0.000137808889
       4        0.000014002592     0.000020921525     0.000132410027
       5       -0.000003628577    -0.000002926155     0.000014866319
       6        0.000031173243     0.000017813571     0.000006809424
       7       -0.000021804995    -0.000015266127    -0.000000196295
       8        0.000687497875     0.000998987708    -0.000488326076
       9       -0.000013495141    -0.000003956503     0.000005223803
      10       -0.000012362867     0.000002130218    -0.000002795767
      11       -0.000141170983    -0.000249571684    -0.001282398760
      12       -0.000574289217    -0.000778340471     0.000614366197
      13        0.000010802366     0.000007241733     0.000001043306
      14       -0.000018868325     0.000002799758     0.000000342225
      15        0.000023340793     0.000034269704     0.001142743594
      16       -0.000009535401    -0.000003850755    -0.000011654666
      17        0.000009340821     0.000001137357     0.000011366706
      18       -0.000006385598     0.000006089333     0.000003787472
      19        0.000008774734     0.000002132807     0.000003289804
      20        0.000011762678    -0.000006375351     0.000004827636
      21       -0.000004242995    -0.000001233712     0.000000664405
      22        0.000004949441     0.000002572416     0.000002383549
      23        0.000004697891     0.000000848324    -0.000000231006

  **** Optimization is complete! (in 4 steps) ****
    Final optimized geometry and variables:
    Molecular point group: c1

    Geometry (in Angstrom), charge = 0, multiplicity = 1:

    O            1.810811702514     1.236681685713     0.133329192627
    C            1.667512569687     0.061714104680     0.133482558079
    C            0.343678184934    -0.658771067854     0.131996016145
    O            2.678979108317    -0.791165727886     0.138092675426
    C           -0.860705751487     0.271161114650     0.129486232153
    H            0.336029932856    -1.314106566821    -0.732884209599
    H            0.333317941027    -1.312903186444     0.997730857242
    C           -2.183821997024    -0.489905333406     0.125586477218
    H           -0.809871108736     0.921978928139    -0.736295600383
    H           -0.813720259836     0.920860943846     0.996152014952
    C           -3.421146770455     0.430942993935     0.128362200260
    H           -2.219286821627    -1.144706213001    -0.740701028230
    H           -2.216064577416    -1.148393712453     0.988613553320
    C           -4.388768249695     0.158636076365    -1.019023263434
    H           -3.102316936726     1.467371353704     0.088621274528
    H           -3.951651615224     0.325461437766     1.068632336524
    H           -3.903727885435     0.298914618149    -1.979521214959
    H           -5.243724005542     0.823997474123    -0.978899179587
    H           -4.759776114814    -0.860370258011    -0.983576767118
    C            3.984372470473    -0.249782009374     0.141456780899
    H            4.148934623109     0.354404237953    -0.738383582863
    H            4.656219441189    -1.092688562775     0.144976286504
    H            4.143245378340     0.357217473681     1.020405330967

  Mulliken Charges: (a.u.)
   Center  Symbol    Alpha    Beta     Spin     Total
       1     O     4.19696  4.19696  0.00000 -0.39392
       2     C     2.80618  2.80618  0.00000  0.38765
       3     C     3.10279  3.10279  0.00000 -0.20559
       4     O     4.14650  4.14650  0.00000 -0.29301
       5     C     3.08419  3.08419  0.00000 -0.16838
       6     H     0.43981  0.43981  0.00000  0.12038
       7     H     0.44018  0.44018  0.00000  0.11965
       8     C     3.09633  3.09633  0.00000 -0.19265
       9     H     0.44597  0.44597  0.00000  0.10806
      10     H     0.44518  0.44518  0.00000  0.10964
      11     C     3.08912  3.08912  0.00000 -0.17824
      12     H     0.45521  0.45521  0.00000  0.08957
      13     H     0.45123  0.45123  0.00000  0.09753
      14     C     3.14725  3.14725  0.00000 -0.29449
      15     H     0.45161  0.45161  0.00000  0.09677
      16     H     0.45046  0.45046  0.00000  0.09907
      17     H     0.45525  0.45525  0.00000  0.08950
      18     H     0.44912  0.44912  0.00000  0.10176
      19     H     0.45491  0.45491  0.00000  0.09017
      20     C     3.03768  3.03768  0.00000 -0.07537
      21     H     0.45436  0.45436  0.00000  0.09127
      22     H     0.44534  0.44534  0.00000  0.10931
      23     H     0.45434  0.45434  0.00000  0.09131

   Total alpha = 36.00000, Total beta = 36.00000, Total charge = -0.00000
