  ==> Input File <==

--------------------------------------------------------------------------
set {
	reference rhf
	basis 6-31G*
}

set_num_threads( 1 )
memory 2 gb

molecule MOL {
0 1

O	 -0.267241	 -2.316531	 -2.040639
C	 -0.539395	 -1.154785	 -2.013972
C	 -0.889235	 -0.467034	 -0.705952
C	 -0.518874	 -0.305648	 -3.265339
C	 0.379448	 -0.143569	 0.099626
H	 -1.516899	 -1.143635	 -0.136256
H	 -1.453394	 0.442579	 -0.891302
C	 1.631333	 -0.777471	 -0.511575
H	 0.482768	 0.934507	 0.149241
H	 0.263088	 -0.495696	 1.123449
C	 2.915987	 -0.544314	 0.291766
H	 1.766672	 -0.399098	 -1.523130
H	 1.471257	 -1.849544	 -0.605828
C	 3.373361	 0.914346	 0.347591
H	 3.708709	 -1.142521	 -0.150311
H	 2.780642	 -0.921148	 1.303579
H	 3.506512	 1.320010	 -0.651625
H	 4.322697	 0.999599	 0.867103
H	 2.660624	 1.545032	 0.868198
H	 -1.527230	 0.026637	 -3.497866
H	 -0.129437	 -0.878653	 -4.095272
H	 0.085016	 0.584737	 -3.115890

	symmetry c1
}
set optking {
	frozen_dihedral = ("
		6 3 2 1,
		3 5 8 12,
		12 8 11 15
	")
}

ee = energy('scf')
oeprop('DIPOLE', 'QUADRUPOLE', 'MULLIKEN_CHARGES')
f=open( 'psi4out.xyz', 'w' )
f.write( "22  " )
f.write( str(ee) + "\n" )
f.write( MOL.save_string_xyz() )
f.close()
--------------------------------------------------------------------------

    Molecular point group: c1

    Geometry (in Angstrom), charge = 0, multiplicity = 1:

       Center              X                  Y                   Z               Mass
    ------------   -----------------  -----------------  -----------------  -----------------
           O         -1.042903223352    -1.722520449298    -1.057583237591    15.994914619560
           C         -1.315057223352    -0.560774449298    -1.030916237591    12.000000000000
           C         -1.664897223352     0.126976550702     0.277103762409    12.000000000000
           C         -1.294536223352     0.288362550702    -2.282283237591    12.000000000000
           C         -0.396214223352     0.450441550702     1.082681762409    12.000000000000
           H         -2.292561223352    -0.549624449298     0.846799762409     1.007825032070
           H         -2.229056223352     1.036589550702     0.091753762409     1.007825032070
           C          0.855670776648    -0.183460449298     0.471480762409    12.000000000000
           H         -0.292894223352     1.528517550702     1.132296762409     1.007825032070
           H         -0.512574223352     0.098314550702     2.106504762409     1.007825032070
           C          2.140324776648     0.049696550702     1.274821762409    12.000000000000
           H          0.991009776648     0.194912550702    -0.540074237591     1.007825032070
           H          0.695594776648    -1.255533449298     0.377227762409     1.007825032070
           C          2.597698776648     1.508356550702     1.330646762409    12.000000000000
           H          2.933046776648    -0.548510449298     0.832744762409     1.007825032070
           H          2.004979776648    -0.327137449298     2.286634762409     1.007825032070
           H          2.730849776648     1.914020550702     0.331430762409     1.007825032070
           H          3.547034776648     1.593609550702     1.850158762409     1.007825032070
           H          1.884961776648     2.139042550702     1.851253762409     1.007825032070
           H         -2.302892223352     0.620647550702    -2.514810237591     1.007825032070
           H         -0.905099223352    -0.284642449298    -3.112216237591     1.007825032070
           H         -0.690646223352     1.178747550702    -2.132834237591     1.007825032070

  Charge       = 0
  Multiplicity = 1
  Basis Set: 6-31G*
  Basis Set:

    Orbital Energies (a.u.)
    -----------------------

    Doubly Occupied:

       1A    -20.545948     2A    -11.324680     3A    -11.228500
       4A    -11.228051     5A    -11.227112     6A    -11.215348
       7A    -11.212896     8A    -11.209547     9A     -1.394324
      10A     -1.094560    11A     -1.041154    12A     -0.998687
      13A     -0.935411    14A     -0.856752    15A     -0.790907
      16A     -0.724100    17A     -0.660426    18A     -0.640396
      19A     -0.628377    20A     -0.619478    21A     -0.598400
      22A     -0.579075    23A     -0.566315    24A     -0.543450
      25A     -0.533751    26A     -0.523140    27A     -0.497048
      28A     -0.479936    29A     -0.463315    30A     -0.456923
      31A     -0.453255    32A     -0.395734

  @DF-RHF Final Energy:  -348.08495414476965

   => Energetics <=

    Nuclear Repulsion Energy =            388.2921220600289871
    One-Electron Energy =               -1241.4201928394643346
    Two-Electron Energy =                 505.0431166346655800
    DFT Exchange-Correlation Energy =       0.0000000000000000
    Empirical Dispersion Energy =           0.0000000000000000
    PCM Polarization Energy =               0.0000000000000000
    EFP Energy =                            0.0000000000000000
    Total Energy =                       -348.0849541447697675

  Mulliken Charges: (a.u.)
   Center  Symbol    Alpha    Beta     Spin     Total
       1     O     4.26451  4.26451  0.00000 -0.52903
       2     C     2.74013  2.74013  0.00000  0.51973
       3     C     3.19892  3.19892  0.00000 -0.39784
       4     C     3.28801  3.28801  0.00000 -0.57602
       5     C     3.15939  3.15939  0.00000 -0.31877
       6     H     0.39914  0.39914  0.00000  0.20172
       7     H     0.41437  0.41437  0.00000  0.17125
       8     C     3.17470  3.17470  0.00000 -0.34940
       9     H     0.41619  0.41619  0.00000  0.16763
      10     H     0.41345  0.41345  0.00000  0.17310
      11     C     3.15093  3.15093  0.00000 -0.30186
      12     H     0.42589  0.42589  0.00000  0.14822
      13     H     0.39367  0.39367  0.00000  0.21266
      14     C     3.24154  3.24154  0.00000 -0.48309
      15     H     0.41869  0.41869  0.00000  0.16262
      16     H     0.42277  0.42277  0.00000  0.15446
      17     H     0.42331  0.42331  0.00000  0.15338
      18     H     0.41852  0.41852  0.00000  0.16295
      19     H     0.42170  0.42170  0.00000  0.15661
      20     H     0.40668  0.40668  0.00000  0.18664
      21     H     0.39726  0.39726  0.00000  0.20547
      22     H     0.41022  0.41022  0.00000  0.17955

   Total alpha = 32.00000, Total beta = 32.00000, Total charge =  0.00000
