  ==> Input File <==

--------------------------------------------------------------------------
set {
	reference rhf
	basis 6-31G*
}

set_num_threads( 4 )
memory 2 gb

molecule MOL {
0 1

H	 -3.892951	 0.981613	 -0.358725
C	 -3.196921	 0.361773	 0.172313
C	 -2.076860	 -0.007332	 -0.404944
H	 -3.439953	 0.057760	 1.173024
O	 -1.933802	 -1.227961	 -0.984996
H	 -1.217375	 0.636226	 -0.470630
C	 -0.671539	 -1.606878	 -1.415071
C	 0.127673	 -2.251135	 -0.304897
H	 -0.099448	 -0.770793	 -1.801552
H	 -0.796681	 -2.337912	 -2.200191
F	 1.308521	 -2.627969	 -0.773299
F	 0.341572	 -1.413005	 0.695910
F	 -0.473620	 -3.315836	 0.184234

	symmetry c1
}
set optking {
	frozen_dihedral = ("
		6 3 2 1
	")
}

ee = optimize('scf')
oeprop('DIPOLE', 'QUADRUPOLE', 'MULLIKEN_CHARGES')
f=open( 'psi4out.xyz', 'w' )
f.write( "13  " )
f.write( str(ee) + "\n" )
f.write( MOL.save_string_xyz() )
f.close()
--------------------------------------------------------------------------

    Molecular point group: c1
  Charge       = 0
  Multiplicity = 1
  Basis Set: 6-31G*
  Basis Set:
  @DF-RHF Final Energy:  -527.40584953846610
    Total Energy =                       -527.4058495384662137
    Molecular point group: c1
  Basis Set: 6-31G*
  Basis Set:
  Basis Set: 6-31G*
  Basis Set:
  @DF-RHF Final Energy:  -527.44074193780330
    Total Energy =                       -527.4407419378032955
  Basis Set: 6-31G*
  Basis Set:
  Basis Set: 6-31G*
  Basis Set:
  @DF-RHF Final Energy:  -527.47922156615959
    Total Energy =                       -527.4792215661593673
  Basis Set: 6-31G*
  Basis Set:
  Basis Set: 6-31G*
  Basis Set:
  @DF-RHF Final Energy:  -527.48985287935557
    Total Energy =                       -527.4898528793555670
  Basis Set: 6-31G*
  Basis Set:
  @DF-RHF Final Energy:  -527.49057390930261
    Total Energy =                       -527.4905739093023840
  Basis Set: 6-31G*
  Basis Set:
  @DF-RHF Final Energy:  -527.49063123825874
    Total Energy =                       -527.4906312382588567
  Basis Set: 6-31G*
  Basis Set:
  Basis Set: 6-31G*
  Basis Set:
  @DF-RHF Final Energy:  -527.49073136528364
    Total Energy =                       -527.4907313652832954
  Basis Set: 6-31G*
  Basis Set:
  Basis Set: 6-31G*
  Basis Set:
  @DF-RHF Final Energy:  -527.49073575591979
    Total Energy =                       -527.4907357559194452
  Basis Set: 6-31G*
  Basis Set:
  Charge       = 0
  Multiplicity = 1
  Basis Set: 6-31G*
  Basis Set:

    Orbital Energies (a.u.)
    -----------------------

    Doubly Occupied:

       1A    -26.345220     2A    -26.344480     3A    -26.341386
       4A    -20.608753     5A    -11.504003     6A    -11.318506
       7A    -11.312972     8A    -11.219938     9A     -1.742470
      10A     -1.640531    11A     -1.639102    12A     -1.437911
      13A     -1.085458    14A     -1.013705    15A     -0.924474
      16A     -0.839983    17A     -0.831688    18A     -0.824108
      19A     -0.794966    20A     -0.720621    21A     -0.711794
      22A     -0.693300    23A     -0.674903    24A     -0.660665
      25A     -0.654919    26A     -0.643838    27A     -0.638149
      28A     -0.582495    29A     -0.555372    30A     -0.517120
      31A     -0.502454    32A     -0.346294

  @DF-RHF Final Energy:  -527.49073581419680

   => Energetics <=

    Nuclear Repulsion Energy =            415.4885560703881424
    One-Electron Energy =               -1554.6154251205989567
    Two-Electron Energy =                 611.6361332360143024
    DFT Exchange-Correlation Energy =       0.0000000000000000
    Empirical Dispersion Energy =           0.0000000000000000
    PCM Polarization Energy =               0.0000000000000000
    EFP Energy =                            0.0000000000000000
    Total Energy =                       -527.4907358141965688
    Molecular point group: c1
  Basis Set: 6-31G*
  Basis Set:

  -Total Gradient:
     Atom            X                  Y                   Z
    ------   -----------------  -----------------  -----------------
       1       -0.024061841997    -0.020013051664    -0.019456322512
       2        0.042611670780     0.016599177401     0.039012996683
       3       -0.033456092254     0.030109857922    -0.041177788636
       4       -0.000073530582     0.000047027802    -0.000104621945
       5        0.000260519854     0.000006406865     0.000125642940
       6        0.014727745935    -0.026784246261     0.021593558165
       7        0.000015729086     0.000030034746     0.000040777342
       8        0.000057095540    -0.000045303765    -0.000021795397
       9       -0.000000420603     0.000008128115    -0.000008073687
      10       -0.000021010262     0.000011730973     0.000015351724
      11        0.000047025603    -0.000000967152    -0.000024832594
      12       -0.000070395797    -0.000001376290    -0.000022814966
      13       -0.000036495301     0.000032581307     0.000027922890

  **** Optimization is complete! (in 9 steps) ****
    Final optimized geometry and variables:
    Molecular point group: c1

    Geometry (in Angstrom), charge = 0, multiplicity = 1:

    H           -2.998804506885     2.712223233213     0.598285573747
    C           -2.311299080678     1.883982428312     0.599217955996
    C           -1.373880181636     1.654038255070    -0.325578559152
    H           -2.874938084737     0.986449123527     0.819738741253
    O           -1.241694702487     0.357906544900    -0.747987801097
    H           -0.409884018052     2.133424515206    -0.389830179047
    C            0.011386856858    -0.102953166734    -1.124426925626
    C            0.796894503601    -0.626712766434     0.056535660976
    H            0.604146957217     0.666949639796    -1.606958391402
    H           -0.132134097369    -0.919351322052    -1.816533075791
    F            1.960081917444    -1.103059897321    -0.362432492782
    F            1.048254865985     0.327588048513     0.937836376493
    F            0.162491031710    -1.595690484277     0.683073671295

  Mulliken Charges: (a.u.)
   Center  Symbol    Alpha    Beta     Spin     Total
       1     H     0.40193  0.40193  0.00000  0.19613
       2     C     3.23007  3.23007  0.00000 -0.46015
       3     C     2.90424  2.90424  0.00000  0.19152
       4     H     0.40777  0.40777  0.00000  0.18447
       5     O     4.29573  4.29573  0.00000 -0.59146
       6     H     0.40603  0.40603  0.00000  0.18795
       7     C     3.06574  3.06574  0.00000 -0.13147
       8     C     2.45562  2.45562  0.00000  1.08875
       9     H     0.40589  0.40589  0.00000  0.18823
      10     H     0.39070  0.39070  0.00000  0.21860
      11     F     4.68258  4.68258  0.00000 -0.36517
      12     F     4.67943  4.67943  0.00000 -0.35886
      13     F     4.67427  4.67427  0.00000 -0.34853

   Total alpha = 32.00000, Total beta = 32.00000, Total charge =  0.00000
