                              Psi4 1.0.54 Driver

  ==> Input File <==

--------------------------------------------------------------------------
set {
	reference rhf
	basis cc-pvtz
}

set_num_threads( 4 )
memory 2 gb

molecule MOL {
0 1

H	 -0.000105	 1.988529	 0.748933
O	 -0.000098	 1.879786	 -0.188206
C	 -0.000014	 0.545691	 -0.532416
C	 -1.195501	 0.232755	 -1.433893
C	 0.090543	 -0.323642	 0.722906
H	 0.890154	 0.352764	 -1.112969
F	 -1.123772	 0.964932	 -2.518159
F	 -1.228060	 -1.023982	 -1.798943
F	 -2.332985	 0.515487	 -0.835924
F	 1.194058	 -0.037873	 1.369008
F	 0.108499	 -1.602244	 0.442602
F	 -0.918444	 -0.096489	 1.536369

	symmetry c1
}
set optking {
	frozen_dihedral = ("
		6 3 2 1
	")
}

ee,wfn = optimize('scf', return_wfn=True)
oeprop( wfn, 'DIPOLE', 'QUADRUPOLE', 'MULLIKEN_CHARGES')
f=open( 'psi4out.xyz', 'w' )
f.write( "12  " )
f.write( str(ee) + "\n" )
f.write( MOL.save_string_xyz() )
f.close()
--------------------------------------------------------------------------

    Molecular point group: c1
  Charge       = 0
  Multiplicity = 1
  Basis Set: CC-PVTZ
  Basis Set:
  @DF-RHF Final Energy:  -786.58460036071335
    Total Energy =                       -786.5846003607132388
    Molecular point group: c1
  Basis Set: CC-PVTZ
  Basis Set:
  Basis Set: CC-PVTZ
  Basis Set:
  @DF-RHF Final Energy:  -786.58540180397904
    Total Energy =                       -786.5854018039793800
  Basis Set: CC-PVTZ
  Basis Set:
  Basis Set: CC-PVTZ
  Basis Set:
  @DF-RHF Final Energy:  -786.58558509844204
    Total Energy =                       -786.5855850984424933
  Basis Set: CC-PVTZ
  Basis Set:
  Basis Set: CC-PVTZ
  Basis Set:
  @DF-RHF Final Energy:  -786.58560757094301
    Total Energy =                       -786.5856075709433526
  Basis Set: CC-PVTZ
  Basis Set:
  Basis Set: CC-PVTZ
  Basis Set:
  @DF-RHF Final Energy:  -786.58561322298692
    Total Energy =                       -786.5856132229864670
  Basis Set: CC-PVTZ
  Basis Set:
  Basis Set: CC-PVTZ
  Basis Set:
  @DF-RHF Final Energy:  -786.58561457752535
    Total Energy =                       -786.5856145775252344
  Basis Set: CC-PVTZ
  Basis Set:
  Charge       = 0
  Multiplicity = 1
  Basis Set: CC-PVTZ
  Basis Set:

    Orbital Energies (a.u.)
    -----------------------

    Doubly Occupied:

       1A    -26.363844     2A    -26.363356     3A    -26.363221
       4A    -26.351297     5A    -26.349574     6A    -26.347829
       7A    -20.607628     8A    -11.527426     9A    -11.514205
      10A    -11.351919    11A     -1.776974    12A     -1.762210
      13A     -1.672782    14A     -1.669258    15A     -1.657688
      16A     -1.656000    17A     -1.436837    18A     -1.105170
      19A     -1.003194    20A     -0.944412    21A     -0.876020
      22A     -0.869316    23A     -0.863351    24A     -0.849450
      25A     -0.838841    26A     -0.807715    27A     -0.753126
      28A     -0.740131    29A     -0.726804    30A     -0.724608
      31A     -0.707597    32A     -0.696534    33A     -0.692017
      34A     -0.677489    35A     -0.674665    36A     -0.672401
      37A     -0.659483    38A     -0.656810    39A     -0.621467
      40A     -0.550609    41A     -0.507570

  @DF-RHF Final Energy:  -786.58561486304654

   => Energetics <=

    Nuclear Repulsion Energy =            671.0155753560537732
    One-Electron Energy =               -2429.2207216529195648
    Two-Electron Energy =                 971.6195314338191338
    DFT Exchange-Correlation Energy =       0.0000000000000000
    Empirical Dispersion Energy =           0.0000000000000000
    PCM Polarization Energy =               0.0000000000000000
    EFP Energy =                            0.0000000000000000
    Total Energy =                       -786.5856148630465441
    Molecular point group: c1
  Basis Set: CC-PVTZ
  Basis Set:

  -Total Gradient:
     Atom            X                  Y                   Z
    ------   -----------------  -----------------  -----------------
       1        0.000951098217     0.000031890531    -0.000002206818
       2       -0.001091461957    -0.000083162744     0.000171755563
       3       -0.000260027712     0.000161317057    -0.000876008891
       4       -0.000052261245     0.000097759950     0.000041166364
       5       -0.000083026713    -0.000076532237    -0.000061014034
       6        0.000409376531    -0.000105866599     0.000685780561
       7        0.000011571977     0.000014915872     0.000003523165
       8        0.000023382286    -0.000099259764    -0.000017610034
       9        0.000021362985     0.000001339619    -0.000015624255
      10        0.000045998922     0.000024304016     0.000033844631
      11        0.000008391422     0.000025709092     0.000011619894
      12        0.000015595288     0.000007585211     0.000024773853

  **** Optimization is complete! (in 7 steps) ****
    Final optimized geometry and variables:
    Molecular point group: c1

    Geometry (in Angstrom), charge = 0, multiplicity = 1:

    H            0.511517011509     2.021797235211     0.915306660422
    O            0.504686133699     1.818984521505    -0.003200787361
    C            0.553393272037     0.460027282130    -0.249979197094
    C           -0.656004030028     0.089081598685    -1.108283477550
    C            0.667162431781    -0.343134259583     1.043753311027
    H            1.434769121487     0.217537236018    -0.830807933405
    F           -0.644651451537     0.811236844045    -2.201317354461
    F           -0.617092156352    -1.174657609084    -1.463191126739
    F           -1.790422425030     0.304500493777    -0.491247434353
    F            1.753982907228     0.038704440702     1.683053231656
    F            0.761219296941    -1.625895758691     0.819871755344
    F           -0.347770924476    -0.134198814051     1.849697407678

  Mulliken Charges: (a.u.)
   Center  Symbol    Alpha    Beta     Spin     Total
       1     H     0.38210  0.38210  0.00000  0.23580
       2     O     4.18991  4.18991  0.00000 -0.37982
       3     C     2.99600  2.99600  0.00000  0.00800
       4     C     2.67980  2.67980  0.00000  0.64039
       5     C     2.68826  2.68826  0.00000  0.62347
       6     H     0.43763  0.43763  0.00000  0.12475
       7     F     4.60213  4.60213  0.00000 -0.20427
       8     F     4.60629  4.60629  0.00000 -0.21259
       9     F     4.60480  4.60480  0.00000 -0.20959
      10     F     4.60874  4.60874  0.00000 -0.21747
      11     F     4.59814  4.59814  0.00000 -0.19629
      12     F     4.60619  4.60619  0.00000 -0.21239

   Total alpha = 41.00000, Total beta = 41.00000, Total charge = -0.00000

*** Psi4 exiting successfully. Buy a developer a beer!
