  ==> Input File <==

--------------------------------------------------------------------------
set {
	reference rhf
	basis cc-pvtz
}

set_num_threads( 4 )
memory 2 gb

molecule MOL {
0 1

H	 -2.498963	 -0.741158	 -0.729149
O	 -2.346257	 -0.289210	 0.080372
C	 -1.183935	 0.486039	 -0.009831
C	 0.062853	 -0.375310	 0.027457
H	 -1.178881	 1.094526	 -0.908634
H	 -1.184406	 1.155156	 0.838676
O	 1.172093	 0.457955	 -0.054438
H	 0.052476	 -1.081302	 -0.804627
H	 0.076323	 -0.955658	 0.947560
C	 0.888451	 1.813326	 0.062766
H	 0.430888	 2.042042	 1.022766
H	 1.819843	 2.354548	 -0.016450
H	 0.219355	 2.148847	 -0.726067

	symmetry c1
}
set optking {
	frozen_dihedral = ("
		10 7 4 8
	")
}

ee = optimize('scf')
oeprop('DIPOLE', 'QUADRUPOLE', 'MULLIKEN_CHARGES')
f=open( 'psi4out.xyz', 'w' )
f.write( "13  " )
f.write( str(ee) + "\n" )
f.write( MOL.save_string_xyz() )
f.close()
--------------------------------------------------------------------------

    Molecular point group: c1
  Charge       = 0
  Multiplicity = 1
  Basis Set: CC-PVTZ
  Basis Set:
  @DF-RHF Final Energy:  -268.03396126252278
    Total Energy =                       -268.0339612625227801
    Molecular point group: c1
  Basis Set: CC-PVTZ
  Basis Set:
  Basis Set: CC-PVTZ
  Basis Set:
  @DF-RHF Final Energy:  -268.03830736150405
    Total Energy =                       -268.0383073615039393
  Basis Set: CC-PVTZ
  Basis Set:
  Basis Set: CC-PVTZ
  Basis Set:
  @DF-RHF Final Energy:  -268.04589386627089
    Total Energy =                       -268.0458938662708874
  Basis Set: CC-PVTZ
  Basis Set:
  Basis Set: CC-PVTZ
  Basis Set:
  @DF-RHF Final Energy:  -268.04907901138733
    Total Energy =                       -268.0490790113871640
  Basis Set: CC-PVTZ
  Basis Set:
  @DF-RHF Final Energy:  -268.04967507080437
    Total Energy =                       -268.0496750708046534
  Basis Set: CC-PVTZ
  Basis Set:
  @DF-RHF Final Energy:  -268.05043264360745
    Total Energy =                       -268.0504326436073370
  Basis Set: CC-PVTZ
  Basis Set:
  Basis Set: CC-PVTZ
  Basis Set:
  @DF-RHF Final Energy:  -268.05058194395224
    Total Energy =                       -268.0505819439520110
  Basis Set: CC-PVTZ
  Basis Set:
  Basis Set: CC-PVTZ
  Basis Set:
  @DF-RHF Final Energy:  -268.05059613525191
    Total Energy =                       -268.0505961352519648
  Basis Set: CC-PVTZ
  Basis Set:
  Charge       = 0
  Multiplicity = 1
  Basis Set: CC-PVTZ
  Basis Set:

    Orbital Energies (a.u.)
    -----------------------

    Doubly Occupied:

       1A    -20.558369     2A    -20.549534     3A    -11.275801
       4A    -11.270252     5A    -11.267983     6A     -1.383957
       7A     -1.371747     8A     -1.014063     9A     -0.940079
      10A     -0.828272    11A     -0.715155    12A     -0.676697
      13A     -0.663912    14A     -0.635976    15A     -0.599327
      16A     -0.560468    17A     -0.553856    18A     -0.517629
      19A     -0.489192    20A     -0.433254    21A     -0.412016

  @DF-RHF Final Energy:  -268.05059700831566

   => Energetics <=

    Nuclear Repulsion Energy =            192.8878282850571679
    One-Electron Energy =                -748.4417703384540346
    Two-Electron Energy =                 287.5033450450809482
    DFT Exchange-Correlation Energy =       0.0000000000000000
    Empirical Dispersion Energy =           0.0000000000000000
    PCM Polarization Energy =               0.0000000000000000
    EFP Energy =                            0.0000000000000000
    Total Energy =                       -268.0505970083159468
    Molecular point group: c1
  Basis Set: CC-PVTZ
  Basis Set:

  -Total Gradient:
     Atom            X                  Y                   Z
    ------   -----------------  -----------------  -----------------
       1       -0.000004148634     0.000013353175     0.000004306623
       2       -0.000012531348    -0.000002538118     0.000014342411
       3       -0.000016716301    -0.000016824826    -0.000024229789
       4        0.001286192514    -0.001912838959     0.000555837657
       5        0.000002152167     0.000015011505     0.000006039509
       6       -0.000010835149    -0.000016357928    -0.000012931121
       7        0.000133997352     0.000091806966     0.002798569664
       8       -0.001144993456     0.001650164659    -0.001289392240
       9        0.000018125495     0.000007468168     0.000002006323
      10       -0.000264556778     0.000172734246    -0.002052384298
      11        0.000011544811     0.000012427793    -0.000001680433
      12       -0.000003548865    -0.000023459065    -0.000001866463
      13        0.000005318194     0.000009052381     0.000001382158

  **** Optimization is complete! (in 9 steps) ****
    Final optimized geometry and variables:
    Molecular point group: c1

    Geometry (in Angstrom), charge = 0, multiplicity = 1:

    H           -2.092813674846    -1.420038249372    -0.717602171906
    O           -2.057269571569    -0.898738310966     0.063954650585
    C           -1.017042587778     0.033869026574    -0.022924336603
    C            0.325126141525    -0.690397590311     0.000191138510
    H           -1.117600952147     0.640347018184    -0.917479501865
    H           -1.126951155880     0.685433740683     0.831587042604
    O            1.481165440085     0.098942343807    -0.060068026776
    H            0.349327703498    -1.355009242740    -0.858993969504
    H            0.361024647299    -1.302161986841     0.894785119223
    C            1.407786861690     1.484120878871     0.059294840766
    H            1.001500892228     1.796872021805     1.016852601537
    H            2.420432463160     1.853151419774    -0.012555169792
    H            0.824524315471     1.940747758725    -0.733610706303

  Mulliken Charges: (a.u.)
   Center  Symbol    Alpha    Beta     Spin     Total
       1     H     0.39307  0.39307  0.00000  0.21386
       2     O     4.19928  4.19928  0.00000 -0.39855
       3     C     2.99445  2.99445  0.00000  0.01110
       4     C     2.96713  2.96713  0.00000  0.06574
       5     H     0.46536  0.46536  0.00000  0.06928
       6     H     0.44834  0.44834  0.00000  0.10332
       7     O     4.18166  4.18166  0.00000 -0.36331
       8     H     0.47231  0.47231  0.00000  0.05539
       9     H     0.46072  0.46072  0.00000  0.07856
      10     C     3.03723  3.03723  0.00000 -0.07446
      11     H     0.46954  0.46954  0.00000  0.06093
      12     H     0.44040  0.44040  0.00000  0.11920
      13     H     0.47053  0.47053  0.00000  0.05894

   Total alpha = 21.00000, Total beta = 21.00000, Total charge = -0.00000
