  ==> Input File <==

--------------------------------------------------------------------------
set {
	reference rhf
	basis 6-31G*
}

set_num_threads( 1 )
memory 2 gb

molecule MOL {
0 1

H	 -0.000158	 1.970498	 0.756846
O	 -0.000074	 1.880206	 -0.189275
C	 -0.000015	 0.544847	 -0.545111
C	 -1.278788	 -0.123820	 -0.051541
C	 1.278802	 -0.123718	 -0.051505
H	 -0.000001	 0.490777	 -1.623619
F	 -1.521659	 -1.198693	 -0.770710
F	 -1.196172	 -0.488125	 1.210527
F	 -2.314618	 0.690031	 -0.179216
F	 2.323327	 0.466644	 -0.591854
F	 1.326242	 -1.401483	 -0.363667
F	 1.388946	 -0.015632	 1.262939

	symmetry c1
}
set optking {
	frozen_dihedral = ("
		6 3 2 1
	")
}

ee = energy('scf')
oeprop('DIPOLE', 'QUADRUPOLE', 'MULLIKEN_CHARGES')
f=open( 'psi4out.xyz', 'w' )
f.write( "12  " )
f.write( str(ee) + "\n" )
f.write( MOL.save_string_xyz() )
f.close()
--------------------------------------------------------------------------

    Molecular point group: c1

    Geometry (in Angstrom), charge = 0, multiplicity = 1:

       Center              X                  Y                   Z               Mass
    ------------   -----------------  -----------------  -----------------  -----------------
           H         -0.000835903447     1.975693300951     0.762128248764     1.007825032070
           O         -0.000751903447     1.885401300951    -0.183992751236    15.994914619560
           C         -0.000692903447     0.550042300951    -0.539828751236    12.000000000000
           C         -1.279465903447    -0.118624699049    -0.046258751236    12.000000000000
           C          1.278124096553    -0.118522699049    -0.046222751236    12.000000000000
           H         -0.000678903447     0.495972300951    -1.618336751236     1.007825032070
           F         -1.522336903447    -1.193497699049    -0.765427751236    18.998403224000
           F         -1.196849903447    -0.482929699049     1.215809248764    18.998403224000
           F         -2.315295903447     0.695226300951    -0.173933751236    18.998403224000
           F          2.322649096553     0.471839300951    -0.586571751236    18.998403224000
           F          1.325564096553    -1.396287699049    -0.358384751236    18.998403224000
           F          1.388268096553    -0.010436699049     1.268221248764    18.998403224000

  Charge       = 0
  Multiplicity = 1
  Basis Set: 6-31G*
  Basis Set:

    Orbital Energies (a.u.)
    -----------------------

    Doubly Occupied:

       1A    -26.364282     2A    -26.363545     3A    -26.362119
       4A    -26.358702     5A    -26.358599     6A    -26.356825
       7A    -20.615949     8A    -11.526692     9A    -11.525078
      10A    -11.348623    11A     -1.764843    12A     -1.758568
      13A     -1.662366    14A     -1.659020    15A     -1.656232
      16A     -1.653517    17A     -1.435067    18A     -1.101690
      19A     -0.996916    20A     -0.938262    21A     -0.864373
      22A     -0.862553    23A     -0.851333    24A     -0.844816
      25A     -0.832339    26A     -0.813755    27A     -0.742118
      28A     -0.726950    29A     -0.725772    30A     -0.718828
      31A     -0.689001    32A     -0.685583    33A     -0.682895
      34A     -0.674994    35A     -0.669767    36A     -0.661077
      37A     -0.657745    38A     -0.653151    39A     -0.618259
      40A     -0.549948    41A     -0.506230

  @DF-RHF Final Energy:  -786.27522965367029

   => Energetics <=

    Nuclear Repulsion Energy =            670.5755343960374830
    One-Electron Energy =               -2428.0248007536965815
    Two-Electron Energy =                 971.1740367039883495
    DFT Exchange-Correlation Energy =       0.0000000000000000
    Empirical Dispersion Energy =           0.0000000000000000
    PCM Polarization Energy =               0.0000000000000000
    EFP Energy =                            0.0000000000000000
    Total Energy =                       -786.2752296536707490

  Mulliken Charges: (a.u.)
   Center  Symbol    Alpha    Beta     Spin     Total
       1     H     0.26764  0.26764  0.00000  0.46472
       2     O     4.36073  4.36073  0.00000 -0.72145
       3     C     3.04970  3.04970  0.00000 -0.09940
       4     C     2.44716  2.44716  0.00000  1.10569
       5     C     2.44445  2.44445  0.00000  1.11110
       6     H     0.37417  0.37417  0.00000  0.25167
       7     F     4.67573  4.67573  0.00000 -0.35147
       8     F     4.67516  4.67516  0.00000 -0.35033
       9     F     4.67633  4.67633  0.00000 -0.35265
      10     F     4.67468  4.67468  0.00000 -0.34937
      11     F     4.67360  4.67360  0.00000 -0.34720
      12     F     4.68065  4.68065  0.00000 -0.36131

   Total alpha = 41.00000, Total beta = 41.00000, Total charge =  0.00000
