  ==> Input File <==

--------------------------------------------------------------------------
set {
	reference rhf
	basis 6-31G*
}

set_num_threads( 4 )
memory 2 gb

molecule MOL {
0 1

H	 -2.698709	 -0.000305	 0.034435
C	 -1.693833	 0.000034	 0.434417
O	 -0.828952	 -0.000968	 -0.659236
H	 -1.574200	 0.882896	 1.055746
H	 -1.574147	 -0.881698	 1.057355
C	 0.559449	 -0.000018	 -0.420814
C	 1.308245	 -0.982185	 -1.319462
C	 1.160481	 1.403396	 -0.467148
H	 0.634526	 -0.359564	 0.598559
H	 0.824751	 -1.952973	 -1.300686
H	 2.328225	 -1.102891	 -0.968312
H	 1.356057	 -0.642621	 -2.349304
H	 0.574327	 2.083925	 0.140933
H	 2.173856	 1.386100	 -0.078255
H	 1.205666	 1.798018	 -1.477134

	symmetry c1
}
set optking {
	frozen_dihedral = ("
		9 6 3 2
	")
}

ee = optimize('scf')
oeprop('DIPOLE', 'QUADRUPOLE', 'MULLIKEN_CHARGES')
f=open( 'psi4out.xyz', 'w' )
f.write( "15  " )
f.write( str(ee) + "\n" )
f.write( MOL.save_string_xyz() )
f.close()
--------------------------------------------------------------------------

    Molecular point group: c1
  Charge       = 0
  Multiplicity = 1
  Basis Set: 6-31G*
  Basis Set:
  @DF-RHF Final Energy:  -232.13660708337676
    Total Energy =                       -232.1366070833765320
    Molecular point group: c1
  Basis Set: 6-31G*
  Basis Set:
  Basis Set: 6-31G*
  Basis Set:
  @DF-RHF Final Energy:  -232.14001444476730
    Total Energy =                       -232.1400144447673028
  Basis Set: 6-31G*
  Basis Set:
  Basis Set: 6-31G*
  Basis Set:
  @DF-RHF Final Energy:  -232.14073300566207
    Total Energy =                       -232.1407330056621845
  Basis Set: 6-31G*
  Basis Set:
  Basis Set: 6-31G*
  Basis Set:
  @DF-RHF Final Energy:  -232.14076564795045
    Total Energy =                       -232.1407656479505590
  Basis Set: 6-31G*
  Basis Set:
  Basis Set: 6-31G*
  Basis Set:
  @DF-RHF Final Energy:  -232.14077027581388
    Total Energy =                       -232.1407702758140204
  Basis Set: 6-31G*
  Basis Set:
  Charge       = 0
  Multiplicity = 1
  Basis Set: 6-31G*
  Basis Set:

    Orbital Energies (a.u.)
    -----------------------

    Doubly Occupied:

       1A    -20.548985     2A    -11.274062     3A    -11.264317
       4A    -11.207355     5A    -11.206507     6A     -1.373833
       7A     -1.052146     8A     -0.936972     9A     -0.917690
      10A     -0.794853    11A     -0.669422    12A     -0.640927
      13A     -0.636155    14A     -0.581419    15A     -0.552061
      16A     -0.540113    17A     -0.534812    18A     -0.497463
      19A     -0.487742    20A     -0.457239    21A     -0.404975

  @DF-RHF Final Energy:  -232.14077052323259

   => Energetics <=

    Nuclear Repulsion Energy =            196.9829696659257081
    One-Electron Energy =                -705.0893850083631378
    Two-Electron Energy =                 275.9656448192048970
    DFT Exchange-Correlation Energy =       0.0000000000000000
    Empirical Dispersion Energy =           0.0000000000000000
    PCM Polarization Energy =               0.0000000000000000
    EFP Energy =                            0.0000000000000000
    Total Energy =                       -232.1407705232325611
    Molecular point group: c1
  Basis Set: 6-31G*
  Basis Set:

  -Total Gradient:
     Atom            X                  Y                   Z
    ------   -----------------  -----------------  -----------------
       1        0.000006442054    -0.000000205396    -0.000006033214
       2       -0.000043599186    -0.001272097608     0.000009711163
       3       -0.000011544581     0.002205838094     0.000175376797
       4        0.000006821385    -0.000007466490    -0.000012419373
       5        0.000008187770     0.000002724139    -0.000009330865
       6        0.000111812556    -0.002376181009    -0.000712852476
       7        0.000030334357    -0.000020461814     0.000005867558
       8        0.000019499353     0.000005352419     0.000040239033
       9       -0.000092456210     0.001475055419     0.000511994459
      10        0.000002755666    -0.000009635758    -0.000000464563
      11       -0.000019650974     0.000004696052    -0.000005983897
      12       -0.000001346355     0.000004294939    -0.000003577348
      13       -0.000003623697     0.000019453635     0.000001852871
      14       -0.000013729037     0.000002993642     0.000004025672
      15        0.000000096898    -0.000034360263     0.000001594184

  **** Optimization is complete! (in 6 steps) ****
    Final optimized geometry and variables:
    Molecular point group: c1

    Geometry (in Angstrom), charge = 0, multiplicity = 1:

    H           -2.769473560599    -0.036061361124     0.418198427603
    C           -1.772803375218    -0.070400291158     0.837232898938
    O           -0.873775580470    -0.080600275064    -0.225427521174
    H           -1.637490989506     0.797476600721     1.479505926886
    H           -1.680301734097    -0.967214116648     1.446548599015
    C            0.491431249211    -0.100576290939     0.122729864355
    C            1.195795298243    -1.067265345136    -0.816452781901
    C            1.063324412227     1.310943969901     0.040921327007
    H            0.594715811190    -0.456034479943     1.146541092840
    H            0.774132070996    -2.061772558504    -0.722255395378
    H            2.257761386260    -1.119188113818    -0.596755676717
    H            1.072558857997    -0.744290599039    -1.844895243617
    H            0.526059173087     1.985137924292     0.700104941680
    H            2.110996356272     1.324687563799     0.326386849111
    H            0.976622189686     1.690793228706    -0.971673164689

  Mulliken Charges: (a.u.)
   Center  Symbol    Alpha    Beta     Spin     Total
       1     H     0.41282  0.41282  0.00000  0.17437
       2     C     3.07907  3.07907  0.00000 -0.15813
       3     O     4.30977  4.30977  0.00000 -0.61955
       4     H     0.43127  0.43127  0.00000  0.13746
       5     H     0.42972  0.42972  0.00000  0.14055
       6     C     2.91677  2.91677  0.00000  0.16646
       7     C     3.23760  3.23760  0.00000 -0.47521
       8     C     3.23991  3.23991  0.00000 -0.47981
       9     H     0.43059  0.43059  0.00000  0.13881
      10     H     0.41566  0.41566  0.00000  0.16868
      11     H     0.42398  0.42398  0.00000  0.15205
      12     H     0.41469  0.41469  0.00000  0.17061
      13     H     0.41916  0.41916  0.00000  0.16168
      14     H     0.42382  0.42382  0.00000  0.15237
      15     H     0.41517  0.41517  0.00000  0.16966

   Total alpha = 21.00000, Total beta = 21.00000, Total charge = -0.00000
