                              Psi4 1.0.54 Driver

  ==> Input File <==

--------------------------------------------------------------------------
set {
	reference rhf
	basis cc-pvtz
}

set_num_threads( 4 )
memory 2 gb

molecule MOL {
0 1

O	 -0.694481	 1.313155	 -0.204815
C	 -0.862519	 0.151932	 -0.046791
C	 -2.171428	 -0.477048	 0.339095
O	 0.085519	 -0.757083	 -0.192238
H	 -2.467997	 -1.191667	 -0.417688
H	 -2.923379	 0.287970	 0.444097
H	 -2.053854	 -1.015120	 1.270901
C	 -0.292188	 -2.112395	 -0.404249
C	 -0.561642	 -2.396292	 -1.867361
H	 -1.155539	 -2.339660	 0.201384
H	 0.548390	 -2.689427	 -0.048983
H	 -0.780388	 -3.450044	 -1.998538
H	 -1.409700	 -1.826613	 -2.221829
H	 0.304042	 -2.150628	 -2.470547

	symmetry c1
}
set optking {
	frozen_dihedral = ("
		8 4 2 1
	")
}

ee,wfn = optimize('scf', return_wfn=True)
oeprop( wfn, 'DIPOLE', 'QUADRUPOLE', 'MULLIKEN_CHARGES')
f=open( 'psi4out.xyz', 'w' )
f.write( "14  " )
f.write( str(ee) + "\n" )
f.write( MOL.save_string_xyz() )
f.close()
--------------------------------------------------------------------------

    Molecular point group: c1
  Charge       = 0
  Multiplicity = 1
  Basis Set: CC-PVTZ
  Basis Set:
  @DF-RHF Final Energy:  -305.96476671745586
    Total Energy =                       -305.9647667174558592
    Molecular point group: c1
  Basis Set: CC-PVTZ
  Basis Set:
  Basis Set: CC-PVTZ
  Basis Set:
  @DF-RHF Final Energy:  -305.93693012749583
    Total Energy =                       -305.9369301274957706
  Basis Set: CC-PVTZ
  Basis Set:
  Basis Set: CC-PVTZ
  Basis Set:
  @DF-RHF Final Energy:  -305.97331002991058
    Total Energy =                       -305.9733100299108628
  Basis Set: CC-PVTZ
  Basis Set:
  Basis Set: CC-PVTZ
  Basis Set:
  @DF-RHF Final Energy:  -305.97498371763254
    Total Energy =                       -305.9749837176324263
  Basis Set: CC-PVTZ
  Basis Set:
  @DF-RHF Final Energy:  -305.96326706897639
    Total Energy =                       -305.9632670689763358
  @DF-RHF Final Energy:  -305.97583914666490
    Total Energy =                       -305.9758391466650664
  @DF-RHF Final Energy:  -305.97577704762705
    Total Energy =                       -305.9757770476269343
  Basis Set: CC-PVTZ
  Basis Set:
  @DF-RHF Final Energy:  -305.97628160970743
    Total Energy =                       -305.9762816097074847
  Basis Set: CC-PVTZ
  Basis Set:
  Basis Set: CC-PVTZ
  Basis Set:
  @DF-RHF Final Energy:  -305.97629703051120
    Total Energy =                       -305.9762970305111480
  Basis Set: CC-PVTZ
  Basis Set:
  Basis Set: CC-PVTZ
  Basis Set:
  @DF-RHF Final Energy:  -305.97629844080143
    Total Energy =                       -305.9762984408015427
  Basis Set: CC-PVTZ
  Basis Set:
  Charge       = 0
  Multiplicity = 1
  Basis Set: CC-PVTZ
  Basis Set:

    Orbital Energies (a.u.)
    -----------------------

    Doubly Occupied:

       1A    -20.591556     2A    -20.528246     3A    -11.369009
       4A    -11.297788     5A    -11.240856     6A    -11.230209
       7A     -1.464845     8A     -1.367197     9A     -1.050132
      10A     -1.018332    11A     -0.899278    12A     -0.773923
      13A     -0.700303    14A     -0.689606    15A     -0.667152
      16A     -0.617956    17A     -0.597364    18A     -0.584643
      19A     -0.557015    20A     -0.544299    21A     -0.528021
      22A     -0.500701    23A     -0.448276    24A     -0.436769

  @DF-RHF Final Energy:  -305.97629866091950

   => Energetics <=

    Nuclear Repulsion Energy =            248.5258155463098717
    One-Electron Energy =                -909.5972748925266842
    Two-Electron Energy =                 355.0951606852970599
    DFT Exchange-Correlation Energy =       0.0000000000000000
    Empirical Dispersion Energy =           0.0000000000000000
    PCM Polarization Energy =               0.0000000000000000
    EFP Energy =                            0.0000000000000000
    Total Energy =                       -305.9762986609197242
    Molecular point group: c1
  Basis Set: CC-PVTZ
  Basis Set:

  -Total Gradient:
     Atom            X                  Y                   Z
    ------   -----------------  -----------------  -----------------
       1        0.000351088365    -0.000467576190    -0.001432187030
       2       -0.000111835993     0.000585175838     0.001342972945
       3        0.000008504242     0.000029444772     0.000030033150
       4       -0.000882368525     0.000102126099     0.001228700855
       5        0.000004730257    -0.000014268719    -0.000017811139
       6       -0.000000932756     0.000001651595    -0.000002151556
       7       -0.000006985801    -0.000009144806    -0.000000227327
       8        0.000645691575    -0.000221970107    -0.001173430294
       9        0.000002908370    -0.000007273030     0.000019459708
      10       -0.000025985563    -0.000005944980     0.000009544731
      11       -0.000000696663    -0.000002440280     0.000006208818
      12        0.000004597042     0.000005856344    -0.000002968453
      13       -0.000004739831     0.000008030554     0.000000755892
      14        0.000016025282    -0.000003667089    -0.000008900303

  **** Optimization is complete! (in 11 steps) ****
    Final optimized geometry and variables:
    Molecular point group: c1

    Geometry (in Angstrom), charge = 0, multiplicity = 1:

    O            0.581258994894     1.913767397348    -0.164437222869
    C           -0.047621560376     0.941720481229     0.058276630717
    C           -1.535075712122     0.868241801021    -0.191838063320
    O            0.557242650672    -0.120189504502     0.583771429761
    H           -1.775003252618     0.116948591495    -0.932858322116
    H           -1.857739627074     1.832523522569    -0.546760822809
    H           -2.063813230057     0.621346362590     0.720262516997
    C            0.042448246435    -1.434188419682     0.522233460116
    C            0.417215853154    -2.119342897605    -0.777131845204
    H           -1.027771524418    -1.440051716795     0.674605124777
    H            0.491432149110    -1.948072084100     1.358835367363
    H            0.071386333527    -3.146688533615    -0.765221670702
    H           -0.027082104842    -1.623549279199    -1.632226449949
    H            1.491507546888    -2.117461791421    -0.906449410509

  Mulliken Charges: (a.u.)
   Center  Symbol    Alpha    Beta     Spin     Total
       1     O     4.18076  4.18076  0.00000 -0.36152
       2     C     2.81435  2.81435  0.00000  0.37131
       3     C     3.16528  3.16528  0.00000 -0.33056
       4     O     4.13740  4.13740  0.00000 -0.27481
       5     H     0.44867  0.44867  0.00000  0.10265
       6     H     0.42671  0.42671  0.00000  0.14658
       7     H     0.44516  0.44516  0.00000  0.10969
       8     C     2.99917  2.99917  0.00000  0.00166
       9     C     3.13963  3.13963  0.00000 -0.27926
      10     H     0.45919  0.45919  0.00000  0.08162
      11     H     0.43686  0.43686  0.00000  0.12627
      12     H     0.45051  0.45051  0.00000  0.09898
      13     H     0.45410  0.45410  0.00000  0.09180
      14     H     0.44221  0.44221  0.00000  0.11558

   Total alpha = 24.00000, Total beta = 24.00000, Total charge =  0.00000

*** Psi4 exiting successfully. Buy a developer a beer!
