                              Psi4 1.0.54 Driver

  ==> Input File <==

--------------------------------------------------------------------------
set {
	reference rhf
	basis cc-pvtz
}

set_num_threads( 4 )
memory 2 gb

molecule MOL {
0 1

O	 -2.440701	 -0.934798	 -0.415053
C	 -1.922978	 0.063265	 -0.045005
C	 -2.632749	 1.372204	 0.158357
O	 -0.637375	 0.157174	 0.243149
H	 -2.187724	 2.129143	 -0.474664
H	 -3.677681	 1.257276	 -0.079438
H	 -2.516788	 1.693160	 1.185542
C	 0.162530	 -1.009518	 0.097799
C	 1.587210	 -0.664190	 0.477086
H	 0.096803	 -1.356267	 -0.924704
H	 -0.233803	 -1.785900	 0.736810
C	 2.256770	 0.342732	 -0.454344
H	 2.154716	 -1.590834	 0.479041
H	 1.598751	 -0.289614	 1.496104
C	 1.252759	 1.123712	 -1.295564
H	 2.848981	 1.036016	 0.137045
H	 2.949884	 -0.176209	 -1.106369
H	 1.753815	 1.833117	 -1.943695
H	 0.562043	 1.678787	 -0.669310
H	 0.667702	 0.459387	 -1.922778

	symmetry c1
}
set optking {
	frozen_dihedral = ("
		16 12 9 8
	")
}

ee,wfn = optimize('scf', return_wfn=True)
oeprop( wfn, 'DIPOLE', 'QUADRUPOLE', 'MULLIKEN_CHARGES')
f=open( 'psi4out.xyz', 'w' )
f.write( "20  " )
f.write( str(ee) + "\n" )
f.write( MOL.save_string_xyz() )
f.close()
--------------------------------------------------------------------------

    Molecular point group: c1
  Charge       = 0
  Multiplicity = 1
  Basis Set: CC-PVTZ
  Basis Set:
  @DF-RHF Final Energy:  -384.06946655507119
    Total Energy =                       -384.0694665550712443
    Molecular point group: c1
  Basis Set: CC-PVTZ
  Basis Set:
  Basis Set: CC-PVTZ
  Basis Set:
  @DF-RHF Final Energy:  -384.07569429505338
    Total Energy =                       -384.0756942950534949
  Basis Set: CC-PVTZ
  Basis Set:
  Basis Set: CC-PVTZ
  Basis Set:
  @DF-RHF Final Energy:  -384.07727547107879
    Total Energy =                       -384.0772754710790196
  Basis Set: CC-PVTZ
  Basis Set:
  Basis Set: CC-PVTZ
  Basis Set:
  @DF-RHF Final Energy:  -384.07509781512130
    Total Energy =                       -384.0750978151210120
  Basis Set: CC-PVTZ
  Basis Set:
  @DF-RHF Final Energy:  -384.07795504053058
    Total Energy =                       -384.0779550405304690
  @DF-RHF Final Energy:  -384.07815063382549
    Total Energy =                       -384.0781506338254303
  Basis Set: CC-PVTZ
  Basis Set:
  @DF-RHF Final Energy:  -384.07822342016067
    Total Energy =                       -384.0782234201611800
  Basis Set: CC-PVTZ
  Basis Set:
  Basis Set: CC-PVTZ
  Basis Set:
  @DF-RHF Final Energy:  -384.07823487337458
    Total Energy =                       -384.0782348733749814
  Basis Set: CC-PVTZ
  Basis Set:
  Basis Set: CC-PVTZ
  Basis Set:
  @DF-RHF Final Energy:  -384.07823831397411
    Total Energy =                       -384.0782383139737703
  Basis Set: CC-PVTZ
  Basis Set:
  Charge       = 0
  Multiplicity = 1
  Basis Set: CC-PVTZ
  Basis Set:

    Orbital Energies (a.u.)
    -----------------------

    Doubly Occupied:

       1A    -20.594031     2A    -20.532722     3A    -11.366668
       4A    -11.280285     5A    -11.231745     6A    -11.224318
       7A    -11.221038     8A    -11.208439     9A     -1.471095
      10A     -1.365247    11A     -1.082432    12A     -1.027036
      13A     -0.980538    14A     -0.893348    15A     -0.799266
      16A     -0.777668    17A     -0.692293    18A     -0.691041
      19A     -0.666846    20A     -0.627835    21A     -0.611856
      22A     -0.582747    23A     -0.571049    24A     -0.555917
      25A     -0.550319    26A     -0.528100    27A     -0.519850
      28A     -0.480219    29A     -0.476524    30A     -0.465945
      31A     -0.448718    32A     -0.440899

  @DF-RHF Final Energy:  -384.07823876448793

   => Energetics <=

    Nuclear Repulsion Energy =            395.0840375973587584
    One-Electron Energy =               -1306.3924898564534942
    Two-Electron Energy =                 527.2302134946066872
    DFT Exchange-Correlation Energy =       0.0000000000000000
    Empirical Dispersion Energy =           0.0000000000000000
    PCM Polarization Energy =               0.0000000000000000
    EFP Energy =                            0.0000000000000000
    Total Energy =                       -384.0782387644881055
    Molecular point group: c1
  Basis Set: CC-PVTZ
  Basis Set:

  -Total Gradient:
     Atom            X                  Y                   Z
    ------   -----------------  -----------------  -----------------
       1       -0.000022592973     0.000027470252     0.000012042726
       2       -0.000041441394    -0.000042545701    -0.000006637999
       3        0.000007200946     0.000015398489    -0.000020278485
       4        0.000006444435     0.000025712767     0.000017533615
       5       -0.000003878424    -0.000017614474     0.000021743345
       6        0.000024318898     0.000002453096     0.000003699811
       7       -0.000007095846    -0.000012486369    -0.000016334751
       8       -0.001088548420     0.002346940687     0.001597006868
       9        0.000932358263    -0.002962965242    -0.002303428987
      10        0.000003293592     0.000000496255     0.000013267834
      11       -0.000005803354     0.000004133938    -0.000003299608
      12        0.003407159084    -0.001709718456     0.000513037100
      13        0.000009736080     0.000003949816     0.000001317994
      14       -0.000001442667    -0.000002456536    -0.000006679125
      15       -0.000004425597     0.000011469283    -0.000014447799
      16       -0.003223995299     0.002298883039     0.000182978868
      17       -0.000002899254     0.000001618864     0.000007140973
      18       -0.000003798383    -0.000004754802    -0.000002150596
      19        0.000001121059    -0.000000162480    -0.000004874870
      20        0.000014289259     0.000014177573     0.000008363087

  **** Optimization is complete! (in 10 steps) ****
    Final optimized geometry and variables:
    Molecular point group: c1

    Geometry (in Angstrom), charge = 0, multiplicity = 1:

    O           -2.090342191031    -1.203535611176    -0.065802632489
    C           -1.657442873802    -0.169054286941     0.313072993824
    C           -2.491002920931     1.031240009332     0.662592222889
    O           -0.368642425896     0.068059690080     0.479260711340
    H           -2.221201439763     1.859053202850     0.019327312399
    H           -3.535192032173     0.793686730709     0.540794314474
    H           -2.291646124949     1.329376962869     1.683622863545
    C            0.540607565957    -0.985791879458     0.189350161031
    C            1.954314332000    -0.507945607843     0.462583698464
    H            0.399347407133    -1.306103171393    -0.832948470773
    H            0.304879067684    -1.825634715967     0.827579418667
    C            2.600192416501     0.479838121432    -0.539416320060
    H            2.578161848230    -1.392272094127     0.531206434642
    H            1.950074077022    -0.067979876269     1.453599487699
    C            1.662379210044     1.252411051459    -1.468556807957
    H            3.158220990157     1.214908447118     0.029146631219
    H            3.318960438990    -0.055516345522    -1.149560942216
    H            2.245702845332     1.888698865206    -2.124321363980
    H            0.979434004209     1.881924758895    -0.914263440957
    H            1.073644883987     0.594868628576    -2.097013324621

  Mulliken Charges: (a.u.)
   Center  Symbol    Alpha    Beta     Spin     Total
       1     O     4.19715  4.19715  0.00000 -0.39429
       2     C     2.80804  2.80804  0.00000  0.38391
       3     C     3.13923  3.13923  0.00000 -0.27846
       4     O     4.15335  4.15335  0.00000 -0.30670
       5     H     0.44611  0.44611  0.00000  0.10778
       6     H     0.43713  0.43713  0.00000  0.12574
       7     H     0.44548  0.44548  0.00000  0.10903
       8     C     3.00613  3.00613  0.00000 -0.01226
       9     C     3.09068  3.09068  0.00000 -0.18137
      10     H     0.44512  0.44512  0.00000  0.10976
      11     H     0.43927  0.43927  0.00000  0.12147
      12     C     3.08877  3.08877  0.00000 -0.17753
      13     H     0.44683  0.44683  0.00000  0.10633
      14     H     0.45153  0.45153  0.00000  0.09693
      15     C     3.15466  3.15466  0.00000 -0.30933
      16     H     0.45091  0.45091  0.00000  0.09819
      17     H     0.45093  0.45093  0.00000  0.09814
      18     H     0.44502  0.44502  0.00000  0.10995
      19     H     0.44859  0.44859  0.00000  0.10282
      20     H     0.45506  0.45506  0.00000  0.08988

   Total alpha = 32.00000, Total beta = 32.00000, Total charge =  0.00000

*** Psi4 exiting successfully. Buy a developer a beer!
