  ==> Input File <==

--------------------------------------------------------------------------
set {
	reference rhf
	basis cc-pvtz
}

set_num_threads( 4 )
memory 2 gb

molecule MOL {
0 1

H	 -3.162190	 0.493205	 -0.000107
C	 -2.363908	 -0.234727	 0.000005
O	 -1.158738	 0.454634	 -0.000087
H	 -2.464314	 -0.863616	 -0.882153
H	 -2.464327	 -0.863359	 0.882345
C	 -0.028611	 -0.359694	 0.000037
C	 -0.449903	 -1.798222	 0.222624
H	 0.659559	 -0.044055	 0.784531
H	 0.500151	 -0.265547	 -0.948746
C	 0.735592	 -2.756748	 0.236067
H	 -0.989893	 -1.858746	 1.161066
H	 -1.147985	 -2.078483	 -0.558457
H	 1.435633	 -2.508724	 1.026961
H	 0.406415	 -3.775988	 0.396731
H	 1.276300	 -2.730154	 -0.704143

	symmetry c1
}
set optking {
	frozen_dihedral = ("
		8 6 3 2
	")
}

ee = optimize('scf')
oeprop('DIPOLE', 'QUADRUPOLE', 'MULLIKEN_CHARGES')
f=open( 'psi4out.xyz', 'w' )
f.write( "15  " )
f.write( str(ee) + "\n" )
f.write( MOL.save_string_xyz() )
f.close()
--------------------------------------------------------------------------

    Molecular point group: c1
  Charge       = 0
  Multiplicity = 1
  Basis Set: CC-PVTZ
  Basis Set:
  @DF-RHF Final Energy:  -232.20092046843251
    Total Energy =                       -232.2009204684324573
    Molecular point group: c1
  Basis Set: CC-PVTZ
  Basis Set:
  Basis Set: CC-PVTZ
  Basis Set:
  @DF-RHF Final Energy:  -232.20454060150715
    Total Energy =                       -232.2045406015071762
  Basis Set: CC-PVTZ
  Basis Set:
  Basis Set: CC-PVTZ
  Basis Set:
  @DF-RHF Final Energy:  -232.21245818325539
    Total Energy =                       -232.2124581832552508
  Basis Set: CC-PVTZ
  Basis Set:
  Basis Set: CC-PVTZ
  Basis Set:
  @DF-RHF Final Energy:  -232.21582405402515
    Total Energy =                       -232.2158240540251199
  Basis Set: CC-PVTZ
  Basis Set:
  @DF-RHF Final Energy:  -232.21630855708614
    Total Energy =                       -232.2163085570861085
  Basis Set: CC-PVTZ
  Basis Set:
  @DF-RHF Final Energy:  -232.21717218717907
    Total Energy =                       -232.2171721871791306
  Basis Set: CC-PVTZ
  Basis Set:
  Basis Set: CC-PVTZ
  Basis Set:
  @DF-RHF Final Energy:  -232.21733895081135
    Total Energy =                       -232.2173389508113814
  Basis Set: CC-PVTZ
  Basis Set:
  Basis Set: CC-PVTZ
  Basis Set:
  @DF-RHF Final Energy:  -232.21735304358137
    Total Energy =                       -232.2173530435817383
  Basis Set: CC-PVTZ
  Basis Set:
  Charge       = 0
  Multiplicity = 1
  Basis Set: CC-PVTZ
  Basis Set:

    Orbital Energies (a.u.)
    -----------------------

    Doubly Occupied:

       1A    -20.540010     2A    -11.264229     3A    -11.259952
       4A    -11.220675     5A    -11.215259     6A     -1.369212
       7A     -1.060484     8A     -0.962891     9A     -0.886317
      10A     -0.796806    11A     -0.673613    12A     -0.660594
      13A     -0.626364    14A     -0.607218    15A     -0.554969
      16A     -0.547567    17A     -0.523043    18A     -0.500391
      19A     -0.492988    20A     -0.443529    21A     -0.403758

  @DF-RHF Final Energy:  -232.21735381942526

   => Energetics <=

    Nuclear Repulsion Energy =            192.2041557294809593
    One-Electron Energy =                -695.6232771235908103
    Two-Electron Energy =                 271.2017675746841974
    DFT Exchange-Correlation Energy =       0.0000000000000000
    Empirical Dispersion Energy =           0.0000000000000000
    PCM Polarization Energy =               0.0000000000000000
    EFP Energy =                            0.0000000000000000
    Total Energy =                       -232.2173538194256821
    Molecular point group: c1
  Basis Set: CC-PVTZ
  Basis Set:

  -Total Gradient:
     Atom            X                  Y                   Z
    ------   -----------------  -----------------  -----------------
       1        0.000027413086     0.000004104952     0.000000328047
       2       -0.000010240111    -0.000018396537     0.001850295742
       3       -0.000189464684    -0.000261990720    -0.002499636211
       4       -0.000020818377     0.000012244588     0.000006227083
       5       -0.000005590328     0.000000848038     0.000004527258
       6        0.001253656579     0.001514584961    -0.000746363116
       7        0.000017193370    -0.000022741927    -0.000026188350
       8       -0.001063033330    -0.001223073196     0.001389530535
       9       -0.000012268570     0.000012158959    -0.000002817383
      10       -0.000014699052    -0.000012363566     0.000010811713
      11       -0.000006120561     0.000001605528    -0.000003208852
      12        0.000011834316     0.000001199983     0.000011981331
      13        0.000004148475    -0.000000706557    -0.000001482080
      14        0.000010902762    -0.000005754850     0.000004141860
      15       -0.000002913574    -0.000001719654     0.000001852422

  **** Optimization is complete! (in 9 steps) ****
    Final optimized geometry and variables:
    Molecular point group: c1

    Geometry (in Angstrom), charge = 0, multiplicity = 1:

    H           -2.456640474521     1.774181216346    -0.112676294344
    C           -1.819042299713     0.901646630726    -0.104213516956
    O           -0.509948781720     1.369341160268    -0.102822253478
    H           -2.048188522954     0.307530455803    -0.984458230188
    H           -2.055700844345     0.317807078755     0.779043371546
    C            0.578397993256     0.480911677161    -0.081526194223
    C            0.278604508091    -0.995938690423     0.146258642930
    H            1.235808843803     0.815174928157     0.714213636790
    H            1.116331869382     0.590066827114    -1.019126686124
    C            1.568383252062    -1.811615376281     0.151279964387
    H           -0.232968729083    -1.130507056519     1.092795876373
    H           -0.379638520922    -1.374402489309    -0.627325556561
    H            2.240896517056    -1.479659342134     0.934742208046
    H            1.360848568567    -2.861585587613     0.317444999133
    H            2.092880892975    -1.723863575225    -0.793959849053

  Mulliken Charges: (a.u.)
   Center  Symbol    Alpha    Beta     Spin     Total
       1     H     0.44172  0.44172  0.00000  0.11656
       2     C     3.03639  3.03639  0.00000 -0.07278
       3     O     4.18203  4.18203  0.00000 -0.36405
       4     H     0.47151  0.47151  0.00000  0.05698
       5     H     0.47016  0.47016  0.00000  0.05969
       6     C     2.95559  2.95559  0.00000  0.08882
       7     C     3.10547  3.10547  0.00000 -0.21093
       8     H     0.46363  0.46363  0.00000  0.07273
       9     H     0.46681  0.46681  0.00000  0.06637
      10     C     3.15242  3.15242  0.00000 -0.30484
      11     H     0.45015  0.45015  0.00000  0.09970
      12     H     0.45044  0.45044  0.00000  0.09913
      13     H     0.45358  0.45358  0.00000  0.09285
      14     H     0.44627  0.44627  0.00000  0.10745
      15     H     0.45383  0.45383  0.00000  0.09233

   Total alpha = 21.00000, Total beta = 21.00000, Total charge = -0.00000
