  ==> Input File <==

--------------------------------------------------------------------------
set {
	reference rhf
	basis cc-pvtz
}

set_num_threads( 4 )
memory 2 gb

molecule MOL {
0 1

H	 -1.835082	 1.385983	 0.000069
C	 -1.300516	 0.441153	 -0.000028
O	 -0.006604	 0.654344	 -0.000106
O	 -1.828920	 -0.612308	 0.000113
C	 0.852093	 -0.482521	 -0.000161
C	 0.149288	 -1.591170	 -0.746929
H	 1.062646	 -0.761200	 1.022563
H	 1.786932	 -0.214092	 -0.471315
H	 -0.786520	 -1.846749	 -0.266394
H	 0.777870	 -2.473441	 -0.765298
H	 -0.058619	 -1.296881	 -1.767780

	symmetry c1
}
set optking {
	frozen_dihedral = ("
		7 5 3 2
	")
}

ee = optimize('scf')
oeprop('DIPOLE', 'QUADRUPOLE', 'MULLIKEN_CHARGES')
f=open( 'psi4out.xyz', 'w' )
f.write( "11  " )
f.write( str(ee) + "\n" )
f.write( MOL.save_string_xyz() )
f.close()
--------------------------------------------------------------------------

    Molecular point group: c1
  Charge       = 0
  Multiplicity = 1
  Basis Set: CC-PVTZ
  Basis Set:
  @DF-RHF Final Energy:  -266.88705640454754
    Total Energy =                       -266.8870564045475930
    Molecular point group: c1
  Basis Set: CC-PVTZ
  Basis Set:
  Basis Set: CC-PVTZ
  Basis Set:
  @DF-RHF Final Energy:  -266.91500219650283
    Total Energy =                       -266.9150021965031101
  Basis Set: CC-PVTZ
  Basis Set:
  Basis Set: CC-PVTZ
  Basis Set:
  @DF-RHF Final Energy:  -266.91373228305685
    Total Energy =                       -266.9137322830567882
  Basis Set: CC-PVTZ
  Basis Set:
  Basis Set: CC-PVTZ
  Basis Set:
  @DF-RHF Final Energy:  -266.91872611157112
    Total Energy =                       -266.9187261115711181
  Basis Set: CC-PVTZ
  Basis Set:
  @DF-RHF Final Energy:  -266.92331264073448
    Total Energy =                       -266.9233126407344230
  Basis Set: CC-PVTZ
  Basis Set:
  @DF-RHF Final Energy:  -266.92387875538753
    Total Energy =                       -266.9238787553875909
  Basis Set: CC-PVTZ
  Basis Set:
  Basis Set: CC-PVTZ
  Basis Set:
  @DF-RHF Final Energy:  -266.92401726176786
    Total Energy =                       -266.9240172617678581
  Basis Set: CC-PVTZ
  Basis Set:
  Basis Set: CC-PVTZ
  Basis Set:
  @DF-RHF Final Energy:  -266.92404471028317
    Total Energy =                       -266.9240447102832263
  Basis Set: CC-PVTZ
  Basis Set:
  Charge       = 0
  Multiplicity = 1
  Basis Set: CC-PVTZ
  Basis Set:

    Orbital Energies (a.u.)
    -----------------------

    Doubly Occupied:

       1A    -20.603251     2A    -20.543207     3A    -11.370469
       4A    -11.294208     5A    -11.219716     6A     -1.474069
       7A     -1.376830     8A     -1.049885     9A     -0.919139
      10A     -0.795915    11A     -0.731119    12A     -0.686960
      13A     -0.667258    14A     -0.621507    15A     -0.578879
      16A     -0.546017    17A     -0.530421    18A     -0.504800
      19A     -0.459204    20A     -0.449408

  @DF-RHF Final Energy:  -266.92404670014241

   => Energetics <=

    Nuclear Repulsion Energy =            182.8631938985858483
    One-Electron Energy =                -726.7299547740014987
    Two-Electron Energy =                 276.9427141752731814
    DFT Exchange-Correlation Energy =       0.0000000000000000
    Empirical Dispersion Energy =           0.0000000000000000
    PCM Polarization Energy =               0.0000000000000000
    EFP Energy =                            0.0000000000000000
    Total Energy =                       -266.9240467001424122
    Molecular point group: c1
  Basis Set: CC-PVTZ
  Basis Set:

  -Total Gradient:
     Atom            X                  Y                   Z
    ------   -----------------  -----------------  -----------------
       1       -0.000038686124     0.000003181683     0.000007403029
       2       -0.000267802188    -0.000102346439    -0.005352129158
       3        0.001345526203     0.000924080913     0.007939541415
       4       -0.000006520146     0.000030888446    -0.000007345692
       5       -0.005851329374    -0.004002079392    -0.002355160647
       6        0.000043102348     0.000056956487     0.000025845220
       7        0.004733314270     0.003148025842    -0.000235613430
       8        0.000037820017    -0.000087226778    -0.000030666254
       9        0.000010548919     0.000017247635     0.000014574381
      10       -0.000010082789    -0.000010620393     0.000002032205
      11        0.000004108868     0.000021891996    -0.000008481068

  **** Optimization is complete! (in 9 steps) ****
    Final optimized geometry and variables:
    Molecular point group: c1

    Geometry (in Angstrom), charge = 0, multiplicity = 1:

    H           -1.251173500217     1.891432285334     0.016807851689
    C           -0.867788346044     0.884816355254     0.157148296447
    O            0.441516233085     0.910439136709     0.111453043320
    O           -1.559474576577    -0.050961088773     0.342280848397
    C            1.252415552721    -0.267298866826     0.102187494554
    C            0.742646803827    -1.446049692627    -0.702545143571
    H            1.477359717455    -0.525924657956     1.128658771902
    H            2.176211645171     0.084755810399    -0.333271803252
    H           -0.099156675128    -1.933579904053    -0.241831778291
    H            1.556980129272    -2.156514060168    -0.792720921311
    H            0.460330354398    -1.135518787829    -1.701510416791

  Mulliken Charges: (a.u.)
   Center  Symbol    Alpha    Beta     Spin     Total
       1     H     0.44766  0.44766  0.00000  0.10469
       2     C     2.84226  2.84226  0.00000  0.31548
       3     O     4.14783  4.14783  0.00000 -0.29565
       4     O     4.19651  4.19651  0.00000 -0.39302
       5     C     2.97502  2.97502  0.00000  0.04996
       6     C     3.15395  3.15395  0.00000 -0.30791
       7     H     0.45397  0.45397  0.00000  0.09207
       8     H     0.44845  0.44845  0.00000  0.10310
       9     H     0.43359  0.43359  0.00000  0.13281
      10     H     0.45004  0.45004  0.00000  0.09992
      11     H     0.45072  0.45072  0.00000  0.09855

   Total alpha = 20.00000, Total beta = 20.00000, Total charge = -0.00000
