  ==> Input File <==

--------------------------------------------------------------------------
set {
	reference rhf
	basis cc-pvtz
}

set_num_threads( 4 )
memory 2 gb

molecule MOL {
0 1

H	 -2.816458	 -0.841657	 -0.064679
N	 -1.878861	 -0.711874	 0.250184
C	 -1.341419	 0.551458	 -0.220231
H	 -1.333674	 -1.468530	 -0.105118
C	 0.082190	 0.731516	 0.254705
H	 -1.357065	 0.652078	 -1.304747
H	 -1.939897	 1.357530	 0.189797
O	 0.487384	 -0.430337	 0.913205
H	 0.733813	 0.925869	 -0.596051
H	 0.137712	 1.583622	 0.928323
C	 1.762231	 -0.367316	 1.460941
H	 1.966453	 -1.315157	 1.937678
H	 2.515573	 -0.191886	 0.695831
H	 1.837116	 0.422511	 2.204667

	symmetry c1
}
set optking {
	frozen_dihedral = ("
		8 5 3 6
	")
}

ee = optimize('scf')
oeprop('DIPOLE', 'QUADRUPOLE', 'MULLIKEN_CHARGES')
f=open( 'psi4out.xyz', 'w' )
f.write( "14  " )
f.write( str(ee) + "\n" )
f.write( MOL.save_string_xyz() )
f.close()
--------------------------------------------------------------------------

    Molecular point group: c1
  Charge       = 0
  Multiplicity = 1
  Basis Set: CC-PVTZ
  Basis Set:
  @DF-RHF Final Energy:  -248.21034203141076
    Total Energy =                       -248.2103420314105051
    Molecular point group: c1
  Basis Set: CC-PVTZ
  Basis Set:
  Basis Set: CC-PVTZ
  Basis Set:
  @DF-RHF Final Energy:  -248.21116939858035
    Total Energy =                       -248.2111693985802958
  Basis Set: CC-PVTZ
  Basis Set:
  Basis Set: CC-PVTZ
  Basis Set:
  @DF-RHF Final Energy:  -248.21312848999219
    Total Energy =                       -248.2131284899919592
  Basis Set: CC-PVTZ
  Basis Set:
  Basis Set: CC-PVTZ
  Basis Set:
  @DF-RHF Final Energy:  -248.21332835674693
    Total Energy =                       -248.2133283567471835
  Basis Set: CC-PVTZ
  Basis Set:
  Basis Set: CC-PVTZ
  Basis Set:
  @DF-RHF Final Energy:  -248.21339232592891
    Total Energy =                       -248.2133923259287940
  Basis Set: CC-PVTZ
  Basis Set:
  Basis Set: CC-PVTZ
  Basis Set:
  @DF-RHF Final Energy:  -248.21341609503193
    Total Energy =                       -248.2134160950315618
  Basis Set: CC-PVTZ
  Basis Set:
  Basis Set: CC-PVTZ
  Basis Set:
  @DF-RHF Final Energy:  -248.21341776119496
    Total Energy =                       -248.2134177611950463
  Basis Set: CC-PVTZ
  Basis Set:
  Charge       = 0
  Multiplicity = 1
  Basis Set: CC-PVTZ
  Basis Set:

    Orbital Energies (a.u.)
    -----------------------

    Doubly Occupied:

       1A    -20.550534     2A    -15.518860     3A    -11.268449
       4A    -11.264000     5A    -11.241328     6A     -1.385895
       7A     -1.170688     8A     -0.995640     9A     -0.910399
      10A     -0.814980    11A     -0.683513    12A     -0.677589
      13A     -0.649148    14A     -0.607188    15A     -0.599522
      16A     -0.561034    17A     -0.519852    18A     -0.495014
      19A     -0.472309    20A     -0.423486    21A     -0.370595

  @DF-RHF Final Energy:  -248.21341785207881

   => Energetics <=

    Nuclear Repulsion Energy =            194.8298332613729258
    One-Electron Energy =                -723.7264584677886887
    Two-Electron Energy =                 280.6832073543369575
    DFT Exchange-Correlation Energy =       0.0000000000000000
    Empirical Dispersion Energy =           0.0000000000000000
    PCM Polarization Energy =               0.0000000000000000
    EFP Energy =                            0.0000000000000000
    Total Energy =                       -248.2134178520788623
    Molecular point group: c1
  Basis Set: CC-PVTZ
  Basis Set:

  -Total Gradient:
     Atom            X                  Y                   Z
    ------   -----------------  -----------------  -----------------
       1        0.000006854431     0.000003728875     0.000011290064
       2        0.000009576131     0.000024150489    -0.000028610119
       3        0.000349267459    -0.004458340861     0.000371256201
       4       -0.000002210561     0.000008891416     0.000005996989
       5        0.001359909612    -0.000633212380    -0.003558687387
       6       -0.000603163461     0.003925345469     0.000445073391
       7       -0.000004415066     0.000002697149    -0.000002784277
       8       -0.001115852784     0.001123667011     0.002756700109
       9        0.000001045401     0.000000353438     0.000000822982
      10       -0.000001895948     0.000000355665    -0.000001584766
      11       -0.000002723524     0.000002529758    -0.000001894841
      12       -0.000001164481     0.000000453280    -0.000000869196
      13        0.000002103422    -0.000001206689     0.000000454550
      14        0.000002669370     0.000000587382     0.000002836300

  **** Optimization is complete! (in 8 steps) ****
    Final optimized geometry and variables:
    Molecular point group: c1

    Geometry (in Angstrom), charge = 0, multiplicity = 1:

    H           -2.651389083857    -0.787931283574    -0.832499087776
    N           -1.812188676736    -0.621693716014    -0.320663776260
    C           -1.184526496366     0.608474941570    -0.759991439406
    H           -1.205798924942    -1.402150467144    -0.443743412493
    C            0.259751662053     0.770965448511    -0.238815892689
    H           -1.173217562936     0.734310575561    -1.841911655815
    H           -1.774888954792     1.434871905749    -0.380859324948
    O            0.696123765004    -0.379888763742     0.411579397557
    H            0.925686984981     0.998328368415    -1.068623983815
    H            0.309182092392     1.611588700789     0.449592767154
    C            1.990003075118    -0.294082260332     0.906753996965
    H            2.221631869233    -1.231400050316     1.391332120308
    H            2.712517810885    -0.122310938850     0.111371575952
    H            2.083980508435     0.508660486992     1.634755403273

  Mulliken Charges: (a.u.)
   Center  Symbol    Alpha    Beta     Spin     Total
       1     H     0.43129  0.43129  0.00000  0.13742
       2     N     3.68374  3.68374  0.00000 -0.36748
       3     C     3.03388  3.03388  0.00000 -0.06776
       4     H     0.42314  0.42314  0.00000  0.15372
       5     C     2.95779  2.95779  0.00000  0.08442
       6     H     0.46891  0.46891  0.00000  0.06218
       7     H     0.46079  0.46079  0.00000  0.07843
       8     O     4.17182  4.17182  0.00000 -0.34365
       9     H     0.47490  0.47490  0.00000  0.05021
      10     H     0.47288  0.47288  0.00000  0.05425
      11     C     3.03130  3.03130  0.00000 -0.06259
      12     H     0.44671  0.44671  0.00000  0.10659
      13     H     0.47234  0.47234  0.00000  0.05532
      14     H     0.47053  0.47053  0.00000  0.05895

   Total alpha = 21.00000, Total beta = 21.00000, Total charge = -0.00000
