                              Psi4 1.0.54 Driver

  ==> Input File <==

--------------------------------------------------------------------------
set {
	reference rhf
	basis cc-pvtz
}

set_num_threads( 4 )
memory 2 gb

molecule MOL {
0 1

H	 -2.819723	 -0.161330	 -0.818064
O	 -2.313989	 -0.142475	 -0.025864
C	 -0.943808	 -0.065018	 -0.330000
H	 -0.812293	 -0.225641	 -1.398673
C	 -0.231030	 -1.182113	 0.407592
C	 -0.353797	 1.300461	 0.050970
H	 -0.312800	 -0.992012	 1.473041
H	 -0.738841	 -2.119564	 0.220514
C	 1.246176	 -1.268044	 -0.015480
H	 -0.539537	 2.008579	 -0.751815
H	 -0.889989	 1.662858	 0.920677
C	 1.153605	 1.231851	 0.356834
H	 1.823096	 -1.684665	 0.802361
H	 1.352335	 -1.958223	 -0.845114
C	 1.826409	 0.100723	 -0.416008
H	 1.622968	 2.181508	 0.128734
H	 1.301983	 1.066493	 1.419367
H	 2.897299	 0.112407	 -0.249665
H	 1.683458	 0.265621	 -1.480024

	symmetry c1
}
set optking {
	frozen_dihedral = ("
		1 2 3 4
	")
}

ee,wfn = optimize('scf', return_wfn=True)
oeprop( wfn, 'DIPOLE', 'QUADRUPOLE', 'MULLIKEN_CHARGES')
f=open( 'psi4out.xyz', 'w' )
f.write( "19  " )
f.write( str(ee) + "\n" )
f.write( MOL.save_string_xyz() )
f.close()
--------------------------------------------------------------------------

    Molecular point group: c1
  Charge       = 0
  Multiplicity = 1
  Basis Set: CC-PVTZ
  Basis Set:
  @DF-RHF Final Energy:  -309.16157571096448
    Total Energy =                       -309.1615757109643710
    Molecular point group: c1
  Basis Set: CC-PVTZ
  Basis Set:
  Basis Set: CC-PVTZ
  Basis Set:
  @DF-RHF Final Energy:  -309.16187822366459
    Total Energy =                       -309.1618782236647007
  Basis Set: CC-PVTZ
  Basis Set:
  Basis Set: CC-PVTZ
  Basis Set:
  @DF-RHF Final Energy:  -309.16196786403270
    Total Energy =                       -309.1619678640328175
  Basis Set: CC-PVTZ
  Basis Set:
  Basis Set: CC-PVTZ
  Basis Set:
  @DF-RHF Final Energy:  -309.16196920880060
    Total Energy =                       -309.1619692088006559
  Basis Set: CC-PVTZ
  Basis Set:
  Charge       = 0
  Multiplicity = 1
  Basis Set: CC-PVTZ
  Basis Set:

    Orbital Energies (a.u.)
    -----------------------

    Doubly Occupied:

       1A    -20.542270     2A    -11.268424     3A    -11.213288
       4A    -11.212611     5A    -11.211707     6A    -11.206654
       7A    -11.206352     8A     -1.361672     9A     -1.108839
      10A     -1.000802    11A     -0.989341    12A     -0.842151
      13A     -0.833504    14A     -0.731272    15A     -0.714222
      16A     -0.656034    17A     -0.626070    18A     -0.593176
      19A     -0.563852    20A     -0.545539    21A     -0.540374
      22A     -0.516999    23A     -0.497487    24A     -0.488376
      25A     -0.463138    26A     -0.449925    27A     -0.430435
      28A     -0.407988

  @DF-RHF Final Energy:  -309.16196936592439

   => Energetics <=

    Nuclear Repulsion Energy =            331.6113440493799089
    One-Electron Energy =               -1077.1016268054972898
    Two-Electron Energy =                 436.3283133901929318
    DFT Exchange-Correlation Energy =       0.0000000000000000
    Empirical Dispersion Energy =           0.0000000000000000
    PCM Polarization Energy =               0.0000000000000000
    EFP Energy =                            0.0000000000000000
    Total Energy =                       -309.1619693659244490
    Molecular point group: c1
  Basis Set: CC-PVTZ
  Basis Set:

  -Total Gradient:
     Atom            X                  Y                   Z
    ------   -----------------  -----------------  -----------------
       1        0.000004445261    -0.000440993938    -0.000012057137
       2        0.000001570695     0.000631319848    -0.000012590381
       3        0.000007005237    -0.000557226620     0.000088582211
       4       -0.000022517186     0.000376150189    -0.000056465308
       5        0.000018918400    -0.000000667547    -0.000007916282
       6        0.000013855451     0.000006077748    -0.000001956432
       7        0.000002060884    -0.000002291759     0.000000208848
       8        0.000000212644    -0.000004924897     0.000000889648
       9       -0.000008860636    -0.000005334878     0.000018300389
      10        0.000004051109     0.000004351634    -0.000003315044
      11        0.000000380018    -0.000008327697    -0.000001172925
      12       -0.000001119926     0.000000697770    -0.000009044759
      13        0.000003884618    -0.000008993123     0.000000893709
      14       -0.000004184298     0.000003273343     0.000000468733
      15       -0.000009876578     0.000006710043    -0.000005396103
      16       -0.000003654040     0.000002146793     0.000000644377
      17       -0.000004397206    -0.000000659339     0.000000279128
      18       -0.000001656732    -0.000002786453     0.000001428657
      19       -0.000000117721     0.000001478886    -0.000001781332

  **** Optimization is complete! (in 5 steps) ****
    Final optimized geometry and variables:
    Molecular point group: c1

    Geometry (in Angstrom), charge = 0, multiplicity = 1:

    H           -2.838453374660    -0.106937025708    -0.794456092529
    O           -2.319835041399    -0.111111056479    -0.013373853718
    C           -0.945429477486    -0.071508727614    -0.327836303662
    H           -0.823743140909    -0.224533246259    -1.397260926479
    C           -0.218011617086    -1.190128739025     0.398589776874
    C           -0.361702159944     1.294775166592     0.055179017659
    H           -0.304625670515    -1.011850067056     1.465809124666
    H           -0.714936281595    -2.132144543117     0.202876214931
    C            1.261896113217    -1.258630880907    -0.019961112737
    H           -0.552045498361     2.001160388212    -0.746646576300
    H           -0.909117892160     1.651215979531     0.919090333015
    C            1.143674670477     1.235631492157     0.369028183122
    H            1.840932929634    -1.673467601638     0.797356894358
    H            1.377695993434    -1.944098471583    -0.852566337383
    C            1.829127159603     0.117894528575    -0.411536171680
    H            1.606010172698     2.191528119428     0.152447708967
    H            1.289660092324     1.061196843934     1.430657441284
    H            2.900090806244     0.137965423998    -0.246151262115
    H            1.683793945256     0.288912208750    -1.474551466121

  Mulliken Charges: (a.u.)
   Center  Symbol    Alpha    Beta     Spin     Total
       1     H     0.39214  0.39214  0.00000  0.21571
       2     O     4.20615  4.20615  0.00000 -0.41230
       3     C     2.92609  2.92609  0.00000  0.14781
       4     H     0.46790  0.46790  0.00000  0.06419
       5     C     3.09507  3.09507  0.00000 -0.19015
       6     C     3.11005  3.11005  0.00000 -0.22009
       7     H     0.45308  0.45308  0.00000  0.09383
       8     H     0.44480  0.44480  0.00000  0.11041
       9     C     3.11383  3.11383  0.00000 -0.22766
      10     H     0.45306  0.45306  0.00000  0.09389
      11     H     0.44467  0.44467  0.00000  0.11066
      12     C     3.10094  3.10094  0.00000 -0.20189
      13     H     0.44730  0.44730  0.00000  0.10540
      14     H     0.44813  0.44813  0.00000  0.10374
      15     C     3.10280  3.10280  0.00000 -0.20560
      16     H     0.44263  0.44263  0.00000  0.11473
      17     H     0.45316  0.45316  0.00000  0.09368
      18     H     0.44309  0.44309  0.00000  0.11383
      19     H     0.45510  0.45510  0.00000  0.08980

   Total alpha = 28.00000, Total beta = 28.00000, Total charge =  0.00000

*** Psi4 exiting successfully. Buy a developer a beer!
