  ==> Input File <==

--------------------------------------------------------------------------
set {
	reference rhf
	basis 6-31G*
}

set_num_threads( 1 )
memory 2 gb

molecule MOL {
0 1

H	 1.541107	 2.393291	 -2.881630
O	 2.429643	 2.071278	 -2.925016
C	 2.997600	 2.073988	 -1.639920
C	 2.445178	 0.977207	 -0.736246
H	 4.059676	 1.925772	 -1.787234
H	 2.869546	 3.047843	 -1.168763
C	 0.953501	 1.120333	 -0.424346
H	 2.628565	 0.015875	 -1.209086
H	 3.011585	 0.986662	 0.193518
C	 0.441780	 0.035811	 0.527900
H	 0.389584	 1.083951	 -1.352268
H	 0.768240	 2.099667	 0.017155
C	 -1.027319	 0.182458	 0.940919
H	 0.591477	 -0.940996	 0.071517
H	 1.054791	 0.047087	 1.426672
C	 -2.037799	 -0.007733	 -0.193645
H	 -1.238114	 -0.548317	 1.718961
H	 -1.176605	 1.160042	 1.396860
C	 -3.489788	 0.042957	 0.286558
H	 -1.854762	 -0.964450	 -0.680781
H	 -1.893172	 0.754610	 -0.955365
C	 -4.216917	 1.317354	 -0.141063
H	 -4.025645	 -0.823308	 -0.095450
H	 -3.513059	 -0.038752	 1.371301
H	 -4.239342	 1.411634	 -1.223113
H	 -5.243387	 1.322503	 0.212445
H	 -3.726170	 2.201406	 0.256408

	symmetry c1
}
set optking {
	frozen_dihedral = ("
		14 10 7 4,
		14 10 13 16,
		10 7 4 8,
		8 4 3 2,
		10 13 16 20,
		4 3 2 1
	")
}

ee = energy('scf')
oeprop('DIPOLE', 'QUADRUPOLE', 'MULLIKEN_CHARGES')
f=open( 'psi4out.xyz', 'w' )
f.write( "27  " )
f.write( str(ee) + "\n" )
f.write( MOL.save_string_xyz() )
f.close()
--------------------------------------------------------------------------

    Molecular point group: c1

    Geometry (in Angstrom), charge = 0, multiplicity = 1:

       Center              X                  Y                   Z               Mass
    ------------   -----------------  -----------------  -----------------  -----------------
           H          1.682629487587     1.491991017706    -2.358568253654     1.007825032070
           O          2.571165487587     1.169978017706    -2.401954253654    15.994914619560
           C          3.139122487587     1.172688017706    -1.116858253654    12.000000000000
           C          2.586700487587     0.075907017706    -0.213184253654    12.000000000000
           H          4.201198487587     1.024472017706    -1.264172253654     1.007825032070
           H          3.011068487587     2.146543017706    -0.645701253654     1.007825032070
           C          1.095023487587     0.219033017706     0.098715746346    12.000000000000
           H          2.770087487587    -0.885424982294    -0.686024253654     1.007825032070
           H          3.153107487587     0.085362017706     0.716579746346     1.007825032070
           C          0.583302487587    -0.865488982294     1.050961746346    12.000000000000
           H          0.531106487587     0.182651017706    -0.829206253654     1.007825032070
           H          0.909762487587     1.198367017706     0.540216746346     1.007825032070
           C         -0.885796512413    -0.718841982294     1.463980746346    12.000000000000
           H          0.732999487587    -1.842295982294     0.594578746346     1.007825032070
           H          1.196313487587    -0.854212982294     1.949733746346     1.007825032070
           C         -1.896276512413    -0.909032982294     0.329416746346    12.000000000000
           H         -1.096591512413    -1.449616982294     2.242022746346     1.007825032070
           H         -1.035082512413     0.258742017706     1.919921746346     1.007825032070
           C         -3.348265512413    -0.858342982294     0.809619746346    12.000000000000
           H         -1.713239512413    -1.865749982294    -0.157719253654     1.007825032070
           H         -1.751649512413    -0.146689982294    -0.432303253654     1.007825032070
           C         -4.075394512413     0.416054017706     0.381998746346    12.000000000000
           H         -3.884122512413    -1.724607982294     0.427611746346     1.007825032070
           H         -3.371536512413    -0.940051982294     1.894362746346     1.007825032070
           H         -4.097819512413     0.510334017706    -0.700051253654     1.007825032070
           H         -5.101864512413     0.421203017706     0.735506746346     1.007825032070
           H         -3.584647512413     1.300106017706     0.779469746346     1.007825032070

  Charge       = 0
  Multiplicity = 1
  Basis Set: 6-31G*
  Basis Set:

    Orbital Energies (a.u.)
    -----------------------

    Doubly Occupied:

       1A    -20.552244     2A    -11.267008     3A    -11.219699
       4A    -11.216965     5A    -11.216034     6A    -11.215127
       7A    -11.214572     8A    -11.212835     9A    -11.209987
      10A     -1.358989    11A     -1.095440    12A     -1.061676
      13A     -1.010772    14A     -0.947749    15A     -0.889370
      16A     -0.822868    17A     -0.801218    18A     -0.776336
      19A     -0.693673    20A     -0.649731    21A     -0.624373
      22A     -0.616605    23A     -0.614114    24A     -0.587222
      25A     -0.580556    26A     -0.551915    27A     -0.534764
      28A     -0.532568    29A     -0.509392    30A     -0.490220
      31A     -0.488983    32A     -0.475306    33A     -0.471113
      34A     -0.453341    35A     -0.452130    36A     -0.440638
      37A     -0.422591

  @DF-RHF Final Energy:  -388.27621742953392

   => Energetics <=

    Nuclear Repulsion Energy =            462.2605661688442638
    One-Electron Energy =               -1442.5180361135896874
    Two-Electron Energy =                 591.9812525152105991
    DFT Exchange-Correlation Energy =       0.0000000000000000
    Empirical Dispersion Energy =           0.0000000000000000
    PCM Polarization Energy =               0.0000000000000000
    EFP Energy =                            0.0000000000000000
    Total Energy =                       -388.2762174295348814

  Mulliken Charges: (a.u.)
   Center  Symbol    Alpha    Beta     Spin     Total
       1     H     0.27989  0.27989  0.00000  0.44021
       2     O     4.37095  4.37095  0.00000 -0.74190
       3     C     2.99737  2.99737  0.00000  0.00526
       4     C     3.16089  3.16089  0.00000 -0.32178
       5     H     0.41446  0.41446  0.00000  0.17109
       6     H     0.43206  0.43206  0.00000  0.13589
       7     C     3.16325  3.16325  0.00000 -0.32651
       8     H     0.41498  0.41498  0.00000  0.17004
       9     H     0.42435  0.42435  0.00000  0.15131
      10     C     3.15245  3.15245  0.00000 -0.30490
      11     H     0.42285  0.42285  0.00000  0.15431
      12     H     0.42554  0.42554  0.00000  0.14891
      13     C     3.15556  3.15556  0.00000 -0.31111
      14     H     0.42157  0.42157  0.00000  0.15686
      15     H     0.42165  0.42165  0.00000  0.15669
      16     C     3.15626  3.15626  0.00000 -0.31252
      17     H     0.42050  0.42050  0.00000  0.15899
      18     H     0.42418  0.42418  0.00000  0.15165
      19     C     3.15411  3.15411  0.00000 -0.30823
      20     H     0.42102  0.42102  0.00000  0.15796
      21     H     0.42106  0.42106  0.00000  0.15789
      22     C     3.24031  3.24031  0.00000 -0.48062
      23     H     0.42001  0.42001  0.00000  0.15998
      24     H     0.42047  0.42047  0.00000  0.15905
      25     H     0.42165  0.42165  0.00000  0.15671
      26     H     0.42002  0.42002  0.00000  0.15996
      27     H     0.42260  0.42260  0.00000  0.15481

   Total alpha = 37.00000, Total beta = 37.00000, Total charge = -0.00000
