  ==> Input File <==

--------------------------------------------------------------------------
set {
	reference rhf
	basis 6-31G*
}

set_num_threads( 1 )
memory 2 gb

molecule MOL {
0 1

H	 2.474999	 2.089865	 2.862986
N	 1.636288	 1.542562	 2.839178
C	 1.116666	 1.453402	 1.482133
H	 0.975527	 1.999374	 3.438801
C	 -0.103902	 0.540379	 1.433594
H	 1.900262	 1.037998	 0.855815
H	 0.858645	 2.426410	 1.056597
C	 -0.679275	 0.379305	 0.025956
H	 0.175988	 -0.428134	 1.837919
H	 -0.873329	 0.939536	 2.093892
C	 -1.903357	 -0.536963	 -0.023547
H	 0.090096	 -0.016796	 -0.635119
H	 -0.948384	 1.356638	 -0.371848
C	 -3.225172	 0.228290	 0.028445
H	 -1.867824	 -1.134999	 -0.931459
H	 -1.860449	 -1.239604	 0.805977
H	 -3.313397	 0.915643	 -0.808262
H	 -4.073500	 -0.448134	 -0.008893
H	 -3.306061	 0.809945	 0.942516

	symmetry c1
}
set optking {
	frozen_dihedral = ("
		6 3 5 9,
		12 8 5 9,
		1 2 3 6
	")
}

ee = energy('scf')
oeprop('DIPOLE', 'QUADRUPOLE', 'MULLIKEN_CHARGES')
f=open( 'psi4out.xyz', 'w' )
f.write( "19  " )
f.write( str(ee) + "\n" )
f.write( MOL.save_string_xyz() )
f.close()
--------------------------------------------------------------------------

    Molecular point group: c1

    Geometry (in Angstrom), charge = 0, multiplicity = 1:

       Center              X                  Y                   Z               Mass
    ------------   -----------------  -----------------  -----------------  -----------------
           H          2.985548083031     1.461354096422     1.871740091142     1.007825032070
           N          2.146837083031     0.914051096422     1.847932091142    14.003074004780
           C          1.627215083031     0.824891096422     0.490887091142    12.000000000000
           H          1.486076083031     1.370863096422     2.447555091142     1.007825032070
           C          0.406647083031    -0.088131903578     0.442348091142    12.000000000000
           H          2.410811083031     0.409487096422    -0.135430908858     1.007825032070
           H          1.369194083031     1.797899096422     0.065351091142     1.007825032070
           C         -0.168725916969    -0.249205903578    -0.965289908858    12.000000000000
           H          0.686537083031    -1.056644903578     0.846673091142     1.007825032070
           H         -0.362779916969     0.311025096422     1.102646091142     1.007825032070
           C         -1.392807916969    -1.165473903578    -1.014792908858    12.000000000000
           H          0.600645083031    -0.645306903578    -1.626364908858     1.007825032070
           H         -0.437834916969     0.728127096422    -1.363093908858     1.007825032070
           C         -2.714622916969    -0.400220903578    -0.962800908858    12.000000000000
           H         -1.357274916969    -1.763509903578    -1.922704908858     1.007825032070
           H         -1.349899916969    -1.868114903578    -0.185268908858     1.007825032070
           H         -2.802847916969     0.287132096422    -1.799507908858     1.007825032070
           H         -3.562950916969    -1.076644903578    -1.000138908858     1.007825032070
           H         -2.795511916969     0.181434096422    -0.048729908858     1.007825032070

  Charge       = 0
  Multiplicity = 1
  Basis Set: 6-31G*
  Basis Set:

    Orbital Energies (a.u.)
    -----------------------

    Doubly Occupied:

       1A    -15.532419     2A    -11.239450     3A    -11.212788
       4A    -11.211580     5A    -11.209641     6A    -11.207736
       7A     -1.176529     8A     -1.073578     9A     -0.996372
      10A     -0.901610    11A     -0.818157    12A     -0.784200
      13A     -0.663491    14A     -0.636659    15A     -0.612188
      16A     -0.601839    17A     -0.562124    18A     -0.556837
      19A     -0.518760    20A     -0.497129    21A     -0.492217
      22A     -0.465475    23A     -0.451994    24A     -0.448995
      25A     -0.380822

  @DF-RHF Final Energy:  -251.34757373709238

   => Energetics <=

    Nuclear Repulsion Energy =            247.9140282002048821
    One-Electron Energy =                -830.0180761390205362
    Two-Electron Energy =                 330.7564742017231652
    DFT Exchange-Correlation Energy =       0.0000000000000000
    Empirical Dispersion Energy =           0.0000000000000000
    PCM Polarization Energy =               0.0000000000000000
    EFP Energy =                            0.0000000000000000
    Total Energy =                       -251.3475737370925458

  Mulliken Charges: (a.u.)
   Center  Symbol    Alpha    Beta     Spin     Total
       1     H     0.33252  0.33252  0.00000  0.33496
       2     N     3.92189  3.92189  0.00000 -0.84378
       3     C     3.06042  3.06042  0.00000 -0.12083
       4     H     0.33542  0.33542  0.00000  0.32915
       5     C     3.15296  3.15296  0.00000 -0.30591
       6     H     0.42081  0.42081  0.00000  0.15838
       7     H     0.43478  0.43478  0.00000  0.13044
       8     C     3.15826  3.15826  0.00000 -0.31652
       9     H     0.41256  0.41256  0.00000  0.17488
      10     H     0.42749  0.42749  0.00000  0.14503
      11     C     3.15387  3.15387  0.00000 -0.30774
      12     H     0.42121  0.42121  0.00000  0.15758
      13     H     0.42312  0.42312  0.00000  0.15376
      14     C     3.23999  3.23999  0.00000 -0.47998
      15     H     0.42056  0.42056  0.00000  0.15889
      16     H     0.42017  0.42017  0.00000  0.15966
      17     H     0.42184  0.42184  0.00000  0.15632
      18     H     0.41988  0.41988  0.00000  0.16023
      19     H     0.42226  0.42226  0.00000  0.15547

   Total alpha = 25.00000, Total beta = 25.00000, Total charge =  0.00000
