  ==> Input File <==

--------------------------------------------------------------------------
set {
	reference rhf
	basis cc-pvtz
}

set_num_threads( 4 )
memory 2 gb

molecule MOL {
0 1

H	 0.029738	 3.900720	 -1.541770
O	 -0.420560	 3.137463	 -1.854135
C	 -0.283447	 2.086343	 -0.939539
C	 1.113052	 1.497824	 -0.974568
H	 -0.519158	 2.403669	 0.071339
H	 -1.000442	 1.328249	 -1.220418
O	 1.172093	 0.457955	 -0.054438
H	 1.847370	 2.267157	 -0.730031
H	 1.333369	 1.144208	 -1.979551
C	 2.395478	 -0.199028	 -0.000366
H	 2.505946	 -0.901710	 -0.823354
H	 3.174616	 0.545641	 -0.071768
H	 2.513730	 -0.742241	 0.934223

	symmetry c1
}
set optking {
	frozen_dihedral = ("
		4 7 10 13
	")
}

ee = optimize('scf')
oeprop('DIPOLE', 'QUADRUPOLE', 'MULLIKEN_CHARGES')
f=open( 'psi4out.xyz', 'w' )
f.write( "13  " )
f.write( str(ee) + "\n" )
f.write( MOL.save_string_xyz() )
f.close()
--------------------------------------------------------------------------

    Molecular point group: c1
  Charge       = 0
  Multiplicity = 1
  Basis Set: CC-PVTZ
  Basis Set:
  @DF-RHF Final Energy:  -268.06046606260600
    Total Energy =                       -268.0604660626059399
    Molecular point group: c1
  Basis Set: CC-PVTZ
  Basis Set:
  Basis Set: CC-PVTZ
  Basis Set:
  @DF-RHF Final Energy:  -268.06123443843978
    Total Energy =                       -268.0612344384396692
  Basis Set: CC-PVTZ
  Basis Set:
  Basis Set: CC-PVTZ
  Basis Set:
  @DF-RHF Final Energy:  -268.06142777364511
    Total Energy =                       -268.0614277736448230
  Basis Set: CC-PVTZ
  Basis Set:
  Charge       = 0
  Multiplicity = 1
  Basis Set: CC-PVTZ
  Basis Set:

    Orbital Energies (a.u.)
    -----------------------

    Doubly Occupied:

       1A    -20.555215     2A    -20.552791     3A    -11.269401
       4A    -11.267679     5A    -11.267355     6A     -1.391064
       7A     -1.369089     8A     -1.019664     9A     -0.914060
      10A     -0.842836    11A     -0.711694    12A     -0.676169
      13A     -0.662648    14A     -0.638623    15A     -0.598934
      16A     -0.569058    17A     -0.549297    18A     -0.490055
      19A     -0.484078    20A     -0.441600    21A     -0.423635

  @DF-RHF Final Energy:  -268.06142877747823

   => Energetics <=

    Nuclear Repulsion Energy =            190.4402303386972903
    One-Electron Energy =                -743.6134352102684488
    Two-Electron Energy =                 285.1117760940929884
    DFT Exchange-Correlation Energy =       0.0000000000000000
    Empirical Dispersion Energy =           0.0000000000000000
    PCM Polarization Energy =               0.0000000000000000
    EFP Energy =                            0.0000000000000000
    Total Energy =                       -268.0614287774782269
    Molecular point group: c1
  Basis Set: CC-PVTZ
  Basis Set:

  -Total Gradient:
     Atom            X                  Y                   Z
    ------   -----------------  -----------------  -----------------
       1        0.000004181185     0.000007603943    -0.000000207697
       2        0.000074262921    -0.000060545047     0.000043639253
       3       -0.000065711071    -0.000069307677     0.000060826401
       4        0.000746339849     0.001249794896     0.001274741966
       5       -0.000014731667     0.000019168804     0.000002898361
       6       -0.000008510095    -0.000005707838     0.000003358016
       7       -0.000656612215    -0.001324412809    -0.001692211696
       8        0.000011576866    -0.000017916541     0.000022195576
       9        0.000003891027    -0.000009275356     0.000001491081
      10       -0.000963350459    -0.001793826624    -0.000688199411
      11       -0.000055818381     0.000022647938    -0.000005057002
      12       -0.000015255957     0.000028214556    -0.000010158824
      13        0.000939737997     0.001953561754     0.000986683977

  **** Optimization is complete! (in 4 steps) ****
    Final optimized geometry and variables:
    Molecular point group: c1

    Geometry (in Angstrom), charge = 0, multiplicity = 1:

    H           -0.783400347221     2.477839432704    -0.756991455348
    O           -1.229766955412     1.713613567917    -1.072640888417
    C           -1.084884845140     0.658648372594    -0.163699967237
    C            0.315229250082     0.079338517691    -0.204165107650
    H           -1.320223201083     0.969398968484     0.849354701038
    H           -1.798045570297    -0.102164451568    -0.446928457751
    O            0.383337465302    -0.958314887325     0.718074778395
    H            1.045558439222     0.852255328016     0.038811490004
    H            0.533167333941    -0.271473695561    -1.210884620415
    C            1.605280487937    -1.621132048109     0.768348043411
    H            1.701971140066    -2.338641210901    -0.041861716554
    H            2.436943965125    -0.922916551210     0.710899439821
    H            1.667836043706    -2.135977890662     1.716339990585

  Mulliken Charges: (a.u.)
   Center  Symbol    Alpha    Beta     Spin     Total
       1     H     0.39407  0.39407  0.00000  0.21186
       2     O     4.20215  4.20215  0.00000 -0.40430
       3     C     2.97389  2.97389  0.00000  0.05223
       4     C     2.96508  2.96508  0.00000  0.06984
       5     H     0.46711  0.46711  0.00000  0.06578
       6     H     0.45255  0.45255  0.00000  0.09491
       7     O     4.17663  4.17663  0.00000 -0.35326
       8     H     0.48080  0.48080  0.00000  0.03841
       9     H     0.47063  0.47063  0.00000  0.05874
      10     C     3.03037  3.03037  0.00000 -0.06073
      11     H     0.46510  0.46510  0.00000  0.06981
      12     H     0.47367  0.47367  0.00000  0.05266
      13     H     0.44797  0.44797  0.00000  0.10406

   Total alpha = 21.00000, Total beta = 21.00000, Total charge = -0.00000
