  ==> Input File <==

--------------------------------------------------------------------------
set {
	reference rhf
	basis cc-pvtz
}

set_num_threads( 4 )
memory 2 gb

molecule MOL {
0 1

H	 3.294979	 -0.422341	 0.030618
C	 2.236783	 -0.243085	 0.023353
C	 1.434462	 -0.891881	 -0.903295
C	 1.682527	 0.631637	 0.936139
H	 1.872575	 -1.570239	 -1.609469
C	 0.076505	 -0.664741	 -0.916017
H	 2.305564	 1.131984	 1.651648
C	 0.318561	 0.858729	 0.922126
H	 -0.560013	 -1.156548	 -1.624273
C	 -0.486398	 0.214248	 0.000000
H	 -0.119458	 1.538226	 1.629656
C	 -1.946525	 0.470130	 0.000000
O	 -2.779618	 -0.371226	 0.000000
H	 -2.227127	 1.528393	 0.000000

	symmetry c1
}
set optking {
	frozen_dihedral = ("
		8 10 12 14
	")
}

ee = optimize('scf')
oeprop('DIPOLE', 'QUADRUPOLE', 'MULLIKEN_CHARGES')
f=open( 'psi4out.xyz', 'w' )
f.write( "14  " )
f.write( str(ee) + "\n" )
f.write( MOL.save_string_xyz() )
f.close()
--------------------------------------------------------------------------

    Molecular point group: c1
  Charge       = 0
  Multiplicity = 1
  Basis Set: CC-PVTZ
  Basis Set:
  @DF-RHF Final Energy:  -343.54250746059199
    Total Energy =                       -343.5425074605919917
    Molecular point group: c1
  Basis Set: CC-PVTZ
  Basis Set:
  Basis Set: CC-PVTZ
  Basis Set:
  @DF-RHF Final Energy:  -343.54041572784450
    Total Energy =                       -343.5404157278446746
  Basis Set: CC-PVTZ
  Basis Set:
  Basis Set: CC-PVTZ
  Basis Set:
  @DF-RHF Final Energy:  -343.54324859604759
    Total Energy =                       -343.5432485960475333
  Basis Set: CC-PVTZ
  Basis Set:
  Basis Set: CC-PVTZ
  Basis Set:
  @DF-RHF Final Energy:  -343.54331699545457
    Total Energy =                       -343.5433169954544610
  Basis Set: CC-PVTZ
  Basis Set:
  Charge       = 0
  Multiplicity = 1
  Basis Set: CC-PVTZ
  Basis Set:

    Orbital Energies (a.u.)
    -----------------------

    Doubly Occupied:

       1A    -20.558303     2A    -11.329768     3A    -11.249757
       4A    -11.247932     5A    -11.245756     6A    -11.245263
       7A    -11.242867     8A    -11.241460     9A     -1.413375
      10A     -1.175631    11A     -1.050050    12A     -1.034525
      13A     -0.891295    14A     -0.846421    15A     -0.796473
      16A     -0.725546    17A     -0.681217    18A     -0.657188
      19A     -0.634951    20A     -0.621531    21A     -0.605220
      22A     -0.549583    23A     -0.530597    24A     -0.512664
      25A     -0.507605    26A     -0.426393    27A     -0.353423
      28A     -0.351759

  @DF-RHF Final Energy:  -343.54331808748759

   => Energetics <=

    Nuclear Repulsion Energy =            323.8258955036723137
    One-Electron Energy =               -1107.2853162563346814
    Two-Electron Energy =                 439.9161026651747761
    DFT Exchange-Correlation Energy =       0.0000000000000000
    Empirical Dispersion Energy =           0.0000000000000000
    PCM Polarization Energy =               0.0000000000000000
    EFP Energy =                            0.0000000000000000
    Total Energy =                       -343.5433180874875916
    Molecular point group: c1
  Basis Set: CC-PVTZ
  Basis Set:

  -Total Gradient:
     Atom            X                  Y                   Z
    ------   -----------------  -----------------  -----------------
       1       -0.000005323591    -0.000022399605     0.000012851465
       2        0.000027346614     0.000127024346     0.000014527146
       3       -0.000068269394     0.000049774666    -0.000104569923
       4        0.000059020934    -0.000137325462     0.000062306167
       5        0.000003508162    -0.000014596359     0.000015142618
       6        0.000048247753    -0.000140421693     0.000075321227
       7        0.000001768150     0.000016381069    -0.000005655163
       8       -0.000633365779    -0.004491001423     0.003488991791
       9        0.000004163208     0.000056346886    -0.000020645814
      10        0.000720938433     0.006726320996    -0.007435258085
      11        0.000005415637    -0.000007230889    -0.000006922982
      12       -0.000086105625    -0.002436579888     0.010975357702
      13        0.000038314647    -0.000006233499     0.000012283267
      14       -0.000115659150     0.000279940853    -0.007083729416

  **** Optimization is complete! (in 5 steps) ****
    Final optimized geometry and variables:
    Molecular point group: c1

    Geometry (in Angstrom), charge = 0, multiplicity = 1:

    H            3.288067620304    -0.443913894495     0.041555164515
    C            2.232642384172    -0.249899920007     0.028591195762
    C            1.425287225766    -0.886974011738    -0.897927428106
    C            1.682654824636     0.630341630788     0.940301176712
    H            1.854269509334    -1.574624415196    -1.600923902656
    C            0.066120033897    -0.650853361032    -0.907420755894
    H            2.306202908666     1.113802610994     1.667187526879
    C            0.325243281596     0.888341111621     0.912588068790
    H           -0.572705954707    -1.161762578325    -1.600730002288
    C           -0.483649859944     0.257190801775    -0.016195365980
    H           -0.102846712115     1.580237107947     1.614557972053
    C           -1.958398416456     0.466778375661     0.021933471855
    O           -2.750828161716    -0.405817116801    -0.073442479614
    H           -2.287617637765     1.510163708445     0.069122300692

  Mulliken Charges: (a.u.)
   Center  Symbol    Alpha    Beta     Spin     Total
       1     H     0.42024  0.42024  0.00000  0.15952
       2     C     3.07644  3.07644  0.00000 -0.15287
       3     C     3.06636  3.06636  0.00000 -0.13272
       4     C     3.06988  3.06988  0.00000 -0.13975
       5     H     0.42048  0.42048  0.00000  0.15905
       6     C     3.08800  3.08800  0.00000 -0.17599
       7     H     0.42076  0.42076  0.00000  0.15847
       8     C     3.09226  3.09226  0.00000 -0.18453
       9     H     0.41419  0.41419  0.00000  0.17162
      10     C     2.96211  2.96211  0.00000  0.07578
      11     H     0.42376  0.42376  0.00000  0.15249
      12     C     2.92643  2.92643  0.00000  0.14715
      13     O     4.16338  4.16338  0.00000 -0.32675
      14     H     0.45573  0.45573  0.00000  0.08855

   Total alpha = 28.00000, Total beta = 28.00000, Total charge = -0.00000
