  ==> Input File <==

--------------------------------------------------------------------------
set {
	reference rhf
	basis 6-31G*
}

set_num_threads( 4 )
memory 2 gb

molecule MOL {
0 1

O	 2.698531	 0.336847	 -1.538709
C	 2.394770	 -0.308526	 -0.587771
C	 1.245376	 -0.013843	 0.345420
O	 3.047155	 -1.402500	 -0.214617
C	 0.455112	 1.231400	 -0.050772
H	 0.620979	 -0.900778	 0.371269
H	 1.659059	 0.087187	 1.345597
C	 -0.998893	 1.219485	 0.433193
H	 0.482531	 1.345121	 -1.130325
H	 0.957290	 2.103070	 0.354729
C	 -1.883438	 0.145884	 -0.207175
H	 -1.431207	 2.195402	 0.224832
H	 -1.019646	 1.105716	 1.516076
C	 -3.347647	 0.245583	 0.225435
H	 -1.822183	 0.231698	 -1.291012
H	 -1.510341	 -0.844814	 0.042401
C	 -4.239992	 -0.825570	 -0.404234
H	 -3.732888	 1.230466	 -0.033079
H	 -3.408585	 0.170602	 1.310038
C	 -5.701275	 -0.716658	 0.029921
H	 -4.179496	 -0.752714	 -1.488058
H	 -3.859041	 -1.810759	 -0.143352
H	 -6.308102	 -1.488908	 -0.432678
H	 -6.122175	 0.245478	 -0.248167
H	 -5.799072	 -0.820114	 1.106957
C	 4.154033	 -1.792229	 -1.006966
H	 3.842430	 -1.995812	 -2.021343
H	 4.544256	 -2.687693	 -0.548843
H	 4.907031	 -1.017337	 -1.015540

	symmetry c1
}
set optking {
	frozen_dihedral = ("
		6 3 5 9
	")
}

ee = optimize('scf')
oeprop('DIPOLE', 'QUADRUPOLE', 'MULLIKEN_CHARGES')
f=open( 'psi4out.xyz', 'w' )
f.write( "29  " )
f.write( str(ee) + "\n" )
f.write( MOL.save_string_xyz() )
f.close()
--------------------------------------------------------------------------

    Molecular point group: c1
  Charge       = 0
  Multiplicity = 1
  Basis Set: 6-31G*
  Basis Set:
  @DF-RHF Final Energy:  -501.04163409287901
    Total Energy =                       -501.0416340928786667
    Molecular point group: c1
  Basis Set: 6-31G*
  Basis Set:
  Basis Set: 6-31G*
  Basis Set:
  @DF-RHF Final Energy:  -501.04181812177217
    Total Energy =                       -501.0418181217715983
  Basis Set: 6-31G*
  Basis Set:
  Basis Set: 6-31G*
  Basis Set:
  @DF-RHF Final Energy:  -501.04208689552024
    Total Energy =                       -501.0420868955199012
  Basis Set: 6-31G*
  Basis Set:
  Basis Set: 6-31G*
  Basis Set:
  @DF-RHF Final Energy:  -501.04198578336673
    Total Energy =                       -501.0419857833660444
  Basis Set: 6-31G*
  Basis Set:
  Basis Set: 6-31G*
  Basis Set:
  @DF-RHF Final Energy:  -501.04206777965294
    Total Energy =                       -501.0420677796520295
  Basis Set: 6-31G*
  Basis Set:
  Basis Set: 6-31G*
  Basis Set:
  @DF-RHF Final Energy:  -501.04212465816306
    Total Energy =                       -501.0421246581631749
  Basis Set: 6-31G*
  Basis Set:
  Charge       = 0
  Multiplicity = 1
  Basis Set: 6-31G*
  Basis Set:

    Orbital Energies (a.u.)
    -----------------------

    Doubly Occupied:

       1A    -20.603545     2A    -20.545559     3A    -11.372560
       4A    -11.280759     5A    -11.234548     6A    -11.218457
       7A    -11.217690     8A    -11.215395     9A    -11.215251
      10A    -11.213989    11A    -11.208678    12A     -1.469344
      13A     -1.362764    14A     -1.097158    15A     -1.066107
      16A     -1.019452    17A     -0.977067    18A     -0.928277
      19A     -0.861154    20A     -0.799414    21A     -0.789860
      22A     -0.764775    23A     -0.702037    24A     -0.681816
      25A     -0.672639    26A     -0.649354    27A     -0.626996
      28A     -0.605541    29A     -0.595184    30A     -0.580543
      31A     -0.566279    32A     -0.547495    33A     -0.535073
      34A     -0.529991    35A     -0.516507    36A     -0.506649
      37A     -0.495601    38A     -0.477342    39A     -0.469766
      40A     -0.461858    41A     -0.459480    42A     -0.456620
      43A     -0.441133    44A     -0.434819

  @DF-RHF Final Energy:  -501.04212409586808

   => Energetics <=

    Nuclear Repulsion Energy =            612.3598005208391442
    One-Electron Energy =               -1895.8547876913914934
    Two-Electron Energy =                 782.4528630746838189
    DFT Exchange-Correlation Energy =       0.0000000000000000
    Empirical Dispersion Energy =           0.0000000000000000
    PCM Polarization Energy =               0.0000000000000000
    EFP Energy =                            0.0000000000000000
    Total Energy =                       -501.0421240958685303
    Molecular point group: c1
  Basis Set: 6-31G*
  Basis Set:

  -Total Gradient:
     Atom            X                  Y                   Z
    ------   -----------------  -----------------  -----------------
       1       -0.000065929444     0.000036724257    -0.000044070045
       2        0.000068871544     0.000056575009     0.000038436978
       3        0.001436517653    -0.000490489878    -0.003917483569
       4       -0.000029965591    -0.000066149897     0.000027544817
       5       -0.003386098000    -0.002111477839     0.000734321646
       6       -0.000597847861     0.000706315443     0.003123376373
       7        0.000033964474     0.000021269248    -0.000005085770
       8        0.000020233986    -0.000039007165    -0.000049591918
       9        0.002613288450     0.001831139124     0.000132042003
      10       -0.000032975856     0.000003299846     0.000018639324
      11       -0.000031459659     0.000019088292    -0.000074084078
      12        0.000069060132     0.000037290202    -0.000023692753
      13       -0.000010348151    -0.000005237539    -0.000007181173
      14        0.000018727538    -0.000048048505     0.000043828813
      15       -0.000033524799     0.000022524474    -0.000032778419
      16       -0.000074829795     0.000028057987     0.000006730258
      17        0.000015506685    -0.000022522606     0.000020789981
      18        0.000001744790    -0.000023253038    -0.000004692951
      19        0.000006612134     0.000000822642     0.000018930502
      20       -0.000003515062     0.000021895982    -0.000013763312
      21        0.000015119599    -0.000007173910    -0.000001731394
      22       -0.000010062548    -0.000002881891     0.000013926941
      23        0.000000364952     0.000005959058    -0.000006487929
      24       -0.000006717804     0.000004604257     0.000005064877
      25        0.000005965910    -0.000002540545    -0.000007671323
      26       -0.000008908834     0.000024510985    -0.000003817354
      27       -0.000000931339    -0.000000230878     0.000000326317
      28       -0.000012497958     0.000001175149     0.000008867466
      29       -0.000000365163    -0.000002238264    -0.000000694306

  **** Optimization is complete! (in 7 steps) ****
    Final optimized geometry and variables:
    Molecular point group: c1

    Geometry (in Angstrom), charge = 0, multiplicity = 1:

    O            2.893511572481     0.469782343687    -1.288204784010
    C            2.589345311860    -0.134886289403    -0.310979702204
    C            1.410189130153     0.164550967978     0.581461578504
    O            3.271857574763    -1.181726195362     0.135924330874
    C            0.587142079037     1.379448401117     0.143416953220
    H            0.808875344012    -0.735769314364     0.652899830572
    H            1.802870340125     0.311146420020     1.584223343968
    C           -0.849473359471     1.381224121813     0.676908148920
    H            0.595985924277     1.453959164867    -0.938026467922
    H            1.093644916137     2.274660748797     0.492771083898
    C           -1.783604299684     0.380095539660    -0.009110122752
    H           -1.260203288049     2.379750903336     0.548329346008
    H           -0.840745951880     1.195584086387     1.750070168054
    C           -3.210921946572     0.423771183507     0.540262026120
    H           -1.802011831363     0.587987637987    -1.077371469173
    H           -1.397060826527    -0.631142778343     0.096595540228
    C           -4.154596879858    -0.565695566388    -0.145717089253
    H           -3.607793305590     1.431701408109     0.431133531298
    H           -3.192188048421     0.218849560364     1.609556052334
    C           -5.580236571445    -0.509480565842     0.402092000882
    H           -4.170937805219    -0.365068918799    -1.214821279639
    H           -3.763964048695    -1.574684943075    -0.031078551358
    H           -6.224875884481    -1.221444330476    -0.104032360017
    H           -6.011927125562     0.478776719196     0.270909054529
    H           -5.601883650210    -0.740177941986     1.463512266466
    C            4.410674148043    -1.572141508477    -0.609424158155
    H            4.131138087117    -1.841074994478    -1.617901399000
    H            4.821221814010    -2.426830576126    -0.094703269037
    H            5.135556153320    -0.771570046527    -0.643228083002

  Mulliken Charges: (a.u.)
   Center  Symbol    Alpha    Beta     Spin     Total
       1     O     4.28552  4.28552  0.00000 -0.57104
       2     C     2.60716  2.60716  0.00000  0.78568
       3     C     3.21065  3.21065  0.00000 -0.42131
       4     O     4.30662  4.30662  0.00000 -0.61324
       5     C     3.15757  3.15757  0.00000 -0.31514
       6     H     0.39883  0.39883  0.00000  0.20234
       7     H     0.39965  0.39965  0.00000  0.20070
       8     C     3.15759  3.15759  0.00000 -0.31518
       9     H     0.40266  0.40266  0.00000  0.19468
      10     H     0.41518  0.41518  0.00000  0.16965
      11     C     3.15361  3.15361  0.00000 -0.30722
      12     H     0.41841  0.41841  0.00000  0.16318
      13     H     0.42424  0.42424  0.00000  0.15151
      14     C     3.15047  3.15047  0.00000 -0.30094
      15     H     0.42091  0.42091  0.00000  0.15819
      16     H     0.42476  0.42476  0.00000  0.15047
      17     C     3.15149  3.15149  0.00000 -0.30298
      18     H     0.42346  0.42346  0.00000  0.15308
      19     H     0.42427  0.42427  0.00000  0.15146
      20     C     3.23934  3.23934  0.00000 -0.47867
      21     H     0.42245  0.42245  0.00000  0.15510
      22     H     0.42343  0.42343  0.00000  0.15314
      23     H     0.41923  0.41923  0.00000  0.16155
      24     H     0.42161  0.42161  0.00000  0.15679
      25     H     0.42198  0.42198  0.00000  0.15604
      26     C     3.09227  3.09227  0.00000 -0.18455
      27     H     0.40907  0.40907  0.00000  0.18186
      28     H     0.40851  0.40851  0.00000  0.18298
      29     H     0.40906  0.40906  0.00000  0.18187

   Total alpha = 44.00000, Total beta = 44.00000, Total charge =  0.00000
