  ==> Input File <==

--------------------------------------------------------------------------
set {
	reference rhf
	basis 6-31G*
}

set_num_threads( 1 )
memory 2 gb

molecule MOL {
0 1

H	 1.136379	 0.211822	 1.465562
C	 1.135357	 0.094285	 0.374742
C	 0.065331	 0.871482	 -0.349150
O	 1.941633	 -0.601957	 -0.151457
C	 0.552419	 1.423284	 -1.696644
H	 -0.280754	 1.665433	 0.302601
H	 -0.767435	 0.190714	 -0.520080
C	 1.632213	 2.496844	 -1.555448
H	 -0.299652	 1.834702	 -2.228357
H	 0.925374	 0.604843	 -2.308772
H	 1.268326	 3.339829	 -0.976234
H	 1.937592	 2.867515	 -2.528414
H	 2.517412	 2.114504	 -1.055820

	symmetry c1
}
set optking {
	frozen_dihedral = ("
		6 3 5 9
	")
}

ee = energy('scf')
oeprop('DIPOLE', 'QUADRUPOLE', 'MULLIKEN_CHARGES')
f=open( 'psi4out.xyz', 'w' )
f.write( "13  " )
f.write( str(ee) + "\n" )
f.write( MOL.save_string_xyz() )
f.close()
--------------------------------------------------------------------------

    Molecular point group: c1

    Geometry (in Angstrom), charge = 0, multiplicity = 1:

       Center              X                  Y                   Z               Mass
    ------------   -----------------  -----------------  -----------------  -----------------
           H          0.051582947611    -0.647661448130     2.146288757877     1.007825032070
           C          0.050560947611    -0.765198448130     1.055468757877    12.000000000000
           C         -1.019465052389     0.011998551870     0.331576757877    12.000000000000
           O          0.856836947611    -1.461440448130     0.529269757877    15.994914619560
           C         -0.532377052389     0.563800551870    -1.015917242123    12.000000000000
           H         -1.365550052389     0.805949551870     0.983327757877     1.007825032070
           H         -1.852231052389    -0.668769448130     0.160646757877     1.007825032070
           C          0.547416947611     1.637360551870    -0.874721242123    12.000000000000
           H         -1.384448052389     0.975218551870    -1.547630242123     1.007825032070
           H         -0.159422052389    -0.254640448130    -1.628045242123     1.007825032070
           H          0.183529947611     2.480345551870    -0.295507242123     1.007825032070
           H          0.852795947611     2.008031551870    -1.847687242123     1.007825032070
           H          1.432615947611     1.255020551870    -0.375093242123     1.007825032070

  Charge       = 0
  Multiplicity = 1
  Basis Set: 6-31G*
  Basis Set:

    Orbital Energies (a.u.)
    -----------------------

    Doubly Occupied:

       1A    -20.564284     2A    -11.328479     3A    -11.236752
       4A    -11.228049     5A    -11.214638     6A     -1.404900
       7A     -1.078990     8A     -0.972235     9A     -0.851959
      10A     -0.765927    11A     -0.685999    12A     -0.636042
      13A     -0.629349    14A     -0.587949    15A     -0.560880
      16A     -0.524951    17A     -0.499084    18A     -0.484935
      19A     -0.479983    20A     -0.411162

  @DF-RHF Final Energy:  -230.98409638025251

   => Energetics <=

    Nuclear Repulsion Energy =            176.2210148758556727
    One-Electron Energy =                -662.1171365240979867
    Two-Electron Energy =                 254.9120252679899181
    DFT Exchange-Correlation Energy =       0.0000000000000000
    Empirical Dispersion Energy =           0.0000000000000000
    PCM Polarization Energy =               0.0000000000000000
    EFP Energy =                            0.0000000000000000
    Total Energy =                       -230.9840963802524243

  Mulliken Charges: (a.u.)
   Center  Symbol    Alpha    Beta     Spin     Total
       1     H     0.42769  0.42769  0.00000  0.14463
       2     C     2.84026  2.84026  0.00000  0.31949
       3     C     3.20739  3.20739  0.00000 -0.41478
       4     O     4.23768  4.23768  0.00000 -0.47537
       5     C     3.15444  3.15444  0.00000 -0.30887
       6     H     0.41384  0.41384  0.00000  0.17233
       7     H     0.39963  0.39963  0.00000  0.20073
       8     C     3.24602  3.24602  0.00000 -0.49204
       9     H     0.41763  0.41763  0.00000  0.16475
      10     H     0.40440  0.40440  0.00000  0.19121
      11     H     0.42344  0.42344  0.00000  0.15313
      12     H     0.41515  0.41515  0.00000  0.16970
      13     H     0.41245  0.41245  0.00000  0.17511

   Total alpha = 20.00000, Total beta = 20.00000, Total charge =  0.00000
