                              Psi4 1.0.54 Driver

  ==> Input File <==

--------------------------------------------------------------------------
set {
	reference rhf
	basis cc-pvtz
}

set_num_threads( 4 )
memory 2 gb

molecule MOL {
0 1

H	 -2.498963	 -0.741158	 -0.729149
O	 -2.346257	 -0.289210	 0.080372
C	 -1.183935	 0.486039	 -0.009831
C	 0.062853	 -0.375310	 0.027457
H	 -1.178881	 1.094526	 -0.908634
H	 -1.184406	 1.155156	 0.838676
O	 1.172093	 0.457955	 -0.054438
H	 0.052476	 -1.081302	 -0.804627
H	 0.076323	 -0.955658	 0.947560
C	 1.652808	 0.904690	 1.170536
H	 1.965734	 0.075349	 1.801048
H	 2.506584	 1.538294	 0.980012
H	 0.901430	 1.479930	 1.706305

	symmetry c1
}
set optking {
	frozen_dihedral = ("
		10 7 4 8
	")
}

ee,wfn = optimize('scf', return_wfn=True)
oeprop( wfn, 'DIPOLE', 'QUADRUPOLE', 'MULLIKEN_CHARGES')
f=open( 'psi4out.xyz', 'w' )
f.write( "13  " )
f.write( str(ee) + "\n" )
f.write( MOL.save_string_xyz() )
f.close()
--------------------------------------------------------------------------

    Molecular point group: c1
  Charge       = 0
  Multiplicity = 1
  Basis Set: CC-PVTZ
  Basis Set:
  @DF-RHF Final Energy:  -268.05816407254298
    Total Energy =                       -268.0581640725429224
    Molecular point group: c1
  Basis Set: CC-PVTZ
  Basis Set:
  Basis Set: CC-PVTZ
  Basis Set:
  @DF-RHF Final Energy:  -268.05919956900289
    Total Energy =                       -268.0591995690028853
  Basis Set: CC-PVTZ
  Basis Set:
  Basis Set: CC-PVTZ
  Basis Set:
  @DF-RHF Final Energy:  -268.05944311423002
    Total Energy =                       -268.0594431142300209
  Basis Set: CC-PVTZ
  Basis Set:
  Basis Set: CC-PVTZ
  Basis Set:
  @DF-RHF Final Energy:  -268.05944808547366
    Total Energy =                       -268.0594480854737753
  Basis Set: CC-PVTZ
  Basis Set:
  Charge       = 0
  Multiplicity = 1
  Basis Set: CC-PVTZ
  Basis Set:

    Orbital Energies (a.u.)
    -----------------------

    Doubly Occupied:

       1A    -20.554439     2A    -20.554266     3A    -11.269374
       4A    -11.268519     5A    -11.267463     6A     -1.388424
       7A     -1.370092     8A     -1.015371     9A     -0.925687
      10A     -0.837870    11A     -0.712166    12A     -0.675596
      13A     -0.658631    14A     -0.643138    15A     -0.597079
      16A     -0.574210    17A     -0.532026    18A     -0.513818
      19A     -0.470959    20A     -0.463672    21A     -0.408837

  @DF-RHF Final Energy:  -268.05944853479656

   => Energetics <=

    Nuclear Repulsion Energy =            191.8701452619681618
    One-Electron Energy =                -746.4559113026496107
    Two-Electron Energy =                 286.5263175058849470
    DFT Exchange-Correlation Energy =       0.0000000000000000
    Empirical Dispersion Energy =           0.0000000000000000
    PCM Polarization Energy =               0.0000000000000000
    EFP Energy =                            0.0000000000000000
    Total Energy =                       -268.0594485347964451
    Molecular point group: c1
  Basis Set: CC-PVTZ
  Basis Set:

  -Total Gradient:
     Atom            X                  Y                   Z
    ------   -----------------  -----------------  -----------------
       1       -0.000023282601    -0.000002328083     0.000000334385
       2        0.000024021012     0.000003200109    -0.000039404726
       3        0.000005172440    -0.000019443582     0.000056583656
       4       -0.000059023009     0.000027660089    -0.000060987274
       5       -0.000012134719    -0.000002910535     0.000000443121
       6        0.000011784595     0.000015693366    -0.000010186709
       7       -0.000021408369     0.000118695298    -0.000007731564
       8        0.000051301853    -0.000073277031     0.000051127049
       9       -0.000006331341     0.000014406728     0.000007033419
      10        0.000027419306    -0.000091449345    -0.000029283120
      11        0.000004547608     0.000004260845     0.000008647806
      12       -0.000001230389    -0.000000901462     0.000006704853
      13       -0.000000836390     0.000006393602     0.000016719102

  **** Optimization is complete! (in 5 steps) ****
    Final optimized geometry and variables:
    Molecular point group: c1

    Geometry (in Angstrom), charge = 0, multiplicity = 1:

    H           -2.316798635105    -1.047476251340    -0.973743235411
    O           -2.200955872300    -0.600157753824    -0.155315283731
    C           -1.084265245476     0.242477956634    -0.218779148041
    C            0.211700553252    -0.553959481929    -0.231007446252
    H           -1.119230953066     0.886175396767    -1.092441203324
    H           -1.129781191827     0.877388344451     0.655246215999
    O            1.331062592288     0.273980995607    -0.306731159130
    H            0.230568780931    -1.196161747048    -1.105059192391
    H            0.253114524465    -1.195526378222     0.645157766906
    C            1.865222391233     0.684892172253     0.911883489001
    H            2.203790462944    -0.164471073710     1.499618423564
    H            2.712798309601     1.319492484419     0.697950478636
    H            1.151971158186     1.251104476237     1.504174532509

  Mulliken Charges: (a.u.)
   Center  Symbol    Alpha    Beta     Spin     Total
       1     H     0.39339  0.39339  0.00000  0.21322
       2     O     4.20295  4.20295  0.00000 -0.40591
       3     C     2.97087  2.97087  0.00000  0.05827
       4     C     2.98434  2.98434  0.00000  0.03133
       5     H     0.46604  0.46604  0.00000  0.06792
       6     H     0.45897  0.45897  0.00000  0.08207
       7     O     4.18077  4.18077  0.00000 -0.36154
       8     H     0.45809  0.45809  0.00000  0.08383
       9     H     0.46748  0.46748  0.00000  0.06504
      10     C     3.03055  3.03055  0.00000 -0.06111
      11     H     0.46813  0.46813  0.00000  0.06374
      12     H     0.44686  0.44686  0.00000  0.10629
      13     H     0.47158  0.47158  0.00000  0.05685

   Total alpha = 21.00000, Total beta = 21.00000, Total charge = -0.00000

*** Psi4 exiting successfully. Buy a developer a beer!
