  ==> Input File <==

--------------------------------------------------------------------------
set {
	reference rhf
	basis cc-pvtz
}

set_num_threads( 4 )
memory 2 gb

molecule MOL {
0 1

H	 2.301000	 1.100000	 0.000000
N	 1.452000	 0.584000	 -0.000000
C	 1.329000	 -0.756000	 0.000000
C	 0.176000	 1.096000	 -0.000000
H	 2.179000	 -1.409000	 0.000000
N	 0.096000	 -1.133000	 -0.000000
H	 -0.017000	 2.147000	 -0.000000
C	 -0.648000	 0.024000	 -0.000000
C	 -2.143000	 -0.015000	 0.000000
H	 -2.514000	 -0.539000	 -0.875000
H	 -2.559000	 0.987000	 -0.000000
H	 -2.514000	 -0.538000	 0.875000

	symmetry c1
}
ee = optimize('scf')
oeprop('DIPOLE', 'QUADRUPOLE', 'MULLIKEN_CHARGES')
f=open( 'psi4out.xyz', 'w' )
f.write( "12  " )
f.write( str(ee) + "\n" )
f.write( MOL.save_string_xyz() )
f.close()
--------------------------------------------------------------------------

    Molecular point group: c1
  Charge       = 0
  Multiplicity = 1
  Basis Set: CC-PVTZ
  Basis Set:
  @DF-RHF Final Energy:  -263.95046044227064
    Total Energy =                       -263.9504604422705256
    Molecular point group: c1
  Basis Set: CC-PVTZ
  Basis Set:
  Basis Set: CC-PVTZ
  Basis Set:
  @DF-RHF Final Energy:  -263.95055204281721
    Total Energy =                       -263.9505520428171508
  Basis Set: CC-PVTZ
  Basis Set:
  Charge       = 0
  Multiplicity = 1
  Basis Set: CC-PVTZ
  Basis Set:

    Orbital Energies (a.u.)
    -----------------------

    Doubly Occupied:

       1A    -15.608536     2A    -15.528277     3A    -11.283934
       4A    -11.243535     5A    -11.238070     6A    -11.209654
       7A     -1.346851     8A     -1.168794     9A     -1.035538
      10A     -0.940879    11A     -0.825427    12A     -0.774703
      13A     -0.741167    14A     -0.620771    15A     -0.609398
      16A     -0.596219    17A     -0.550802    18A     -0.540304
      19A     -0.526493    20A     -0.428222    21A     -0.390788
      22A     -0.313976

  @DF-RHF Final Energy:  -263.95055451490339

   => Energetics <=

    Nuclear Repulsion Energy =            226.5825184203886806
    One-Electron Energy =                -806.0214705830891262
    Two-Electron Energy =                 315.4883976477971146
    DFT Exchange-Correlation Energy =       0.0000000000000000
    Empirical Dispersion Energy =           0.0000000000000000
    PCM Polarization Energy =               0.0000000000000000
    EFP Energy =                            0.0000000000000000
    Total Energy =                       -263.9505545149032741
    Molecular point group: c1
  Basis Set: CC-PVTZ
  Basis Set:

  -Total Gradient:
     Atom            X                  Y                   Z
    ------   -----------------  -----------------  -----------------
       1       -0.000055907894    -0.000001810468    -0.000001004593
       2        0.000157167384     0.000189549343    -0.000005090073
       3       -0.000247760711     0.000175421439     0.000000798020
       4        0.000123805249    -0.000099473303     0.000008467815
       5       -0.000057396035     0.000045733092    -0.000000107371
       6       -0.000160518547    -0.000107694660     0.000004344193
       7        0.000057110868    -0.000015175913     0.000000537317
       8        0.000141375373    -0.000147805308    -0.000006261111
       9        0.000011845731    -0.000048976705    -0.000004808158
      10        0.000006352354     0.000016860510     0.000020766013
      11        0.000018003662    -0.000021110171    -0.000000875922
      12        0.000005922563     0.000014482146    -0.000016766130

  **** Optimization is complete! (in 3 steps) ****
    Final optimized geometry and variables:
    Molecular point group: c1

    Geometry (in Angstrom), charge = 0, multiplicity = 1:

    H            2.257710352569     1.115855069399    -0.000083086281
    N            1.412285599753     0.603251151421    -0.000038184244
    C            1.289480892865    -0.732961527716     0.000018617303
    C            0.137028277623     1.114026160297    -0.000009368981
    H            2.137489367445    -1.384975156118     0.000028255825
    N            0.059321035340    -1.109057861429     0.000052782797
    H           -0.059004099395     2.162479592413    -0.000039133632
    C           -0.685418021702     0.045254591096    -0.000000572242
    C           -2.177304255687     0.007005477416    -0.000013754740
    H           -2.545785691928    -0.516405817189    -0.874083776043
    H           -2.590868111489     1.007466423265    -0.000208290807
    H           -2.545816445259    -0.516087495162     0.874243664257

  Mulliken Charges: (a.u.)
   Center  Symbol    Alpha    Beta     Spin     Total
       1     H     0.40457  0.40457  0.00000  0.19087
       2     N     3.55035  3.55035  0.00000 -0.10070
       3     C     3.01075  3.01075  0.00000 -0.02150
       4     C     3.12460  3.12460  0.00000 -0.24920
       5     H     0.41974  0.41974  0.00000  0.16052
       6     N     3.63500  3.63500  0.00000 -0.27000
       7     H     0.41025  0.41025  0.00000  0.17951
       8     C     2.95476  2.95476  0.00000  0.09049
       9     C     3.13617  3.13617  0.00000 -0.27233
      10     H     0.44860  0.44860  0.00000  0.10279
      11     H     0.45661  0.45661  0.00000  0.08677
      12     H     0.44861  0.44861  0.00000  0.10278

   Total alpha = 22.00000, Total beta = 22.00000, Total charge = -0.00000
