                              Psi4 1.0.54 Driver

  ==> Input File <==

--------------------------------------------------------------------------
set {
	reference rhf
	basis cc-pvtz
}

set_num_threads( 4 )
memory 2 gb

molecule MOL {
0 1

H	 5.269906	 0.195738	 1.068145
C	 4.673928	 -0.208426	 0.258004
C	 3.190227	 -0.204655	 0.610056
H	 4.865164	 0.391952	 -0.624714
H	 5.027866	 -1.214452	 0.056909
C	 2.319236	 -0.778095	 -0.505521
H	 2.876982	 0.809920	 0.827895
H	 3.035363	 -0.782674	 1.518205
C	 0.829319	 -0.792860	 -0.178693
H	 2.475123	 -0.210866	 -1.414795
H	 2.632997	 -1.797449	 -0.711081
C	 0.166513	 0.574316	 -0.177188
H	 0.295836	 -1.386179	 -0.917025
H	 0.645386	 -1.277027	 0.775911
C	 -1.179997	 0.697820	 0.509127
O	 0.667913	 1.511581	 -0.709548
C	 -2.285403	 -0.137429	 -0.145701
H	 -1.447332	 1.745772	 0.496170
H	 -1.065486	 0.394155	 1.546369
C	 -3.646517	 0.082806	 0.508924
H	 -2.348607	 0.118306	 -1.199836
H	 -2.034867	 -1.192328	 -0.096503
C	 -4.757384	 -0.737168	 -0.138179
H	 -3.900183	 1.137464	 0.459705
H	 -3.580850	 -0.166716	 1.564386
H	 -4.867848	 -0.486648	 -1.187807
H	 -4.549622	 -1.799990	 -0.072570
H	 -5.709557	 -0.556338	 0.346567

	symmetry c1
}
ee,wfn = energy('scf', return_wfn=True)
oeprop( wfn, 'DIPOLE', 'QUADRUPOLE', 'MULLIKEN_CHARGES')
oeprop( wfn, 'GRID_ESP')
f=open( 'psi4out.xyz', 'w' )
f.write( "28  " )
f.write( str(ee) + "\n" )
f.write( MOL.save_string_xyz() )
f.close()
--------------------------------------------------------------------------

    Molecular point group: c1

    Geometry (in Angstrom), charge = 0, multiplicity = 1:

       Center              X                  Y                   Z               Mass
    ------------   -----------------  -----------------  -----------------  -----------------
           H          5.269878385891     0.195678891030     1.068174685986     1.007825032070
           C          4.673900385891    -0.208485108970     0.258033685986    12.000000000000
           C          3.190199385891    -0.204714108970     0.610085685986    12.000000000000
           H          4.865136385891     0.391892891030    -0.624684314014     1.007825032070
           H          5.027838385891    -1.214511108970     0.056938685986     1.007825032070
           C          2.319208385891    -0.778154108970    -0.505491314014    12.000000000000
           H          2.876954385891     0.809860891030     0.827924685986     1.007825032070
           H          3.035335385891    -0.782733108970     1.518234685986     1.007825032070
           C          0.829291385891    -0.792919108970    -0.178663314014    12.000000000000
           H          2.475095385891    -0.210925108970    -1.414765314014     1.007825032070
           H          2.632969385891    -1.797508108970    -0.711051314014     1.007825032070
           C          0.166485385891     0.574256891030    -0.177158314014    12.000000000000
           H          0.295808385891    -1.386238108970    -0.916995314014     1.007825032070
           H          0.645358385891    -1.277086108970     0.775940685986     1.007825032070
           C         -1.180024614109     0.697760891030     0.509156685986    12.000000000000
           O          0.667885385891     1.511521891030    -0.709518314014    15.994914619560
           C         -2.285430614109    -0.137488108970    -0.145671314014    12.000000000000
           H         -1.447359614109     1.745712891030     0.496199685986     1.007825032070
           H         -1.065513614109     0.394095891030     1.546398685986     1.007825032070
           C         -3.646544614109     0.082746891030     0.508953685986    12.000000000000
           H         -2.348634614109     0.118246891030    -1.199806314014     1.007825032070
           H         -2.034894614109    -1.192387108970    -0.096473314014     1.007825032070
           C         -4.757411614109    -0.737227108970    -0.138149314014    12.000000000000
           H         -3.900210614109     1.137404891030     0.459734685986     1.007825032070
           H         -3.580877614109    -0.166775108970     1.564415685986     1.007825032070
           H         -4.867875614109    -0.486707108970    -1.187777314014     1.007825032070
           H         -4.549649614109    -1.800049108970    -0.072540314014     1.007825032070
           H         -5.709584614109    -0.556397108970     0.346596685986     1.007825032070

  Charge       = 0
  Multiplicity = 1
  Basis Set: CC-PVTZ
  Basis Set:

    Orbital Energies (a.u.)
    -----------------------

    Doubly Occupied:

       1A    -20.536652     2A    -11.316573     3A    -11.229837
       4A    -11.228242     5A    -11.226887     6A    -11.223836
       7A    -11.214657     8A    -11.214246     9A    -11.210951
      10A    -11.204065    11A     -1.396543    12A     -1.096176
      13A     -1.078911    14A     -1.023626    15A     -0.991815
      16A     -0.908110    17A     -0.873946    18A     -0.809377
      19A     -0.800324    20A     -0.724395    21A     -0.670750
      22A     -0.654108    23A     -0.629918    24A     -0.621427
      25A     -0.611210    26A     -0.588882    27A     -0.577555
      28A     -0.576256    29A     -0.543306    30A     -0.533686
      31A     -0.522044    32A     -0.506350    33A     -0.501771
      34A     -0.485397    35A     -0.479208    36A     -0.476514
      37A     -0.472934    38A     -0.466034    39A     -0.456863
      40A     -0.394241

  @DF-RHF Final Energy:  -426.31989656531914

   => Energetics <=

    Nuclear Repulsion Energy =            531.8779437238392802
    One-Electron Energy =               -1632.2403998234658502
    Two-Electron Energy =                 674.0425595343077703
    DFT Exchange-Correlation Energy =       0.0000000000000000
    Empirical Dispersion Energy =           0.0000000000000000
    PCM Polarization Energy =               0.0000000000000000
    EFP Energy =                            0.0000000000000000
    Total Energy =                       -426.3198965653187997

  Mulliken Charges: (a.u.)
   Center  Symbol    Alpha    Beta     Spin     Total
       1     H     0.44866  0.44866  0.00000  0.10269
       2     C     3.15197  3.15197  0.00000 -0.30394
       3     C     3.08440  3.08440  0.00000 -0.16879
       4     H     0.45177  0.45177  0.00000  0.09645
       5     H     0.45681  0.45681  0.00000  0.08638
       6     C     3.08727  3.08727  0.00000 -0.17453
       7     H     0.44595  0.44595  0.00000  0.10810
       8     H     0.45855  0.45855  0.00000  0.08290
       9     C     3.13031  3.13031  0.00000 -0.26062
      10     H     0.44409  0.44409  0.00000  0.11183
      11     H     0.44773  0.44773  0.00000  0.10454
      12     C     2.86432  2.86432  0.00000  0.27136
      13     H     0.43417  0.43417  0.00000  0.13165
      14     H     0.44292  0.44292  0.00000  0.11417
      15     C     3.09274  3.09274  0.00000 -0.18549
      16     O     4.17836  4.17836  0.00000 -0.35671
      17     C     3.10119  3.10119  0.00000 -0.20237
      18     H     0.43802  0.43802  0.00000  0.12396
      19     H     0.44942  0.44942  0.00000  0.10116
      20     C     3.08729  3.08729  0.00000 -0.17458
      21     H     0.44569  0.44569  0.00000  0.10861
      22     H     0.45037  0.45037  0.00000  0.09926
      23     C     3.14918  3.14918  0.00000 -0.29837
      24     H     0.44978  0.44978  0.00000  0.10044
      25     H     0.45362  0.45362  0.00000  0.09276
      26     H     0.45343  0.45343  0.00000  0.09313
      27     H     0.45519  0.45519  0.00000  0.08961
      28     H     0.44679  0.44679  0.00000  0.10641

   Total alpha = 40.00000, Total beta = 40.00000, Total charge = -0.00000

*** Psi4 exiting successfully. Buy a developer a beer!
