  ==> Input File <==

--------------------------------------------------------------------------
set {
	reference rhf
	basis cc-pvtz
}

set_num_threads( 4 )
memory 2 gb

molecule MOL {
0 1

O	 -2.817697	 1.304178	 0.001046
C	 -2.664672	 0.129869	 0.003507
C	 -3.797908	 -0.860100	 -0.001145
O	 -1.481217	 -0.452708	 0.001092
H	 -4.408836	 -0.679689	 -0.875387
H	 -3.443486	 -1.878443	 -0.002770
H	 -4.412123	 -0.683688	 0.871605
C	 -0.332055	 0.384012	 -0.000250
C	 0.892252	 -0.506059	 -0.000295
H	 -0.360822	 1.020205	 -0.874146
H	 -0.359817	 1.021310	 0.872861
C	 2.171223	 0.276109	 0.283970
H	 0.966986	 -1.001551	 -0.962881
H	 0.761022	 -1.285062	 0.743746
C	 3.419817	 -0.601450	 0.289434
H	 2.289373	 1.060464	 -0.459538
H	 2.083372	 0.777951	 1.244392
C	 4.697962	 0.179584	 0.574633
H	 3.509660	 -1.102118	 -0.670418
H	 3.302980	 -1.385541	 1.032157
H	 4.860763	 0.949881	 -0.171681
H	 5.564230	 -0.471626	 0.571565
H	 4.652341	 0.664533	 1.543961

	symmetry c1
}
set optking {
	frozen_dihedral = ("
		13 9 8 10
	")
}

ee = optimize('scf')
oeprop('DIPOLE', 'QUADRUPOLE', 'MULLIKEN_CHARGES')
f=open( 'psi4out.xyz', 'w' )
f.write( "23  " )
f.write( str(ee) + "\n" )
f.write( MOL.save_string_xyz() )
f.close()
--------------------------------------------------------------------------

    Molecular point group: c1
  Charge       = 0
  Multiplicity = 1
  Basis Set: CC-PVTZ
  Basis Set:
  @DF-RHF Final Energy:  -423.13425981315555
    Total Energy =                       -423.1342598131554951
    Molecular point group: c1
  Basis Set: CC-PVTZ
  Basis Set:
  Basis Set: CC-PVTZ
  Basis Set:
  @DF-RHF Final Energy:  -423.13407383673183
    Total Energy =                       -423.1340738367321137
  Basis Set: CC-PVTZ
  Basis Set:
  Basis Set: CC-PVTZ
  Basis Set:
  @DF-RHF Final Energy:  -423.13413143266865
    Total Energy =                       -423.1341314326683687
  Basis Set: CC-PVTZ
  Basis Set:
  Basis Set: CC-PVTZ
  Basis Set:
  @DF-RHF Final Energy:  -423.13434097579938
    Total Energy =                       -423.1343409757988638
  Basis Set: CC-PVTZ
  Basis Set:
  Basis Set: CC-PVTZ
  Basis Set:
  @DF-RHF Final Energy:  -423.13434823483931
    Total Energy =                       -423.1343482348388534
  Basis Set: CC-PVTZ
  Basis Set:
  Basis Set: CC-PVTZ
  Basis Set:
  @DF-RHF Final Energy:  -423.13435122133865
    Total Energy =                       -423.1343512213381928
  Basis Set: CC-PVTZ
  Basis Set:
  Charge       = 0
  Multiplicity = 1
  Basis Set: CC-PVTZ
  Basis Set:

    Orbital Energies (a.u.)
    -----------------------

    Doubly Occupied:

       1A    -20.595509     2A    -20.529281     3A    -11.366141
       4A    -11.279669     5A    -11.230530     6A    -11.222406
       7A    -11.221279     8A    -11.219433     9A    -11.210901
      10A     -1.470732    11A     -1.363586    12A     -1.095238
      13A     -1.043099    14A     -1.004107    15A     -0.931589
      16A     -0.842341    17A     -0.802790    18A     -0.775799
      19A     -0.694991    20A     -0.687915    21A     -0.670763
      22A     -0.648261    23A     -0.607435    24A     -0.588754
      25A     -0.583909    26A     -0.567672    27A     -0.559519
      28A     -0.538019    29A     -0.524410    30A     -0.505278
      31A     -0.492761    32A     -0.477641    33A     -0.471573
      34A     -0.466734    35A     -0.455074    36A     -0.438618

  @DF-RHF Final Energy:  -423.13435181691557

   => Energetics <=

    Nuclear Repulsion Energy =            450.4695501736368897
    One-Electron Energy =               -1468.8402848959187850
    Two-Electron Energy =                 595.2363829053664404
    DFT Exchange-Correlation Energy =       0.0000000000000000
    Empirical Dispersion Energy =           0.0000000000000000
    PCM Polarization Energy =               0.0000000000000000
    EFP Energy =                            0.0000000000000000
    Total Energy =                       -423.1343518169154549
    Molecular point group: c1
  Basis Set: CC-PVTZ
  Basis Set:

  -Total Gradient:
     Atom            X                  Y                   Z
    ------   -----------------  -----------------  -----------------
       1        0.000006821055     0.000003042672     0.000007185110
       2       -0.000002907574    -0.000009093830    -0.000033831681
       3       -0.000003143296    -0.000001284978     0.000023158027
       4       -0.000006700420     0.000001433483    -0.000016288359
       5        0.000005541509     0.000000337367    -0.000002257581
       6       -0.000000595361    -0.000001002219    -0.000000059155
       7       -0.000004779964    -0.000000364259    -0.000002921120
       8        0.001823675874     0.002492857483     0.001345737577
       9       -0.001914865297    -0.002564672833     0.000663822900
      10       -0.001206072628    -0.001669587229    -0.001170192864
      11        0.000019556939     0.000007255006    -0.000010387518
      12        0.000007059694     0.000001543168     0.000010099786
      13        0.001282345241     0.001730397294    -0.000825405023
      14       -0.000004141394     0.000005139090    -0.000000818997
      15       -0.000003819993     0.000007332270     0.000013975034
      16        0.000000776289    -0.000003462953     0.000001265488
      17       -0.000000695834     0.000001482195     0.000000405423
      18        0.000002096133    -0.000001621775    -0.000001860847
      19       -0.000005794553     0.000001053560     0.000001351362
      20        0.000005239198    -0.000001224474     0.000001912130
      21        0.000000139716     0.000001301220    -0.000000098451
      22        0.000001428079     0.000001078923    -0.000002755344
      23       -0.000001163416    -0.000001939181    -0.000002035898

  **** Optimization is complete! (in 7 steps) ****
    Final optimized geometry and variables:
    Molecular point group: c1

    Geometry (in Angstrom), charge = 0, multiplicity = 1:

    O           -2.807047411790     1.317274553754    -0.164203283987
    C           -2.658040178890     0.142440770457    -0.144875263502
    C           -3.794776978276    -0.843716005556    -0.159732378221
    O           -1.477191123499    -0.443432943044    -0.107051235131
    H           -4.386260908558    -0.673340772378    -1.049286346386
    H           -3.444215885650    -1.863240373692    -0.139666983548
    H           -4.426778637737    -0.653008743168     0.697261077335
    C           -0.324578031145     0.391118299923    -0.091281154077
    C            0.896089379188    -0.505685474708    -0.076290676074
    H           -0.345704969495     1.016814967945    -0.972513726080
    H           -0.364620063383     1.029376114975     0.780350081983
    C            2.178785876896     0.282079892615     0.180303720538
    H            0.974307000504    -1.013693771278    -1.032064470273
    H            0.767840804428    -1.265787114415     0.686422390871
    C            3.431479144111    -0.588811691209     0.149791772692
    H            2.275006702056     1.071403238858    -0.561631651996
    H            2.111376787936     0.778229693726     1.145167393230
    C            4.711754580914     0.196202788180     0.413760883914
    H            3.502759887225    -1.080366516636    -0.816372078485
    H            3.335042233633    -1.380372222512     0.887704350103
    H            4.853575639450     0.974817323925    -0.328285399468
    H            5.581009095859    -0.450423651455     0.384362125920
    H            4.685818499903     0.671237131885     1.388748931382

  Mulliken Charges: (a.u.)
   Center  Symbol    Alpha    Beta     Spin     Total
       1     O     4.20269  4.20269  0.00000 -0.40537
       2     C     2.81463  2.81463  0.00000  0.37073
       3     C     3.13993  3.13993  0.00000 -0.27987
       4     O     4.14521  4.14521  0.00000 -0.29042
       5     H     0.44215  0.44215  0.00000  0.11571
       6     H     0.44190  0.44190  0.00000  0.11619
       7     H     0.44219  0.44219  0.00000  0.11562
       8     C     2.97941  2.97941  0.00000  0.04119
       9     C     3.08150  3.08150  0.00000 -0.16300
      10     H     0.45260  0.45260  0.00000  0.09479
      11     H     0.45465  0.45465  0.00000  0.09070
      12     C     3.09757  3.09757  0.00000 -0.19513
      13     H     0.45143  0.45143  0.00000  0.09715
      14     H     0.44974  0.44974  0.00000  0.10053
      15     C     3.08514  3.08514  0.00000 -0.17028
      16     H     0.45321  0.45321  0.00000  0.09358
      17     H     0.45271  0.45271  0.00000  0.09458
      18     C     3.14950  3.14950  0.00000 -0.29900
      19     H     0.45349  0.45349  0.00000  0.09302
      20     H     0.45353  0.45353  0.00000  0.09294
      21     H     0.45457  0.45457  0.00000  0.09086
      22     H     0.44771  0.44771  0.00000  0.10458
      23     H     0.45454  0.45454  0.00000  0.09092

   Total alpha = 36.00000, Total beta = 36.00000, Total charge = -0.00000
