  ==> Input File <==

--------------------------------------------------------------------------
set {
	reference rhf
	basis 6-31G*
}

set_num_threads( 4 )
memory 2 gb

molecule MOL {
0 1

H	 -3.461459	 -0.518120	 0.753737
O	 -3.115265	 -0.183647	 -0.062285
C	 -1.776982	 -0.064832	 -0.007991
C	 -1.047888	 -0.404852	 1.127707
C	 -1.132291	 0.416424	 -1.140613
H	 -1.555325	 -0.777116	 2.001341
C	 0.323772	 -0.262143	 1.126155
H	 -1.716564	 0.671853	 -2.004125
C	 0.240091	 0.553572	 -1.126764
H	 0.898827	 -0.520627	 1.995406
C	 0.984182	 0.218375	 0.000000
H	 0.740175	 0.926471	 -2.004217
C	 2.452467	 0.370529	 0.000000
O	 3.228994	 -0.533774	 0.000000
H	 2.809473	 1.405765	 0.000000

	symmetry c1
}
set optking {
	frozen_dihedral = ("
		7 11 13 14
	")
}

ee = optimize('scf')
oeprop('DIPOLE', 'QUADRUPOLE', 'MULLIKEN_CHARGES')
f=open( 'psi4out.xyz', 'w' )
f.write( "15  " )
f.write( str(ee) + "\n" )
f.write( MOL.save_string_xyz() )
f.close()
--------------------------------------------------------------------------

    Molecular point group: c1
  Charge       = 0
  Multiplicity = 1
  Basis Set: 6-31G*
  Basis Set:
  @DF-RHF Final Energy:  -418.27511686765803
    Total Energy =                       -418.2751168676579709
    Molecular point group: c1
  Basis Set: 6-31G*
  Basis Set:
  Basis Set: 6-31G*
  Basis Set:
  @DF-RHF Final Energy:  -418.27514924310503
    Total Energy =                       -418.2751492431049201
  Basis Set: 6-31G*
  Basis Set:
  Basis Set: 6-31G*
  Basis Set:
  @DF-RHF Final Energy:  -418.27590135986350
    Total Energy =                       -418.2759013598634965
  Basis Set: 6-31G*
  Basis Set:
  Basis Set: 6-31G*
  Basis Set:
  @DF-RHF Final Energy:  -418.27603883097004
    Total Energy =                       -418.2760388309701511
  Basis Set: 6-31G*
  Basis Set:
  Basis Set: 6-31G*
  Basis Set:
  @DF-RHF Final Energy:  -418.27604123832424
    Total Energy =                       -418.2760412383240691
  Basis Set: 6-31G*
  Basis Set:
  Charge       = 0
  Multiplicity = 1
  Basis Set: 6-31G*
  Basis Set:

    Orbital Energies (a.u.)
    -----------------------

    Doubly Occupied:

       1A    -20.604484     2A    -20.568870     3A    -11.333625
       4A    -11.315058     5A    -11.255802     6A    -11.255193
       7A    -11.243723     8A    -11.243124     9A    -11.238096
      10A     -1.424404    11A     -1.407739    12A     -1.168843
      13A     -1.038369    14A     -1.036715    15A     -0.886817
      16A     -0.862643    17A     -0.798505    18A     -0.752800
      19A     -0.709714    20A     -0.671736    21A     -0.652435
      22A     -0.628650    23A     -0.605724    24A     -0.602373
      25A     -0.589324    26A     -0.561423    27A     -0.530055
      28A     -0.503201    29A     -0.491216    30A     -0.421579
      31A     -0.354992    32A     -0.324079

  @DF-RHF Final Energy:  -418.27604201102736

   => Energetics <=

    Nuclear Repulsion Energy =            400.0940654285525397
    One-Electron Energy =               -1362.5775992165540629
    Two-Electron Energy =                 544.2074917769738249
    DFT Exchange-Correlation Energy =       0.0000000000000000
    Empirical Dispersion Energy =           0.0000000000000000
    PCM Polarization Energy =               0.0000000000000000
    EFP Energy =                            0.0000000000000000
    Total Energy =                       -418.2760420110276982
    Molecular point group: c1
  Basis Set: 6-31G*
  Basis Set:

  -Total Gradient:
     Atom            X                  Y                   Z
    ------   -----------------  -----------------  -----------------
       1        0.000000461982     0.000006172924     0.000004179882
       2       -0.000007112013    -0.000049319406     0.000011234857
       3        0.000012285107     0.000113208263    -0.000048369599
       4        0.000047850728    -0.000025958753     0.000028916322
       5       -0.000080520426    -0.000051880980     0.000031587338
       6       -0.000015501269    -0.000001104920     0.000000596189
       7       -0.000836215691     0.005241252057     0.001757024240
       8        0.000018837688     0.000003887121    -0.000002409910
       9        0.000100603273    -0.000037658343     0.000078045527
      10       -0.000001798427     0.000004205310    -0.000013698907
      11        0.001178403662    -0.007742353379    -0.005713876290
      12        0.000001249877    -0.000004241067    -0.000008050455
      13       -0.000592091958     0.002757468882     0.010692136469
      14        0.000165267773    -0.000190362898    -0.006821788706
      15        0.000008279694    -0.000023314810     0.000004473039

  **** Optimization is complete! (in 6 steps) ****
    Final optimized geometry and variables:
    Molecular point group: c1

    Geometry (in Angstrom), charge = 0, multiplicity = 1:

    H           -3.479094494263    -0.508576629550     0.747702910158
    O           -3.131399940852    -0.165416810659    -0.063724381197
    C           -1.787630958930    -0.062434847325    -0.006815767118
    C           -1.060336894784    -0.404191045163     1.121981073637
    C           -1.135533848869     0.416660189464    -1.136461170465
    H           -1.564769555783    -0.763932277261     2.002616937465
    C            0.319544924201    -0.282238752612     1.114207326712
    H           -1.715933577587     0.683024271070    -1.999643551224
    C            0.236903812652     0.551929115217    -1.124645837778
    H            0.879174419533    -0.557667440829     1.990029319501
    C            0.983212852357     0.175892611974    -0.011818627361
    H            0.732378308973     0.941668351123    -1.997190916507
    C            2.464717278529     0.383033864964     0.004563627044
    O            3.263902979321    -0.495414637472     0.051319160227
    H            2.796744694604     1.422092673942    -0.082395027812

  Mulliken Charges: (a.u.)
   Center  Symbol    Alpha    Beta     Spin     Total
       1     H     0.26983  0.26983  0.00000  0.46034
       2     O     4.37571  4.37571  0.00000 -0.75141
       3     C     2.79142  2.79142  0.00000  0.41716
       4     C     3.14295  3.14295  0.00000 -0.28590
       5     C     3.12176  3.12176  0.00000 -0.24352
       6     H     0.39927  0.39927  0.00000  0.20145
       7     C     3.09199  3.09199  0.00000 -0.18397
       8     H     0.38679  0.38679  0.00000  0.22642
       9     C     3.09687  3.09687  0.00000 -0.19375
      10     H     0.38649  0.38649  0.00000  0.22702
      11     C     3.04531  3.04531  0.00000 -0.09061
      12     H     0.39090  0.39090  0.00000  0.21821
      13     C     2.85021  2.85021  0.00000  0.29958
      14     O     4.22617  4.22617  0.00000 -0.45234
      15     H     0.42434  0.42434  0.00000  0.15133

   Total alpha = 32.00000, Total beta = 32.00000, Total charge =  0.00000
