  ==> Input File <==

--------------------------------------------------------------------------
set {
	reference rhf
	basis 6-31G*
}

set_num_threads( 1 )
memory 2 gb

molecule MOL {
0 1

H	 -3.978529	 0.046586	 1.827897
O	 -3.260094	 -0.510654	 1.564765
C	 -2.176559	 0.280390	 1.149080
C	 -1.045193	 -0.644232	 0.735761
H	 -2.464383	 0.914890	 0.311898
H	 -1.847810	 0.934242	 1.955766
C	 0.198102	 0.111031	 0.262842
H	 -1.408586	 -1.297953	 -0.052479
H	 -0.798359	 -1.281305	 1.580562
C	 1.331804	 -0.827780	 -0.158768
H	 -0.072162	 0.760675	 -0.566069
H	 0.553005	 0.762569	 1.060377
C	 2.723619	 -0.410569	 0.329459
H	 1.342964	 -0.912588	 -1.244120
H	 1.116806	 -1.824343	 0.220779
C	 3.243875	 0.895854	 -0.272975
H	 3.424222	 -1.207124	 0.091250
H	 2.714788	 -0.329854	 1.414619
H	 3.251977	 0.848779	 -1.358681
H	 2.637085	 1.747371	 0.016682
H	 4.259473	 1.094070	 0.055697

	symmetry c1
}
set optking {
	frozen_dihedral = ("
		2 3 4 8,
		8 4 7 10,
		16 13 10 14,
		1 2 3 5
	")
}

ee = energy('scf')
oeprop('DIPOLE', 'QUADRUPOLE', 'MULLIKEN_CHARGES')
f=open( 'psi4out.xyz', 'w' )
f.write( "21  " )
f.write( str(ee) + "\n" )
f.write( MOL.save_string_xyz() )
f.close()
--------------------------------------------------------------------------

    Molecular point group: c1

    Geometry (in Angstrom), charge = 0, multiplicity = 1:

       Center              X                  Y                   Z               Mass
    ------------   -----------------  -----------------  -----------------  -----------------
           H         -4.056504612379     0.194018541706     1.289930005598     1.007825032070
           O         -3.338069612379    -0.363221458294     1.026798005598    15.994914619560
           C         -2.254534612379     0.427822541706     0.611113005598    12.000000000000
           C         -1.123168612379    -0.496799458294     0.197794005598    12.000000000000
           H         -2.542358612379     1.062322541706    -0.226068994402     1.007825032070
           H         -1.925785612379     1.081674541706     1.417799005598     1.007825032070
           C          0.120126387621     0.258463541706    -0.275124994402    12.000000000000
           H         -1.486561612379    -1.150520458294    -0.590445994402     1.007825032070
           H         -0.876334612379    -1.133872458294     1.042595005598     1.007825032070
           C          1.253828387621    -0.680347458294    -0.696734994402    12.000000000000
           H         -0.150137612379     0.908107541706    -1.104035994402     1.007825032070
           H          0.475029387621     0.910001541706     0.522410005598     1.007825032070
           C          2.645643387621    -0.263136458294    -0.208507994402    12.000000000000
           H          1.264988387621    -0.765155458294    -1.782086994402     1.007825032070
           H          1.038830387621    -1.676910458294    -0.317187994402     1.007825032070
           C          3.165899387621     1.043286541706    -0.810941994402    12.000000000000
           H          3.346246387621    -1.059691458294    -0.446716994402     1.007825032070
           H          2.636812387621    -0.182421458294     0.876652005598     1.007825032070
           H          3.174001387621     0.996211541706    -1.896647994402     1.007825032070
           H          2.559109387621     1.894803541706    -0.521284994402     1.007825032070
           H          4.181497387621     1.241502541706    -0.482269994402     1.007825032070

  Charge       = 0
  Multiplicity = 1
  Basis Set: 6-31G*
  Basis Set:

    Orbital Energies (a.u.)
    -----------------------

    Doubly Occupied:

       1A    -20.551737     2A    -11.266664     3A    -11.215160
       4A    -11.214730     5A    -11.212271     6A    -11.210993
       7A    -11.208296     8A     -1.358554     9A     -1.086363
      10A     -1.032902    11A     -0.954277    12A     -0.875048
      13A     -0.809402    14A     -0.777785    15A     -0.692178
      16A     -0.659870    17A     -0.625913    18A     -0.603892
      19A     -0.583640    20A     -0.572359    21A     -0.537222
      22A     -0.521387    23A     -0.508187    24A     -0.488348
      25A     -0.481128    26A     -0.456324    27A     -0.454726
      28A     -0.442825    29A     -0.434069

  @DF-RHF Final Energy:  -310.20882170477262

   => Energetics <=

    Nuclear Repulsion Energy =            312.7833843499522573
    One-Electron Energy =               -1040.3121229806652082
    Two-Electron Energy =                 417.3199169259408450
    DFT Exchange-Correlation Energy =       0.0000000000000000
    Empirical Dispersion Energy =           0.0000000000000000
    PCM Polarization Energy =               0.0000000000000000
    EFP Energy =                            0.0000000000000000
    Total Energy =                       -310.2088217047721059

  Mulliken Charges: (a.u.)
   Center  Symbol    Alpha    Beta     Spin     Total
       1     H     0.28120  0.28120  0.00000  0.43760
       2     O     4.37178  4.37178  0.00000 -0.74357
       3     C     2.99025  2.99025  0.00000  0.01950
       4     C     3.16174  3.16174  0.00000 -0.32348
       5     H     0.43294  0.43294  0.00000  0.13412
       6     H     0.43287  0.43287  0.00000  0.13426
       7     C     3.16210  3.16210  0.00000 -0.32419
       8     H     0.41433  0.41433  0.00000  0.17133
       9     H     0.41453  0.41453  0.00000  0.17093
      10     C     3.15422  3.15422  0.00000 -0.30843
      11     H     0.42088  0.42088  0.00000  0.15824
      12     H     0.42214  0.42214  0.00000  0.15573
      13     C     3.15402  3.15402  0.00000 -0.30805
      14     H     0.42169  0.42169  0.00000  0.15663
      15     H     0.41811  0.41811  0.00000  0.16378
      16     C     3.24065  3.24065  0.00000 -0.48129
      17     H     0.42136  0.42136  0.00000  0.15728
      18     H     0.42325  0.42325  0.00000  0.15350
      19     H     0.42213  0.42213  0.00000  0.15573
      20     H     0.42048  0.42048  0.00000  0.15903
      21     H     0.41932  0.41932  0.00000  0.16136

   Total alpha = 29.00000, Total beta = 29.00000, Total charge =  0.00000
