  ==> Input File <==

--------------------------------------------------------------------------
set {
	reference rhf
	basis 6-31G*
}

set_num_threads( 1 )
memory 2 gb

molecule MOL {
0 1

O	 -0.620152	 -0.032964	 0.386291
C	 0.486307	 0.169203	 0.000779
C	 1.608116	 -0.841643	 0.000302
O	 0.887990	 1.334479	 -0.487474
C	 2.990107	 -0.200498	 -0.000684
H	 1.468623	 -1.481519	 -0.865924
H	 1.469683	 -1.481289	 0.866878
H	 3.129736	 0.423364	 -0.875135
H	 3.757882	 -0.966877	 -0.001197
H	 3.130964	 0.423383	 0.873533
C	 -0.068433	 2.387616	 -0.547121
C	 0.626148	 3.598817	 -1.132665
H	 -0.440265	 2.582974	 0.449453
H	 -0.903373	 2.071529	 -1.157494
H	 1.463112	 3.899463	 -0.512777
H	 -0.069847	 4.428996	 -1.196248
H	 0.997462	 3.385342	 -2.128561

	symmetry c1
}
set optking {
	frozen_dihedral = ("
		2 4 11 13,
		11 4 2 3
	")
}

ee = energy('scf')
oeprop('DIPOLE', 'QUADRUPOLE', 'MULLIKEN_CHARGES')
f=open( 'psi4out.xyz', 'w' )
f.write( "17  " )
f.write( str(ee) + "\n" )
f.write( MOL.save_string_xyz() )
f.close()
--------------------------------------------------------------------------

    Molecular point group: c1

    Geometry (in Angstrom), charge = 0, multiplicity = 1:

       Center              X                  Y                   Z               Mass
    ------------   -----------------  -----------------  -----------------  -----------------
           O         -1.463751143653    -0.969288913021     0.644492561878    15.994914619560
           C         -0.357292143653    -0.767121913021     0.258980561878    12.000000000000
           C          0.764516856347    -1.777967913021     0.258503561878    12.000000000000
           O          0.044390856347     0.398154086979    -0.229272438122    15.994914619560
           C          2.146507856347    -1.136822913021     0.257517561878    12.000000000000
           H          0.625023856347    -2.417843913021    -0.607722438122     1.007825032070
           H          0.626083856347    -2.417613913021     1.125079561878     1.007825032070
           H          2.286136856347    -0.512960913021    -0.616933438122     1.007825032070
           H          2.914282856347    -1.903201913021     0.257004561878     1.007825032070
           H          2.287364856347    -0.512941913021     1.131734561878     1.007825032070
           C         -0.912032143653     1.451291086979    -0.288919438122    12.000000000000
           C         -0.217451143653     2.662492086979    -0.874463438122    12.000000000000
           H         -1.283864143653     1.646649086979     0.707654561878     1.007825032070
           H         -1.746972143653     1.135204086979    -0.899292438122     1.007825032070
           H          0.619512856347     2.963138086979    -0.254575438122     1.007825032070
           H         -0.913446143653     3.492671086979    -0.938046438122     1.007825032070
           H          0.153862856347     2.449017086979    -1.870359438122     1.007825032070

  Charge       = 0
  Multiplicity = 1
  Basis Set: 6-31G*
  Basis Set:

    Orbital Energies (a.u.)
    -----------------------

    Doubly Occupied:

       1A    -20.602507     2A    -20.541760     3A    -11.371444
       4A    -11.285317     5A    -11.237270     6A    -11.223112
       7A    -11.218815     8A     -1.468182     9A     -1.361077
      10A     -1.075027    11A     -1.029259    12A     -0.903438
      13A     -0.860522    14A     -0.778115    15A     -0.691288
      16A     -0.679686    17A     -0.672811    18A     -0.628267
      19A     -0.576754    20A     -0.570345    21A     -0.551731
      22A     -0.547679    23A     -0.523798    24A     -0.516511
      25A     -0.505107    26A     -0.490776    27A     -0.451237
      28A     -0.430752

  @DF-RHF Final Energy:  -344.90867151126400

   => Energetics <=

    Nuclear Repulsion Energy =            319.0619911283553733
    One-Electron Energy =               -1102.3561789944160410
    Two-Electron Energy =                 438.3855163547965503
    DFT Exchange-Correlation Energy =       0.0000000000000000
    Empirical Dispersion Energy =           0.0000000000000000
    PCM Polarization Energy =               0.0000000000000000
    EFP Energy =                            0.0000000000000000
    Total Energy =                       -344.9086715112640604

  Mulliken Charges: (a.u.)
   Center  Symbol    Alpha    Beta     Spin     Total
       1     O     4.28842  4.28842  0.00000 -0.57684
       2     C     2.60372  2.60372  0.00000  0.79257
       3     C     3.20874  3.20874  0.00000 -0.41747
       4     O     4.31098  4.31098  0.00000 -0.62195
       5     C     3.24019  3.24019  0.00000 -0.48038
       6     H     0.39928  0.39928  0.00000  0.20144
       7     H     0.39789  0.39789  0.00000  0.20423
       8     H     0.40740  0.40740  0.00000  0.18521
       9     H     0.41728  0.41728  0.00000  0.16544
      10     H     0.41546  0.41546  0.00000  0.16907
      11     C     3.00205  3.00205  0.00000 -0.00410
      12     C     3.24888  3.24888  0.00000 -0.49776
      13     H     0.40974  0.40974  0.00000  0.18052
      14     H     0.41000  0.41000  0.00000  0.17999
      15     H     0.41191  0.41191  0.00000  0.17618
      16     H     0.41596  0.41596  0.00000  0.16809
      17     H     0.41212  0.41212  0.00000  0.17576

   Total alpha = 28.00000, Total beta = 28.00000, Total charge =  0.00000
