  ==> Input File <==

--------------------------------------------------------------------------
set {
	reference rhf
	basis 6-31G*
}

set_num_threads( 4 )
memory 2 gb

molecule MOL {
0 1

H	 0.985436	 2.697947	 2.396742
O	 1.665008	 2.390388	 1.812542
C	 1.184713	 1.481717	 0.940297
C	 2.079555	 0.944537	 0.020167
C	 -0.137143	 1.080703	 0.936207
H	 3.101708	 1.272424	 0.043638
C	 1.648489	 0.010012	 -0.898478
H	 -0.848063	 1.477977	 1.633554
C	 -0.536158	 0.140425	 0.000000
H	 2.346075	 -0.399521	 -1.605240
C	 0.325062	 -0.409263	 -0.922870
N	 -1.935604	 -0.280333	 0.000000
H	 -0.024229	 -1.133320	 -1.629370
O	 -2.161694	 -1.452901	 0.000000
O	 -2.770341	 0.571417	 0.000000

	symmetry c1
}
set optking {
	frozen_dihedral = ("
		11 9 12 14
	")
}

ee = optimize('scf')
oeprop('DIPOLE', 'QUADRUPOLE', 'MULLIKEN_CHARGES')
f=open( 'psi4out.xyz', 'w' )
f.write( "15  " )
f.write( str(ee) + "\n" )
f.write( MOL.save_string_xyz() )
f.close()
--------------------------------------------------------------------------

    Molecular point group: c1
  Charge       = 0
  Multiplicity = 1
  Basis Set: 6-31G*
  Basis Set:
  @DF-RHF Final Energy:  -509.02219477323797
    Total Energy =                       -509.0221947732384251
    Molecular point group: c1
  Basis Set: 6-31G*
  Basis Set:
  Basis Set: 6-31G*
  Basis Set:
  @DF-RHF Final Energy:  -509.01655771017039
    Total Energy =                       -509.0165577101701047
  Basis Set: 6-31G*
  Basis Set:
  Basis Set: 6-31G*
  Basis Set:
  @DF-RHF Final Energy:  -509.02253822497607
    Total Energy =                       -509.0225382249761878
  Basis Set: 6-31G*
  Basis Set:
  Basis Set: 6-31G*
  Basis Set:
  @DF-RHF Final Energy:  -509.02276530188004
    Total Energy =                       -509.0227653018799856
  Basis Set: 6-31G*
  Basis Set:
  Basis Set: 6-31G*
  Basis Set:
  @DF-RHF Final Energy:  -509.02276775860832
    Total Energy =                       -509.0227677586087793
  Basis Set: 6-31G*
  Basis Set:
  Basis Set: 6-31G*
  Basis Set:
  @DF-RHF Final Energy:  -509.02276767892948
    Total Energy =                       -509.0227676789295401
  Basis Set: 6-31G*
  Basis Set:
  Charge       = 0
  Multiplicity = 1
  Basis Set: 6-31G*
  Basis Set:

    Orbital Energies (a.u.)
    -----------------------

    Doubly Occupied:

       1A    -20.617148     2A    -20.608323     3A    -20.607628
       4A    -15.858944     5A    -11.332495     6A    -11.314184
       7A    -11.268416     8A    -11.268220     9A    -11.264116
      10A    -11.257637    11A     -1.639759    12A     -1.438072
      13A     -1.423687    14A     -1.202196    15A     -1.095898
      16A     -1.048103    17A     -0.966068    18A     -0.882339
      19A     -0.829641    20A     -0.789650    21A     -0.759886
      22A     -0.734624    23A     -0.720213    24A     -0.710629
      25A     -0.670547    26A     -0.635623    27A     -0.617295
      28A     -0.593636    29A     -0.562253    30A     -0.547682
      31A     -0.526468    32A     -0.490693    33A     -0.488723
      34A     -0.454128    35A     -0.375116    36A     -0.343320

  @DF-RHF Final Energy:  -509.02276836172433

   => Energetics <=

    Nuclear Repulsion Energy =            503.1869737857581981
    One-Electron Energy =               -1692.5327597255793535
    Two-Electron Energy =                 680.3230175780970512
    DFT Exchange-Correlation Energy =       0.0000000000000000
    Empirical Dispersion Energy =           0.0000000000000000
    PCM Polarization Energy =               0.0000000000000000
    EFP Energy =                            0.0000000000000000
    Total Energy =                       -509.0227683617240473
    Molecular point group: c1
  Basis Set: 6-31G*
  Basis Set:

  -Total Gradient:
     Atom            X                  Y                   Z
    ------   -----------------  -----------------  -----------------
       1        0.000004264796    -0.000000103693     0.000008713991
       2       -0.000024224807    -0.000002346753    -0.000015027652
       3        0.000053216767    -0.000011146459    -0.000029125225
       4        0.000006740401    -0.000016373155     0.000037732478
       5       -0.000125169592     0.000006050512    -0.000149953652
       6       -0.000000483640    -0.000002016684     0.000000742314
       7       -0.000029280735     0.000051194241    -0.000025836749
       8       -0.000028366959     0.000013125290     0.000034156969
       9        0.001624927967    -0.006128932334     0.007198258195
      10       -0.000000374250    -0.000004158051     0.000003316223
      11       -0.001112701866     0.004106391954    -0.003260130878
      12       -0.000451776878     0.002179357389    -0.009883302111
      13       -0.000003504815    -0.000038811882    -0.000011684658
      14        0.000026037000    -0.000238589694     0.006026866371
      15        0.000060696617     0.000086359316     0.000065274382

  **** Optimization is complete! (in 7 steps) ****
    Final optimized geometry and variables:
    Molecular point group: c1

    Geometry (in Angstrom), charge = 0, multiplicity = 1:

    H            1.112173579660     2.249569234039     2.168075333708
    O            1.793994819360     1.932487480025     1.591725365638
    C            1.316321971877     1.022557491276     0.721160584179
    C            2.210878182799     0.491096046968    -0.202957747689
    C           -0.007241220378     0.622471447134     0.713524169772
    H            3.230388464297     0.827186578310    -0.184379684795
    C            1.781449615606    -0.441996486504    -1.123487063184
    H           -0.727664798622     1.041104647930     1.390971009842
    C           -0.390118897475    -0.341280555032    -0.200927585305
    H            2.476312020320    -0.836974449304    -1.841211645673
    C            0.462543473132    -0.878456943453    -1.135195174329
    N           -1.795495081916    -0.730140299221    -0.232996420995
    H            0.115142082341    -1.614097953369    -1.833497138397
    O           -2.038013277615    -1.896935529157    -0.279436847752
    O           -2.606791585459     0.142735084694    -0.168196765942

  Mulliken Charges: (a.u.)
   Center  Symbol    Alpha    Beta     Spin     Total
       1     H     0.26734  0.26734  0.00000  0.46532
       2     O     4.37466  4.37466  0.00000 -0.74933
       3     C     2.79301  2.79301  0.00000  0.41397
       4     C     3.11243  3.11243  0.00000 -0.22486
       5     C     3.13405  3.13405  0.00000 -0.26809
       6     H     0.38161  0.38161  0.00000  0.23679
       7     C     3.09803  3.09803  0.00000 -0.19605
       8     H     0.37607  0.37607  0.00000  0.24787
       9     C     2.89584  2.89584  0.00000  0.20831
      10     H     0.38659  0.38659  0.00000  0.22682
      11     C     3.09999  3.09999  0.00000 -0.19997
      12     N     3.25654  3.25654  0.00000  0.48693
      13     H     0.37299  0.37299  0.00000  0.25401
      14     O     4.22334  4.22334  0.00000 -0.44668
      15     O     4.22752  4.22752  0.00000 -0.45504

   Total alpha = 36.00000, Total beta = 36.00000, Total charge =  0.00000
