                              Psi4 1.0.54 Driver

  ==> Input File <==

--------------------------------------------------------------------------
set {
	reference rhf
	basis cc-pvtz
}

set_num_threads( 4 )
memory 2 gb

molecule MOL {
0 1

H	 2.614283	 2.028610	 0.296620
O	 3.358864	 1.662087	 -0.142800
C	 3.565468	 0.338079	 0.273842
C	 2.533667	 -0.637565	 -0.272227
H	 4.548038	 0.064914	 -0.086598
H	 3.593945	 0.282242	 1.360360
C	 1.114816	 -0.402372	 0.240993
H	 2.544552	 -0.580764	 -1.356576
H	 2.850574	 -1.642962	 -0.005497
C	 0.113298	 -1.420414	 -0.302504
H	 0.796373	 0.598427	 -0.031033
H	 1.113377	 -0.446476	 1.328807
C	 -0.079089	 -1.391145	 -1.819865
H	 0.418744	 -2.418748	 0.001239
H	 -0.849345	 -1.242884	 0.168953
C	 1.136575	 -1.829923	 -2.634344
H	 -0.914534	 -2.039183	 -2.070075
H	 -0.373527	 -0.389354	 -2.124622
C	 0.863730	 -1.878917	 -4.135532
H	 1.457210	 -2.813275	 -2.297177
H	 1.970537	 -1.158910	 -2.451993
C	 2.076492	 -2.313021	 -4.952022
H	 0.038341	 -2.558794	 -4.328089
H	 0.535138	 -0.899334	 -4.472439
H	 2.410122	 -3.303542	 -4.660825
H	 1.848066	 -2.339683	 -6.011370
H	 2.908495	 -1.631011	 -4.810647

	symmetry c1
}
set optking {
	frozen_dihedral = ("
		14 10 7 4
	")
}

ee,wfn = optimize('scf', return_wfn=True)
oeprop( wfn, 'DIPOLE', 'QUADRUPOLE', 'MULLIKEN_CHARGES')
f=open( 'psi4out.xyz', 'w' )
f.write( "27  " )
f.write( str(ee) + "\n" )
f.write( MOL.save_string_xyz() )
f.close()
--------------------------------------------------------------------------

    Molecular point group: c1
  Charge       = 0
  Multiplicity = 1
  Basis Set: CC-PVTZ
  Basis Set:
  @DF-RHF Final Energy:  -388.40529172499561
    Total Energy =                       -388.4052917249955499
    Molecular point group: c1
  Basis Set: CC-PVTZ
  Basis Set:
  Basis Set: CC-PVTZ
  Basis Set:
  @DF-RHF Final Energy:  -388.13774817191552
    Total Energy =                       -388.1377481719151774
  Basis Set: CC-PVTZ
  Basis Set:
  Basis Set: CC-PVTZ
  Basis Set:
  @DF-RHF Final Energy:  -388.28563611693971
    Total Energy =                       -388.2856361169393722
  Basis Set: CC-PVTZ
  Basis Set:
  Basis Set: CC-PVTZ
  Basis Set:
  @DF-RHF Final Energy:  -388.40706118228087
    Total Energy =                       -388.4070611822816090
  Basis Set: CC-PVTZ
  Basis Set:
  @DF-RHF Final Energy:  -388.41976662890210
    Total Energy =                       -388.4197666289022663
  @DF-RHF Final Energy:  -388.42202955769545
    Total Energy =                       -388.4220295576957369
  @DF-RHF Final Energy:  -388.42283156866711
    Total Energy =                       -388.4228315686672204
  @DF-RHF Final Energy:  -388.42299020257963
    Total Energy =                       -388.4229902025797401
  @DF-RHF Final Energy:  -388.42307804930459
    Total Energy =                       -388.4230780493052180
  @DF-RHF Final Energy:  -388.42324057215046
    Total Energy =                       -388.4232405721504620
  Basis Set: CC-PVTZ
  Basis Set:
  @DF-RHF Final Energy:  -388.42326527893948
    Total Energy =                       -388.4232652789391977
  Basis Set: CC-PVTZ
  Basis Set:
  Basis Set: CC-PVTZ
  Basis Set:
  @DF-RHF Final Energy:  -388.42327384608694
    Total Energy =                       -388.4232738460865448
  Basis Set: CC-PVTZ
  Basis Set:
  Basis Set: CC-PVTZ
  Basis Set:
  @DF-RHF Final Energy:  -388.42327664025021
    Total Energy =                       -388.4232766402499237
  Basis Set: CC-PVTZ
  Basis Set:
  Charge       = 0
  Multiplicity = 1
  Basis Set: CC-PVTZ
  Basis Set:

    Orbital Energies (a.u.)
    -----------------------

    Doubly Occupied:

       1A    -20.545584     2A    -11.265151     3A    -11.218106
       4A    -11.215060     5A    -11.213210     6A    -11.212161
       7A    -11.212007     8A    -11.210017     9A    -11.205809
      10A     -1.363512    11A     -1.094324    12A     -1.060808
      13A     -1.009919    14A     -0.952243    15A     -0.885589
      16A     -0.830386    17A     -0.792195    18A     -0.776847
      19A     -0.698586    20A     -0.647875    21A     -0.635478
      22A     -0.616981    23A     -0.607541    24A     -0.587544
      25A     -0.567923    26A     -0.554802    27A     -0.549100
      28A     -0.519558    29A     -0.514244    30A     -0.498084
      31A     -0.483734    32A     -0.472762    33A     -0.465154
      34A     -0.460465    35A     -0.455587    36A     -0.435986
      37A     -0.425416

  @DF-RHF Final Energy:  -388.42327688849537

   => Energetics <=

    Nuclear Repulsion Energy =            468.2743167883461410
    One-Electron Energy =               -1454.8757027658525658
    Two-Electron Energy =                 598.1781090890108317
    DFT Exchange-Correlation Energy =       0.0000000000000000
    Empirical Dispersion Energy =           0.0000000000000000
    PCM Polarization Energy =               0.0000000000000000
    EFP Energy =                            0.0000000000000000
    Total Energy =                       -388.4232768884955931
    Molecular point group: c1
  Basis Set: CC-PVTZ
  Basis Set:

  -Total Gradient:
     Atom            X                  Y                   Z
    ------   -----------------  -----------------  -----------------
       1       -0.000003096393    -0.000018282262     0.000007009597
       2        0.000044861107     0.000011212910    -0.000019912871
       3       -0.000021439063    -0.000022543259     0.000013439400
       4       -0.000004734622    -0.000026658979     0.000022839207
       5       -0.000016695239     0.000020735887     0.000000116767
       6        0.000011718754    -0.000000383925    -0.000011439235
       7        0.000003024433     0.000027368720    -0.000060769025
       8       -0.000004484669    -0.000004054620     0.000008749494
       9       -0.000013498980     0.000023459007     0.000003874586
      10       -0.000000746671    -0.000037398518     0.000039876980
      11        0.000008785735    -0.000016304748    -0.000004605734
      12        0.000001089485    -0.000007991265    -0.000012758848
      13       -0.000014624571     0.000034093857     0.000006091002
      14       -0.000001323471     0.000011226384    -0.000020298774
      15        0.000003617236     0.000001070400     0.000009909673
      16       -0.000008023604    -0.000002692375     0.000005145209
      17        0.000008370852     0.000010541178     0.000005794902
      18        0.000002720056    -0.000017439231     0.000002386618
      19        0.000012877493     0.000012351390    -0.000010702780
      20       -0.000001891730     0.000009412464     0.000004627315
      21       -0.000000502647     0.000013315754     0.000011755905
      22       -0.000010244157    -0.000033265886     0.000005402597
      23        0.000004732099     0.000004383538     0.000000238022
      24        0.000005918465    -0.000004861451     0.000005783692
      25        0.000002991593     0.000006437818     0.000004176856
      26        0.000003028377     0.000007418786    -0.000011473021
      27       -0.000012429874    -0.000001151566    -0.000005257537

  **** Optimization is complete! (in 14 steps) ****
    Final optimized geometry and variables:
    Molecular point group: c1

    Geometry (in Angstrom), charge = 0, multiplicity = 1:

    H           -1.247208130534     2.584098625380     2.534732279435
    O           -0.375800925182     2.851650880491     2.309247002063
    C            0.526837724795     1.799827946805     2.527867155169
    C            0.399600521499     0.672521400065     1.513283493799
    H            1.513142626321     2.238652062229     2.460045575205
    H            0.416545006086     1.408522564247     3.537300564540
    C           -0.931977328353    -0.071950914741     1.589120852536
    H            0.542529587473     1.091696947721     0.524034930560
    H            1.215007394717    -0.025888294660     1.685799015398
    C           -1.061369525432    -1.306637885601     0.691448497947
    H           -1.741970512948     0.611196680475     1.346666146837
    H           -1.093622503112    -0.387560433101     2.617706921744
    C           -1.014684252081    -1.045425054205    -0.824322823173
    H           -0.294225009296    -2.028662469158     0.959144206988
    H           -2.008619245024    -1.777422985233     0.932600238467
    C            0.357966791113    -1.228934224562    -1.471918638180
    H           -1.705999673295    -1.723253450745    -1.315602581389
    H           -1.383967488053    -0.044275396693    -1.031824228970
    C            0.354188010673    -0.949314611596    -2.972263038889
    H            0.692653395655    -2.249418989237    -1.300564206625
    H            1.090257597956    -0.587460519489    -0.993353203446
    C            1.715737681766    -1.162328144337    -3.625538576829
    H           -0.380315189540    -1.588466694132    -3.454873545886
    H            0.028103599692     0.072586565950    -3.145815753430
    H            2.054395435590    -2.185460684864    -3.499988916567
    H            1.678435619233    -0.954949589959    -4.688867906945
    H            2.465760587764    -0.511547419165    -3.188355033587

  Mulliken Charges: (a.u.)
   Center  Symbol    Alpha    Beta     Spin     Total
       1     H     0.39231  0.39231  0.00000  0.21537
       2     O     4.20572  4.20572  0.00000 -0.41144
       3     C     2.98057  2.98057  0.00000  0.03887
       4     C     3.09678  3.09678  0.00000 -0.19356
       5     H     0.44847  0.44847  0.00000  0.10306
       6     H     0.46819  0.46819  0.00000  0.06361
       7     C     3.10504  3.10504  0.00000 -0.21009
       8     H     0.44928  0.44928  0.00000  0.10144
       9     H     0.45259  0.45259  0.00000  0.09481
      10     C     3.10557  3.10557  0.00000 -0.21113
      11     H     0.45601  0.45601  0.00000  0.08798
      12     H     0.44773  0.44773  0.00000  0.10454
      13     C     3.10437  3.10437  0.00000 -0.20873
      14     H     0.45338  0.45338  0.00000  0.09324
      15     H     0.44274  0.44274  0.00000  0.11452
      16     C     3.08795  3.08795  0.00000 -0.17591
      17     H     0.44548  0.44548  0.00000  0.10903
      18     H     0.45078  0.45078  0.00000  0.09845
      19     C     3.08527  3.08527  0.00000 -0.17054
      20     H     0.45397  0.45397  0.00000  0.09205
      21     H     0.45116  0.45116  0.00000  0.09768
      22     C     3.14982  3.14982  0.00000 -0.29963
      23     H     0.45416  0.45416  0.00000  0.09168
      24     H     0.45379  0.45379  0.00000  0.09242
      25     H     0.45551  0.45551  0.00000  0.08898
      26     H     0.44830  0.44830  0.00000  0.10341
      27     H     0.45506  0.45506  0.00000  0.08989

   Total alpha = 37.00000, Total beta = 37.00000, Total charge = -0.00000

*** Psi4 exiting successfully. Buy a developer a beer!
