  ==> Input File <==

--------------------------------------------------------------------------
set {
	reference rhf
	basis cc-pvtz
}

set_num_threads( 4 )
memory 2 gb

molecule MOL {
0 1

H	 2.322434	 -1.228838	 -0.043611
O	 1.655252	 -0.659762	 -0.379879
C	 1.108329	 0.110584	 0.659090
C	 0.027642	 1.012027	 0.090274
H	 1.877568	 0.725787	 1.119053
H	 0.701031	 -0.532720	 1.434157
C	 -1.138737	 0.285728	 -0.581921
H	 0.491570	 1.676777	 -0.631104
H	 -0.345921	 1.636342	 0.898293
C	 -1.933983	 -0.631436	 0.343653
H	 -0.763151	 -0.285569	 -1.422081
H	 -1.808359	 1.035291	 -0.992333
H	 -2.789188	 -1.049673	 -0.174718
H	 -1.335629	 -1.461368	 0.700418
H	 -2.305435	 -0.092167	 1.209725

	symmetry c1
}
set optking {
	frozen_dihedral = ("
		8 4 7 11
	")
}

ee = optimize('scf')
oeprop('DIPOLE', 'QUADRUPOLE', 'MULLIKEN_CHARGES')
f=open( 'psi4out.xyz', 'w' )
f.write( "15  " )
f.write( str(ee) + "\n" )
f.write( MOL.save_string_xyz() )
f.close()
--------------------------------------------------------------------------

    Molecular point group: c1
  Charge       = 0
  Multiplicity = 1
  Basis Set: CC-PVTZ
  Basis Set:
  @DF-RHF Final Energy:  -232.23761777399562
    Total Energy =                       -232.2376177739956233
    Molecular point group: c1
  Basis Set: CC-PVTZ
  Basis Set:
  Basis Set: CC-PVTZ
  Basis Set:
  @DF-RHF Final Energy:  -232.23761665830537
    Total Energy =                       -232.2376166583053987
  Basis Set: CC-PVTZ
  Basis Set:
  Basis Set: CC-PVTZ
  Basis Set:
  @DF-RHF Final Energy:  -232.23762337174199
    Total Energy =                       -232.2376233717417904
  Basis Set: CC-PVTZ
  Basis Set:
  Charge       = 0
  Multiplicity = 1
  Basis Set: CC-PVTZ
  Basis Set:

    Orbital Energies (a.u.)
    -----------------------

    Doubly Occupied:

       1A    -20.546589     2A    -11.265297     3A    -11.210984
       4A    -11.207388     5A    -11.202975     6A     -1.364361
       7A     -1.065358     8A     -0.971520     9A     -0.869797
      10A     -0.774852    11A     -0.707175    12A     -0.650253
      13A     -0.609437    14A     -0.574616    15A     -0.566068
      16A     -0.533093    17A     -0.511497    18A     -0.475761
      19A     -0.467254    20A     -0.452976    21A     -0.433642

  @DF-RHF Final Energy:  -232.23762339667496

   => Energetics <=

    Nuclear Repulsion Energy =            192.0887867045452140
    One-Electron Energy =                -695.7310350636398653
    Two-Electron Energy =                 271.4046249624194616
    DFT Exchange-Correlation Energy =       0.0000000000000000
    Empirical Dispersion Energy =           0.0000000000000000
    PCM Polarization Energy =               0.0000000000000000
    EFP Energy =                            0.0000000000000000
    Total Energy =                       -232.2376233966751897
    Molecular point group: c1
  Basis Set: CC-PVTZ
  Basis Set:

  -Total Gradient:
     Atom            X                  Y                   Z
    ------   -----------------  -----------------  -----------------
       1       -0.000001450472    -0.000001137393    -0.000000835440
       2        0.000011155983    -0.000002481439    -0.000003017304
       3       -0.000006017430     0.000000982890     0.000009487970
       4       -0.000316668540     0.000424998626     0.000081425230
       5        0.000001822944    -0.000001418727     0.000000238298
       6        0.000004635419    -0.000000029905    -0.000000631390
       7        0.000126093165    -0.000448253655     0.000264334191
       8        0.000240718654    -0.000285870960    -0.000110674528
       9        0.000001927895     0.000000851104    -0.000001078811
      10        0.000001160187     0.000001026757    -0.000002154133
      11       -0.000059861461     0.000308183151    -0.000229024470
      12       -0.000006411800    -0.000001608982    -0.000001555086
      13       -0.000000400284     0.000002682627    -0.000001401598
      14       -0.000001398744    -0.000000272241    -0.000003389327
      15        0.000004694485     0.000002348145    -0.000001723603

  **** Optimization is complete! (in 4 steps) ****
    Final optimized geometry and variables:
    Molecular point group: c1

    Geometry (in Angstrom), charge = 0, multiplicity = 1:

    H            2.331656521254    -1.218003123842    -0.073666460725
    O            1.661601840427    -0.651584913299    -0.408491021502
    C            1.121479005435     0.124591171270     0.629633593738
    C            0.037878462261     1.023750435089     0.062644337462
    H            1.893711376129     0.741711586210     1.081974595364
    H            0.718278866150    -0.514290789511     1.410403232449
    C           -1.126487584810     0.295407992576    -0.610880216723
    H            0.500439153720     1.689055670893    -0.659113325216
    H           -0.336589498582     1.645835872882     0.871827268170
    C           -1.924974036732    -0.620899060380     0.312292496991
    H           -0.749245632629    -0.275142643666    -1.450752641949
    H           -1.794427068524     1.045187067418    -1.023957558928
    H           -2.782827785013    -1.032717980953    -0.206760353210
    H           -1.329956800277    -1.454943189807     0.664655042206
    H           -2.292906122990    -0.083107446909     1.180837245308

  Mulliken Charges: (a.u.)
   Center  Symbol    Alpha    Beta     Spin     Total
       1     H     0.39552  0.39552  0.00000  0.20895
       2     O     4.19944  4.19944  0.00000 -0.39888
       3     C     2.97661  2.97661  0.00000  0.04678
       4     C     3.09520  3.09520  0.00000 -0.19039
       5     H     0.46280  0.46280  0.00000  0.07439
       6     H     0.47199  0.47199  0.00000  0.05602
       7     C     3.08523  3.08523  0.00000 -0.17045
       8     H     0.44865  0.44865  0.00000  0.10271
       9     H     0.45429  0.45429  0.00000  0.09143
      10     C     3.15569  3.15569  0.00000 -0.31138
      11     H     0.44672  0.44672  0.00000  0.10655
      12     H     0.45113  0.45113  0.00000  0.09774
      13     H     0.44657  0.44657  0.00000  0.10685
      14     H     0.45319  0.45319  0.00000  0.09363
      15     H     0.45697  0.45697  0.00000  0.08606

   Total alpha = 21.00000, Total beta = 21.00000, Total charge =  0.00000
