  ==> Input File <==

--------------------------------------------------------------------------
set {
	reference rhf
	basis 6-31G*
}

set_num_threads( 4 )
memory 2 gb

molecule MOL {
0 1

O	 3.225979	 0.970355	 -0.599647
C	 2.701189	 0.057885	 -0.047330
C	 1.245376	 -0.013843	 0.345420
O	 3.347903	 -1.046386	 0.304773
C	 0.455112	 1.231400	 -0.050772
H	 0.838542	 -0.913825	 -0.103701
H	 1.208210	 -0.175333	 1.419774
C	 -0.998893	 1.219485	 0.433193
H	 0.482531	 1.345121	 -1.130325
H	 0.957290	 2.103070	 0.354729
C	 -1.883438	 0.145884	 -0.207175
H	 -1.431207	 2.195402	 0.224832
H	 -1.019646	 1.105716	 1.516076
C	 -3.347647	 0.245583	 0.225435
H	 -1.822183	 0.231698	 -1.291012
H	 -1.510341	 -0.844814	 0.042401
C	 -4.233160	 -0.847174	 -0.376132
H	 -3.740464	 1.220991	 -0.056537
H	 -3.406318	 0.196866	 1.311659
C	 -5.694508	 -0.738205	 0.057791
H	 -4.174915	 -0.800565	 -1.461525
H	 -3.844627	 -1.822861	 -0.091778
H	 -6.296424	 -1.525978	 -0.384609
H	 -6.122848	 0.213723	 -0.243127
H	 -5.789841	 -0.815841	 1.137216
C	 4.728119	 -1.109107	 -0.004993
H	 4.882018	 -1.033965	 -1.071845
H	 5.068212	 -2.067527	 0.355250
H	 5.265056	 -0.311663	 0.488280

	symmetry c1
}
set optking {
	frozen_dihedral = ("
		17 14 11 15
	")
}

ee = optimize('scf')
oeprop('DIPOLE', 'QUADRUPOLE', 'MULLIKEN_CHARGES')
f=open( 'psi4out.xyz', 'w' )
f.write( "29  " )
f.write( str(ee) + "\n" )
f.write( MOL.save_string_xyz() )
f.close()
--------------------------------------------------------------------------

    Molecular point group: c1
  Charge       = 0
  Multiplicity = 1
  Basis Set: 6-31G*
  Basis Set:
  @DF-RHF Final Energy:  -501.04410479097749
    Total Energy =                       -501.0441047909780536
    Molecular point group: c1
  Basis Set: 6-31G*
  Basis Set:
  Charge       = 0
  Multiplicity = 1
  Basis Set: 6-31G*
  Basis Set:

    Orbital Energies (a.u.)
    -----------------------

    Doubly Occupied:

       1A    -20.603367     2A    -20.545192     3A    -11.372001
       4A    -11.280659     5A    -11.234740     6A    -11.219080
       7A    -11.217603     8A    -11.215999     9A    -11.215849
      10A    -11.214461    11A    -11.209062    12A     -1.469063
      13A     -1.362508    14A     -1.098083    15A     -1.066804
      16A     -1.019510    17A     -0.977224    18A     -0.928536
      19A     -0.861604    20A     -0.799267    21A     -0.790480
      22A     -0.763787    23A     -0.700692    24A     -0.682313
      25A     -0.672175    26A     -0.650906    27A     -0.628834
      28A     -0.604769    29A     -0.594811    30A     -0.580948
      31A     -0.567051    32A     -0.549238    33A     -0.531700
      34A     -0.530463    35A     -0.516193    36A     -0.511827
      37A     -0.496207    38A     -0.477855    39A     -0.470247
      40A     -0.462274    41A     -0.458942    42A     -0.455790
      43A     -0.441127    44A     -0.435360

  @DF-RHF Final Energy:  -501.04410388853728

   => Energetics <=

    Nuclear Repulsion Energy =            610.1859614738692699
    One-Electron Energy =               -1891.4909230086514071
    Two-Electron Energy =                 780.2608576462446308
    DFT Exchange-Correlation Energy =       0.0000000000000000
    Empirical Dispersion Energy =           0.0000000000000000
    PCM Polarization Energy =               0.0000000000000000
    EFP Energy =                            0.0000000000000000
    Total Energy =                       -501.0441038885376202
    Molecular point group: c1
  Basis Set: 6-31G*
  Basis Set:

  -Total Gradient:
     Atom            X                  Y                   Z
    ------   -----------------  -----------------  -----------------
       1        0.000001909908     0.000004831831     0.000009335946
       2       -0.000007602778    -0.000004912095    -0.000027572361
       3        0.000005718627    -0.000002364638     0.000008662316
       4        0.000000222793     0.000000545996     0.000010203935
       5       -0.000006661558     0.000006741746    -0.000057448688
       6        0.000032715104     0.000010309884     0.000009560119
       7        0.000000101342    -0.000000467471     0.000000632049
       8       -0.000059473965    -0.000017595877    -0.000095613614
       9        0.000013977760     0.000002147020    -0.000004731478
      10       -0.000003539681    -0.000001777273    -0.000003110741
      11        0.000024006749    -0.000455515280     0.000209887652
      12       -0.000027551769     0.000012630071     0.000031317142
      13        0.000003287797    -0.000049356017    -0.000021178096
      14       -0.000065808200     0.000348379219    -0.000335750504
      15        0.000068961197     0.000324231634     0.000049821187
      16       -0.000006011097    -0.000038546628     0.000014830099
      17        0.000054098234    -0.000152251016     0.000205868310
      18       -0.000058807240     0.000042758630     0.000047149332
      19        0.000036267953    -0.000040588396    -0.000040944720
      20       -0.000004457366     0.000016993113    -0.000019586417
      21        0.000028356067     0.000003211600     0.000011376360
      22       -0.000025689266    -0.000016571379     0.000008849764
      23       -0.000000919350     0.000003180125    -0.000005206801
      24       -0.000009114570     0.000004634460     0.000002154722
      25        0.000008056860    -0.000001615476    -0.000007533848
      26       -0.000001234660     0.000000524312    -0.000002291684
      27        0.000000404678    -0.000000137233    -0.000000014071
      28       -0.000001295439     0.000000377172     0.000000761395
      29        0.000000081850     0.000000201967     0.000000572698

  **** Optimization is complete! (in 2 steps) ****
    Final optimized geometry and variables:
    Molecular point group: c1

    Geometry (in Angstrom), charge = 0, multiplicity = 1:

    O            3.221435900315     0.977758854939    -0.609845482749
    C            2.701293037975     0.063899618460    -0.055430095079
    C            1.247133649299    -0.011933803704     0.342603086655
    O            3.352496474211    -1.038333401014     0.294779221646
    C            0.451835538246     1.230870039531    -0.051166309204
    H            0.841314042953    -0.913263414114    -0.104722839640
    H            1.214332083158    -0.173135646401     1.417144104797
    C           -1.000380661925     1.214768904237     0.437997931973
    H            0.475128678389     1.344335717027    -1.130840327455
    H            0.952886383576     2.104132559263     0.352290699151
    C           -1.883572340325     0.137161418936    -0.197463875284
    H           -1.436712174369     2.188957257591     0.229727335747
    H           -1.016997902734     1.102503101302     1.521081557399
    C           -3.350425479025     0.246811798188     0.223767158462
    H           -1.814739436729     0.214501979717    -1.281468334620
    H           -1.514884176911    -0.852159336447     0.063851539482
    C           -4.236689760674    -0.846405049180    -0.375837249759
    H           -3.736495766066     1.222473158992    -0.066480158210
    H           -3.416865994949     0.204667689442     1.309821848422
    C           -5.702717842015    -0.720499560524     0.037222584868
    H           -4.163815857288    -0.814124372892    -1.460898477142
    H           -3.859695432750    -1.821341525685    -0.074028203297
    H           -6.304847375501    -1.509687114052    -0.402365234778
    H           -6.119760353437     0.230427457034    -0.282152433046
    H           -5.812720517724    -0.782691192937     1.116252737913
    C            4.731774206313    -1.097142129932    -0.019893089937
    H            4.881648021862    -1.022026275359    -1.087324824054
    H            5.075933349302    -2.054400974638     0.339555382083
    H            5.268121801714    -0.297914224309     0.471130085764

  Mulliken Charges: (a.u.)
   Center  Symbol    Alpha    Beta     Spin     Total
       1     O     4.28596  4.28596  0.00000 -0.57193
       2     C     2.60484  2.60484  0.00000  0.79031
       3     C     3.20973  3.20973  0.00000 -0.41945
       4     O     4.30746  4.30746  0.00000 -0.61493
       5     C     3.15379  3.15379  0.00000 -0.30758
       6     H     0.39877  0.39877  0.00000  0.20246
       7     H     0.40125  0.40125  0.00000  0.19750
       8     C     3.15667  3.15667  0.00000 -0.31334
       9     H     0.41309  0.41309  0.00000  0.17383
      10     H     0.40876  0.40876  0.00000  0.18249
      11     C     3.15504  3.15504  0.00000 -0.31008
      12     H     0.41824  0.41824  0.00000  0.16351
      13     H     0.42384  0.42384  0.00000  0.15232
      14     C     3.15034  3.15034  0.00000 -0.30068
      15     H     0.42263  0.42263  0.00000  0.15474
      16     H     0.42356  0.42356  0.00000  0.15289
      17     C     3.15146  3.15146  0.00000 -0.30292
      18     H     0.42322  0.42322  0.00000  0.15356
      19     H     0.42401  0.42401  0.00000  0.15197
      20     C     3.23936  3.23936  0.00000 -0.47871
      21     H     0.42285  0.42285  0.00000  0.15430
      22     H     0.42340  0.42340  0.00000  0.15321
      23     H     0.41923  0.41923  0.00000  0.16153
      24     H     0.42154  0.42154  0.00000  0.15692
      25     H     0.42183  0.42183  0.00000  0.15634
      26     C     3.09240  3.09240  0.00000 -0.18481
      27     H     0.40908  0.40908  0.00000  0.18183
      28     H     0.40852  0.40852  0.00000  0.18296
      29     H     0.40912  0.40912  0.00000  0.18175

   Total alpha = 44.00000, Total beta = 44.00000, Total charge =  0.00000
