  ==> Input File <==

--------------------------------------------------------------------------
set {
	reference rhf
	basis 6-31G*
}

set_num_threads( 4 )
memory 2 gb

molecule MOL {
0 1

O	 2.453569	 1.996977	 1.491619
C	 2.212724	 1.151709	 2.298014
C	 0.922618	 0.351788	 2.271738
C	 3.187885	 0.820410	 3.409076
C	 -0.020114	 0.729532	 1.132967
H	 1.186106	 -0.703774	 2.219290
H	 0.432023	 0.478839	 3.235884
C	 -1.307367	 -0.096728	 1.138962
H	 0.496077	 0.602034	 0.186700
H	 -0.259076	 1.785906	 1.204515
C	 -2.259874	 0.272531	 0.000494
H	 -1.060256	 -1.155165	 1.070464
H	 -1.819150	 0.034458	 2.091294
C	 -3.549786	 -0.549746	 -0.000374
H	 -1.749546	 0.141090	 -0.952033
H	 -2.508275	 1.330204	 0.068474
C	 -4.809590	 0.315458	 -0.000369
H	 -3.560515	 -1.202009	 -0.871156
H	 -3.561123	 -1.202955	 0.869711
H	 -4.844746	 0.956611	 -0.876632
H	 -5.706986	 -0.295590	 -0.001609
H	 -4.845960	 0.954827	 0.877144
H	 3.483430	 -0.223321	 3.355245
H	 4.063879	 1.448413	 3.324929
H	 2.723514	 0.974129	 4.378800

	symmetry c1
}
set optking {
	frozen_dihedral = ("
		15 11 14 18
	")
}

ee = optimize('scf')
oeprop('DIPOLE', 'QUADRUPOLE', 'MULLIKEN_CHARGES')
f=open( 'psi4out.xyz', 'w' )
f.write( "25  " )
f.write( str(ee) + "\n" )
f.write( MOL.save_string_xyz() )
f.close()
--------------------------------------------------------------------------

    Molecular point group: c1
  Charge       = 0
  Multiplicity = 1
  Basis Set: 6-31G*
  Basis Set:
  @DF-RHF Final Energy:  -387.13081626399969
    Total Energy =                       -387.1308162640008277
    Molecular point group: c1
  Basis Set: 6-31G*
  Basis Set:
  Basis Set: 6-31G*
  Basis Set:
  @DF-RHF Final Energy:  -387.13104339495874
    Total Energy =                       -387.1310433949586240
  Basis Set: 6-31G*
  Basis Set:
  Basis Set: 6-31G*
  Basis Set:
  @DF-RHF Final Energy:  -387.13112210922947
    Total Energy =                       -387.1311221092290680
  Basis Set: 6-31G*
  Basis Set:
  Basis Set: 6-31G*
  Basis Set:
  @DF-RHF Final Energy:  -387.13110836510464
    Total Energy =                       -387.1311083651048648
  Basis Set: 6-31G*
  Basis Set:
  Basis Set: 6-31G*
  Basis Set:
  @DF-RHF Final Energy:  -387.13112201164830
    Total Energy =                       -387.1311220116482446
  Basis Set: 6-31G*
  Basis Set:
  Charge       = 0
  Multiplicity = 1
  Basis Set: 6-31G*
  Basis Set:

    Orbital Energies (a.u.)
    -----------------------

    Doubly Occupied:

       1A    -20.550471     2A    -11.326313     3A    -11.231928
       4A    -11.228358     5A    -11.217260     6A    -11.216427
       7A    -11.215060     8A    -11.213250     9A    -11.208686
      10A     -1.395776    11A     -1.092563    12A     -1.054636
      13A     -1.014166    14A     -0.969052    15A     -0.890333
      16A     -0.815983    17A     -0.790020    18A     -0.729845
      19A     -0.658756    20A     -0.652525    21A     -0.626499
      22A     -0.623123    23A     -0.601304    24A     -0.586755
      25A     -0.569295    26A     -0.558316    27A     -0.532670
      28A     -0.529415    29A     -0.515093    30A     -0.490246
      31A     -0.485217    32A     -0.477142    33A     -0.463976
      34A     -0.455775    35A     -0.449086    36A     -0.399320

  @DF-RHF Final Energy:  -387.13112256488358

   => Energetics <=

    Nuclear Repulsion Energy =            438.9881036367500542
    One-Electron Energy =               -1394.5691750930068338
    Two-Electron Energy =                 568.4499488913731966
    DFT Exchange-Correlation Energy =       0.0000000000000000
    Empirical Dispersion Energy =           0.0000000000000000
    PCM Polarization Energy =               0.0000000000000000
    EFP Energy =                            0.0000000000000000
    Total Energy =                       -387.1311225648835261
    Molecular point group: c1
  Basis Set: 6-31G*
  Basis Set:

  -Total Gradient:
     Atom            X                  Y                   Z
    ------   -----------------  -----------------  -----------------
       1       -0.000004258388     0.000003289855     0.000007962562
       2        0.000021931547    -0.000025309511     0.000003132291
       3        0.000017899305     0.000027820392     0.000006177165
       4        0.000005009105     0.000013493655     0.000003999045
       5        0.000002850926     0.000003101721     0.000004047069
       6        0.000001370076     0.000004148953    -0.000002445186
       7        0.000001207162     0.000000093523     0.000000192063
       8       -0.000015268842    -0.000000016895    -0.000016633789
       9       -0.000000254229     0.000002965135     0.000007091032
      10        0.000008670779    -0.000001143252    -0.000003970735
      11       -0.001147394711     0.001747920923    -0.000925230334
      12       -0.000016189559     0.000005584904    -0.000024410816
      13       -0.000016743346    -0.000007445223    -0.000019552655
      14        0.001071331545    -0.001624630531     0.001180623594
      15        0.000764332098    -0.001252215504     0.000603839184
      16       -0.000015217249    -0.000034068345     0.000018012674
      17        0.000002663859    -0.000022664891     0.000005968193
      18       -0.000705635894     0.001145348607    -0.000845292705
      19        0.000004881405     0.000048775788    -0.000001032427
      20        0.000023468632    -0.000011694787     0.000007403496
      21       -0.000024814056    -0.000006648467     0.000000001378
      22        0.000016651883    -0.000016701436    -0.000011726319
      23       -0.000001426115     0.000000850696    -0.000002323330
      24        0.000004476334    -0.000000354835     0.000003993932
      25        0.000000457730    -0.000000500481     0.000000174619

  **** Optimization is complete! (in 6 steps) ****
    Final optimized geometry and variables:
    Molecular point group: c1

    Geometry (in Angstrom), charge = 0, multiplicity = 1:

    O            2.819523394061     1.433996968707     0.185473353840
    C            2.578190702130     0.589477688076     0.992491777197
    C            1.286456539286    -0.207938558896     0.968375269908
    C            3.554252527256     0.256775006683     2.102355682983
    C            0.342375310509     0.171619986010    -0.168792579632
    H            1.547917230041    -1.263976251115     0.915317699589
    H            0.797847134786    -0.080070463079     1.933403436579
    C           -0.945997726478    -0.651943648710    -0.161393976798
    H            0.857002153861     0.043742296401    -1.115929594145
    H            0.105468902689     1.228522947623    -0.096703090441
    C           -1.903427231653    -0.277325885145    -1.296038316090
    H           -0.702541109392    -1.711010297362    -0.234628809136
    H           -1.456222817344    -0.523474092375     0.792392745152
    C           -3.203991219549    -1.111675234363    -1.302200346657
    H           -1.380896205811    -0.401200768962    -2.240912788621
    H           -2.143103537446     0.780272706002    -1.217371074853
    C           -4.471781904601    -0.256101409355    -1.322540915678
    H           -3.216593387266    -1.767009238454    -2.168388875827
    H           -3.230961920666    -1.759540745408    -0.429965338131
    H           -4.498617076900     0.381789851294    -2.201443353425
    H           -5.364863039656    -0.873715938237    -1.333895309882
    H           -4.523359191966     0.386642570597    -0.447993594039
    H            3.847741841159    -0.787533734891     2.048496464787
    H            4.431338204538     0.883052132839     2.016782325652
    H            3.091518170736     0.411724986458     3.072670993651

  Mulliken Charges: (a.u.)
   Center  Symbol    Alpha    Beta     Spin     Total
       1     O     4.26114  4.26114  0.00000 -0.52228
       2     C     2.73571  2.73571  0.00000  0.52858
       3     C     3.21074  3.21074  0.00000 -0.42148
       4     C     3.28664  3.28664  0.00000 -0.57328
       5     C     3.14877  3.14877  0.00000 -0.29753
       6     H     0.40997  0.40997  0.00000  0.18005
       7     H     0.41003  0.41003  0.00000  0.17993
       8     C     3.15597  3.15597  0.00000 -0.31194
       9     H     0.41217  0.41217  0.00000  0.17565
      10     H     0.41217  0.41217  0.00000  0.17565
      11     C     3.15467  3.15467  0.00000 -0.30935
      12     H     0.42436  0.42436  0.00000  0.15128
      13     H     0.42492  0.42492  0.00000  0.15016
      14     C     3.15495  3.15495  0.00000 -0.30989
      15     H     0.41967  0.41967  0.00000  0.16065
      16     H     0.41939  0.41939  0.00000  0.16121
      17     C     3.23984  3.23984  0.00000 -0.47969
      18     H     0.42011  0.42011  0.00000  0.15979
      19     H     0.42085  0.42085  0.00000  0.15830
      20     H     0.42084  0.42084  0.00000  0.15832
      21     H     0.42081  0.42081  0.00000  0.15838
      22     H     0.42236  0.42236  0.00000  0.15528
      23     H     0.40874  0.40874  0.00000  0.18252
      24     H     0.39646  0.39646  0.00000  0.20709
      25     H     0.40870  0.40870  0.00000  0.18260

   Total alpha = 36.00000, Total beta = 36.00000, Total charge =  0.00000
