                              Psi4 1.0.54 Driver

  ==> Input File <==

--------------------------------------------------------------------------
set {
	reference rhf
	basis cc-pvtz
}

set_num_threads( 4 )
memory 2 gb

molecule MOL {
0 1

H	 1.166964	 -1.062386	 0.758429
O	 1.324748	 -0.612467	 -0.052206
C	 0.706474	 0.636793	 -0.025501
C	 -0.771752	 0.609307	 -0.293317
H	 1.195161	 1.237122	 -0.783848
H	 0.882076	 1.136157	 0.925551
C	 -1.470842	 -0.448202	 -0.641534
H	 -1.266015	 1.560314	 -0.181350
H	 -1.011878	 -1.408541	 -0.779643
H	 -2.528325	 -0.381745	 -0.812919

	symmetry c1
}
set optking {
	frozen_dihedral = ("
		5 3 2 1
	")
}

ee,wfn = optimize('scf', return_wfn=True)
oeprop( wfn, 'DIPOLE', 'QUADRUPOLE', 'MULLIKEN_CHARGES')
f=open( 'psi4out.xyz', 'w' )
f.write( "10  " )
f.write( str(ee) + "\n" )
f.write( MOL.save_string_xyz() )
f.close()
--------------------------------------------------------------------------

    Molecular point group: c1
  Charge       = 0
  Multiplicity = 1
  Basis Set: CC-PVTZ
  Basis Set:
  @DF-RHF Final Energy:  -191.99851923614983
    Total Energy =                       -191.9985192361498036
    Molecular point group: c1
  Basis Set: CC-PVTZ
  Basis Set:
  Basis Set: CC-PVTZ
  Basis Set:
  @DF-RHF Final Energy:  -191.99856364950637
    Total Energy =                       -191.9985636495064512
  Basis Set: CC-PVTZ
  Basis Set:
  Charge       = 0
  Multiplicity = 1
  Basis Set: CC-PVTZ
  Basis Set:

    Orbital Energies (a.u.)
    -----------------------

    Doubly Occupied:

       1A    -20.554569     2A    -11.278315     3A    -11.227933
       4A    -11.213973     5A     -1.374643     6A     -1.060747
       7A     -0.930917     8A     -0.769003     9A     -0.696413
      10A     -0.663077    11A     -0.618530    12A     -0.575340
      13A     -0.532549    14A     -0.501564    15A     -0.450957
      16A     -0.366951

  @DF-RHF Final Energy:  -191.99857051994590

   => Energetics <=

    Nuclear Repulsion Energy =            119.4629481536615287
    One-Electron Energy =                -497.2920760573749135
    Two-Electron Energy =                 185.8305573837674274
    DFT Exchange-Correlation Energy =       0.0000000000000000
    Empirical Dispersion Energy =           0.0000000000000000
    PCM Polarization Energy =               0.0000000000000000
    EFP Energy =                            0.0000000000000000
    Total Energy =                       -191.9985705199459289
    Molecular point group: c1
  Basis Set: CC-PVTZ
  Basis Set:

  -Total Gradient:
     Atom            X                  Y                   Z
    ------   -----------------  -----------------  -----------------
       1        0.001061732799     0.000527913991     0.000439639476
       2       -0.001109748874    -0.000610013996    -0.000420917191
       3       -0.000602195573    -0.000281374132    -0.000652683776
       4       -0.000118400668    -0.000028516114    -0.000124886788
       5        0.000707707217     0.000317883186     0.000771079887
       6        0.000067078640     0.000028257535    -0.000049555397
       7        0.000052585535     0.000017111276     0.000104413812
       8       -0.000033028190    -0.000003365933    -0.000011950482
       9       -0.000002954224     0.000031793086    -0.000035406421
      10       -0.000022776661     0.000000311101    -0.000019733120

  **** Optimization is complete! (in 3 steps) ****
    Final optimized geometry and variables:
    Molecular point group: c1

    Geometry (in Angstrom), charge = 0, multiplicity = 1:

    H            1.135206706110    -1.091119422750     0.966067507955
    O            1.302117422372    -0.628923419922     0.165127022389
    C            0.687252549211     0.623213559572     0.201264605406
    C           -0.789608935013     0.598593964128    -0.074096176174
    H            1.183906027403     1.235759753572    -0.542265908130
    H            0.859163663701     1.111512365697     1.158530651013
    C           -1.491990316828    -0.465948592250    -0.391100758789
    H           -1.277681562704     1.556353500701     0.003666395210
    H           -1.034629300064    -1.431305519996    -0.491494093456
    H           -2.547900900189    -0.399612410401    -0.572593195505

  Mulliken Charges: (a.u.)
   Center  Symbol    Alpha    Beta     Spin     Total
       1     H     0.39120  0.39120  0.00000  0.21759
       2     O     4.19881  4.19881  0.00000 -0.39761
       3     C     2.95189  2.95189  0.00000  0.09621
       4     C     3.08391  3.08391  0.00000 -0.16781
       5     H     0.45380  0.45380  0.00000  0.09241
       6     H     0.46867  0.46867  0.00000  0.06266
       7     C     3.17721  3.17721  0.00000 -0.35443
       8     H     0.42347  0.42347  0.00000  0.15305
       9     H     0.42271  0.42271  0.00000  0.15458
      10     H     0.42833  0.42833  0.00000  0.14335

   Total alpha = 16.00000, Total beta = 16.00000, Total charge = -0.00000

*** Psi4 exiting successfully. Buy a developer a beer!
