                              Psi4 1.0.54 Driver

  ==> Input File <==

--------------------------------------------------------------------------
set {
	reference rhf
	basis cc-pvtz
}

set_num_threads( 4 )
memory 2 gb

molecule MOL {
0 1

H	 2.036848	 -1.331116	 1.980615
O	 1.525408	 -1.409448	 1.189396
C	 0.546255	 -0.510441	 1.230252
C	 -0.318151	 -0.570512	 0.000144
O	 0.407828	 0.228313	 2.142966
C	 -1.454884	 0.441630	 -0.000560
H	 0.333796	 -0.431398	 -0.856304
H	 -0.694384	 -1.585572	 -0.077334
C	 -2.822577	 -0.232186	 0.000063
H	 -1.359760	 1.084704	 -0.867077
H	 -1.359641	 1.085996	 0.864983
H	 -2.954352	 -0.858985	 -0.875745
H	 -3.615886	 0.505352	 0.000019
H	 -2.953878	 -0.858359	 0.876394

	symmetry c1
}
set optking {
	frozen_dihedral = ("
		7 4 6 10
	")
}

ee,wfn = optimize('scf', return_wfn=True)
oeprop( wfn, 'DIPOLE', 'QUADRUPOLE', 'MULLIKEN_CHARGES')
f=open( 'psi4out.xyz', 'w' )
f.write( "14  " )
f.write( str(ee) + "\n" )
f.write( MOL.save_string_xyz() )
f.close()
--------------------------------------------------------------------------

    Molecular point group: c1
  Charge       = 0
  Multiplicity = 1
  Basis Set: CC-PVTZ
  Basis Set:
  @DF-RHF Final Energy:  -305.99598920153403
    Total Energy =                       -305.9959892015340301
    Molecular point group: c1
  Basis Set: CC-PVTZ
  Basis Set:
  Basis Set: CC-PVTZ
  Basis Set:
  @DF-RHF Final Energy:  -305.99628876890290
    Total Energy =                       -305.9962887689030708
  Basis Set: CC-PVTZ
  Basis Set:
  Basis Set: CC-PVTZ
  Basis Set:
  @DF-RHF Final Energy:  -305.99616711907697
    Total Energy =                       -305.9961671190769721
  Basis Set: CC-PVTZ
  Basis Set:
  Basis Set: CC-PVTZ
  Basis Set:
  @DF-RHF Final Energy:  -305.99638257935464
    Total Energy =                       -305.9963825793544174
  Basis Set: CC-PVTZ
  Basis Set:
  Basis Set: CC-PVTZ
  Basis Set:
  @DF-RHF Final Energy:  -305.99638559459027
    Total Energy =                       -305.9963855945902651
  Basis Set: CC-PVTZ
  Basis Set:
  Basis Set: CC-PVTZ
  Basis Set:
  @DF-RHF Final Energy:  -305.99638716138361
    Total Energy =                       -305.9963871613832680
  Basis Set: CC-PVTZ
  Basis Set:
  Charge       = 0
  Multiplicity = 1
  Basis Set: CC-PVTZ
  Basis Set:

    Orbital Energies (a.u.)
    -----------------------

    Doubly Occupied:

       1A    -20.604767     2A    -20.541934     3A    -11.375036
       4A    -11.239729     5A    -11.222140     6A    -11.213724
       7A     -1.478797     8A     -1.370253     9A     -1.080926
      10A     -0.980463    11A     -0.860295    12A     -0.791723
      13A     -0.705731    14A     -0.696205    15A     -0.661799
      16A     -0.615015    17A     -0.599005    18A     -0.568573
      19A     -0.558215    20A     -0.495701    21A     -0.490969
      22A     -0.487222    23A     -0.478364    24A     -0.450009

  @DF-RHF Final Energy:  -305.99638791845996

   => Energetics <=

    Nuclear Repulsion Energy =            241.4589610301509026
    One-Electron Energy =                -895.7775103473866238
    Two-Electron Energy =                 348.3221613987757337
    DFT Exchange-Correlation Energy =       0.0000000000000000
    Empirical Dispersion Energy =           0.0000000000000000
    PCM Polarization Energy =               0.0000000000000000
    EFP Energy =                            0.0000000000000000
    Total Energy =                       -305.9963879184599591
    Molecular point group: c1
  Basis Set: CC-PVTZ
  Basis Set:

  -Total Gradient:
     Atom            X                  Y                   Z
    ------   -----------------  -----------------  -----------------
       1       -0.000008480166    -0.000001647426    -0.000019147735
       2        0.000059019430    -0.000061757148    -0.000007434725
       3       -0.000053804702     0.000115871781     0.000108503610
       4        0.000791913392     0.001004531268     0.000818495164
       5       -0.000006138421    -0.000031505655    -0.000071063515
       6       -0.000808960861    -0.000985507720    -0.000825339790
       7       -0.000562913756    -0.000649000721    -0.000547854899
       8        0.000001865853    -0.000018810770    -0.000011486074
       9        0.000013536943    -0.000026854703     0.000007118548
      10        0.000560481229     0.000635270778     0.000533269771
      11        0.000007828884     0.000003581999     0.000012847489
      12       -0.000004650386     0.000011458785     0.000008961245
      13        0.000011945396     0.000011458795     0.000005371813
      14       -0.000001642832    -0.000007089264    -0.000012240904

  **** Optimization is complete! (in 7 steps) ****
    Final optimized geometry and variables:
    Molecular point group: c1

    Geometry (in Angstrom), charge = 0, multiplicity = 1:

    H            2.383078889310    -0.962840435137     1.175124717411
    O            1.875973875501    -1.021818279122     0.379524055689
    C            0.873182205300    -0.151287250513     0.454515971759
    C            0.012869668990    -0.199235170372    -0.781734339648
    O            0.716592893457     0.544757574677     1.397210279612
    C           -1.148265423417     0.804289872307    -0.799904437198
    H            0.674600572624    -0.070524957979    -1.629839645609
    H           -0.344936701757    -1.220835928040    -0.857246195632
    C           -2.519856422010     0.136776224614    -0.795648037636
    H           -1.056441454264     1.438946442634    -1.673328206509
    H           -1.062606531721     1.453869454700     0.059464962835
    H           -2.652512527811    -0.501591368172    -1.662960933124
    H           -3.310356736586     0.877672804092    -0.805727008514
    H           -2.651110980116    -0.474898818928     0.090552085885

  Mulliken Charges: (a.u.)
   Center  Symbol    Alpha    Beta     Spin     Total
       1     H     0.38247  0.38247  0.00000  0.23507
       2     O     4.16002  4.16002  0.00000 -0.32005
       3     C     2.80097  2.80097  0.00000  0.39806
       4     C     3.11489  3.11489  0.00000 -0.22979
       5     O     4.19106  4.19106  0.00000 -0.38212
       6     C     3.08956  3.08956  0.00000 -0.17911
       7     H     0.43143  0.43143  0.00000  0.13713
       8     H     0.43790  0.43790  0.00000  0.12420
       9     C     3.14854  3.14854  0.00000 -0.29709
      10     H     0.45016  0.45016  0.00000  0.09968
      11     H     0.43654  0.43654  0.00000  0.12691
      12     H     0.45603  0.45603  0.00000  0.08794
      13     H     0.44777  0.44777  0.00000  0.10446
      14     H     0.45265  0.45265  0.00000  0.09470

   Total alpha = 24.00000, Total beta = 24.00000, Total charge =  0.00000

*** Psi4 exiting successfully. Buy a developer a beer!
