  ==> Input File <==

--------------------------------------------------------------------------
set {
	reference rhf
	basis 6-31G*
}

set_num_threads( 1 )
memory 2 gb

molecule MOL {
0 1

O	 1.528228	 0.914806	 0.864163
C	 1.705091	 0.115954	 0.001797
C	 0.834885	 -0.067407	 -1.217624
O	 2.721346	 -0.737485	 -0.000216
C	 -0.350035	 0.892384	 -1.266706
H	 1.471234	 0.047639	 -2.090859
H	 0.503972	 -1.102354	 -1.227676
C	 -1.213474	 0.685335	 -2.511962
H	 0.015778	 1.913897	 -1.237033
H	 -0.953101	 0.762009	 -0.373609
C	 -2.406363	 1.640605	 -2.577806
H	 -0.602226	 0.813869	 -3.404067
H	 -1.575299	 -0.341469	 -2.537194
C	 -3.269395	 1.432433	 -3.821627
H	 -2.046452	 2.666810	 -2.555284
H	 -3.018398	 1.512780	 -1.687743
H	 -2.693213	 1.587570	 -4.729460
H	 -4.106303	 2.123606	 -3.839387
H	 -3.672535	 0.424138	 -3.855247
C	 4.024888	 -0.184556	 -0.001949
H	 4.179030	 0.422472	 -0.882452
H	 4.701782	 -1.024608	 -0.003642
H	 4.181981	 0.421185	 0.878906

	symmetry c1
}
set optking {
	frozen_dihedral = ("
		15 11 8 12,
		9 5 8 12,
		1 2 3 6,
		9 5 3 6
	")
}

ee = energy('scf')
oeprop('DIPOLE', 'QUADRUPOLE', 'MULLIKEN_CHARGES')
f=open( 'psi4out.xyz', 'w' )
f.write( "23  " )
f.write( str(ee) + "\n" )
f.write( MOL.save_string_xyz() )
f.close()
--------------------------------------------------------------------------

    Molecular point group: c1

    Geometry (in Angstrom), charge = 0, multiplicity = 1:

       Center              X                  Y                   Z               Mass
    ------------   -----------------  -----------------  -----------------  -----------------
           O          1.095968371056     0.397349381249     2.022447162377    15.994914619560
           C          1.272831371056    -0.401502618751     1.160081162377    12.000000000000
           C          0.402625371056    -0.584863618751    -0.059339837623    12.000000000000
           O          2.289086371056    -1.254941618751     1.158068162377    15.994914619560
           C         -0.782294628944     0.374927381249    -0.108421837623    12.000000000000
           H          1.038974371056    -0.469817618751    -0.932574837623     1.007825032070
           H          0.071712371056    -1.619810618751    -0.069391837623     1.007825032070
           C         -1.645733628944     0.167878381249    -1.353677837623    12.000000000000
           H         -0.416481628944     1.396440381249    -0.078748837623     1.007825032070
           H         -1.385360628944     0.244552381249     0.784675162377     1.007825032070
           C         -2.838622628944     1.123148381249    -1.419521837623    12.000000000000
           H         -1.034485628944     0.296412381249    -2.245782837623     1.007825032070
           H         -2.007558628944    -0.858925618751    -1.378909837623     1.007825032070
           C         -3.701654628944     0.914976381249    -2.663342837623    12.000000000000
           H         -2.478711628944     2.149353381249    -1.396999837623     1.007825032070
           H         -3.450657628944     0.995323381249    -0.529458837623     1.007825032070
           H         -3.125472628944     1.070113381249    -3.571175837623     1.007825032070
           H         -4.538562628944     1.606149381249    -2.681102837623     1.007825032070
           H         -4.104794628944    -0.093318618751    -2.696962837623     1.007825032070
           C          3.592628371056    -0.702012618751     1.156335162377    12.000000000000
           H          3.746770371056    -0.094984618751     0.275832162377     1.007825032070
           H          4.269522371056    -1.542064618751     1.154642162377     1.007825032070
           H          3.749721371056    -0.096271618751     2.037190162377     1.007825032070

  Charge       = 0
  Multiplicity = 1
  Basis Set: 6-31G*
  Basis Set:

    Orbital Energies (a.u.)
    -----------------------

    Doubly Occupied:

       1A    -20.590252     2A    -20.551781     3A    -11.373233
       4A    -11.289625     5A    -11.236183     6A    -11.219348
       7A    -11.218331     8A    -11.216880     9A    -11.210053
      10A     -1.465267    11A     -1.364824    12A     -1.093256
      13A     -1.042219    14A     -0.986606    15A     -0.937774
      16A     -0.846744    17A     -0.795664    18A     -0.767925
      19A     -0.695994    20A     -0.681291    21A     -0.673673
      22A     -0.649999    23A     -0.611846    24A     -0.606446
      25A     -0.576632    26A     -0.566591    27A     -0.554738
      28A     -0.533847    29A     -0.508628    30A     -0.502934
      31A     -0.485576    32A     -0.473083    33A     -0.468857
      34A     -0.465903    35A     -0.450662    36A     -0.430492

  @DF-RHF Final Energy:  -422.96117854800832

   => Energetics <=

    Nuclear Repulsion Energy =            452.8554275300598420
    One-Electron Energy =               -1473.3468473227576396
    Two-Electron Energy =                 597.5302412446894778
    DFT Exchange-Correlation Energy =       0.0000000000000000
    Empirical Dispersion Energy =           0.0000000000000000
    PCM Polarization Energy =               0.0000000000000000
    EFP Energy =                            0.0000000000000000
    Total Energy =                       -422.9611785480083199

  Mulliken Charges: (a.u.)
   Center  Symbol    Alpha    Beta     Spin     Total
       1     O     4.26876  4.26876  0.00000 -0.53751
       2     C     2.60821  2.60821  0.00000  0.78358
       3     C     3.21051  3.21051  0.00000 -0.42103
       4     O     4.31118  4.31118  0.00000 -0.62236
       5     C     3.15352  3.15352  0.00000 -0.30705
       6     H     0.40591  0.40591  0.00000  0.18817
       7     H     0.39903  0.39903  0.00000  0.20195
       8     C     3.15307  3.15307  0.00000 -0.30614
       9     H     0.41291  0.41291  0.00000  0.17418
      10     H     0.41084  0.41084  0.00000  0.17833
      11     C     3.15151  3.15151  0.00000 -0.30302
      12     H     0.42488  0.42488  0.00000  0.15023
      13     H     0.42370  0.42370  0.00000  0.15259
      14     C     3.23957  3.23957  0.00000 -0.47913
      15     H     0.42161  0.42161  0.00000  0.15678
      16     H     0.42102  0.42102  0.00000  0.15795
      17     H     0.42208  0.42208  0.00000  0.15584
      18     H     0.41841  0.41841  0.00000  0.16318
      19     H     0.42168  0.42168  0.00000  0.15664
      20     C     3.09450  3.09450  0.00000 -0.18900
      21     H     0.41946  0.41946  0.00000  0.16107
      22     H     0.40430  0.40430  0.00000  0.19141
      23     H     0.40333  0.40333  0.00000  0.19334

   Total alpha = 36.00000, Total beta = 36.00000, Total charge =  0.00000
