                              Psi4 1.0.54 Driver

  ==> Input File <==

--------------------------------------------------------------------------
set {
	reference rhf
	basis cc-pvtz
}

set_num_threads( 4 )
memory 2 gb

molecule MOL {
0 1

H	 3.721907	 -0.933076	 -0.066039
O	 2.824271	 -1.154299	 0.131461
C	 2.076458	 -0.067370	 -0.038225
C	 0.626018	 -0.337582	 0.258241
O	 2.538288	 0.965419	 -0.381593
C	 -0.267326	 0.883135	 0.076490
H	 0.325620	 -1.161483	 -0.378003
H	 0.574537	 -0.713685	 1.275261
C	 -1.726822	 0.642622	 0.463839
H	 -0.210803	 1.217591	 -0.953497
H	 0.129920	 1.693110	 0.675679
C	 -2.480891	 -0.340606	 -0.429852
H	 -2.243098	 1.597649	 0.438609
H	 -1.776542	 0.301208	 1.495542
C	 -3.824968	 -0.758765	 0.157581
H	 -2.639552	 0.113253	 -1.404466
H	 -1.880563	 -1.228620	 -0.600130
H	 -4.339799	 -1.453603	 -0.495743
H	 -4.471840	 0.099632	 0.303895
H	 -3.697365	 -1.242781	 1.120182

	symmetry c1
}
set optking {
	frozen_dihedral = ("
		16 12 9 6
	")
}

ee,wfn = optimize('scf', return_wfn=True)
oeprop( wfn, 'DIPOLE', 'QUADRUPOLE', 'MULLIKEN_CHARGES')
f=open( 'psi4out.xyz', 'w' )
f.write( "20  " )
f.write( str(ee) + "\n" )
f.write( MOL.save_string_xyz() )
f.close()
--------------------------------------------------------------------------

    Molecular point group: c1
  Charge       = 0
  Multiplicity = 1
  Basis Set: CC-PVTZ
  Basis Set:
  @DF-RHF Final Energy:  -384.09412085994080
    Total Energy =                       -384.0941208599411993
    Molecular point group: c1
  Basis Set: CC-PVTZ
  Basis Set:
  Basis Set: CC-PVTZ
  Basis Set:
  @DF-RHF Final Energy:  -384.09210072193684
    Total Energy =                       -384.0921007219366174
  Basis Set: CC-PVTZ
  Basis Set:
  Basis Set: CC-PVTZ
  Basis Set:
  @DF-RHF Final Energy:  -384.09410838027640
    Total Energy =                       -384.0941083802763387
  Basis Set: CC-PVTZ
  Basis Set:
  Basis Set: CC-PVTZ
  Basis Set:
  @DF-RHF Final Energy:  -384.09419102573463
    Total Energy =                       -384.0941910257353129
  Basis Set: CC-PVTZ
  Basis Set:
  Basis Set: CC-PVTZ
  Basis Set:
  @DF-RHF Final Energy:  -384.09409874200730
    Total Energy =                       -384.0940987420076453
  Basis Set: CC-PVTZ
  Basis Set:
  Basis Set: CC-PVTZ
  Basis Set:
  @DF-RHF Final Energy:  -384.09429679084042
    Total Energy =                       -384.0942967908404171
  Basis Set: CC-PVTZ
  Basis Set:
  Basis Set: CC-PVTZ
  Basis Set:
  @DF-RHF Final Energy:  -384.09430623818122
    Total Energy =                       -384.0943062381810478
  Basis Set: CC-PVTZ
  Basis Set:
  Charge       = 0
  Multiplicity = 1
  Basis Set: CC-PVTZ
  Basis Set:

    Orbital Energies (a.u.)
    -----------------------

    Doubly Occupied:

       1A    -20.603932     2A    -20.540547     3A    -11.373548
       4A    -11.238885     5A    -11.221144     6A    -11.218796
       7A    -11.218161     8A    -11.210507     9A     -1.477504
      10A     -1.369003    11A     -1.097340    12A     -1.042288
      13A     -0.962343    14A     -0.870270    15A     -0.816615
      16A     -0.779508    17A     -0.703725    18A     -0.693515
      19A     -0.666206    20A     -0.636312    21A     -0.607181
      22A     -0.595258    23A     -0.578621    24A     -0.554511
      25A     -0.541996    26A     -0.512304    27A     -0.498000
      28A     -0.484636    29A     -0.470760    30A     -0.468311
      31A     -0.457834    32A     -0.446626

  @DF-RHF Final Energy:  -384.09430685603729

   => Energetics <=

    Nuclear Repulsion Energy =            376.6924339656873144
    One-Electron Energy =               -1269.6611142912424839
    Two-Electron Energy =                 508.8743734695177068
    DFT Exchange-Correlation Energy =       0.0000000000000000
    Empirical Dispersion Energy =           0.0000000000000000
    PCM Polarization Energy =               0.0000000000000000
    EFP Energy =                            0.0000000000000000
    Total Energy =                       -384.0943068560374627
    Molecular point group: c1
  Basis Set: CC-PVTZ
  Basis Set:

  -Total Gradient:
     Atom            X                  Y                   Z
    ------   -----------------  -----------------  -----------------
       1        0.000025710169    -0.000009440580    -0.000002469722
       2        0.000025115661     0.000003427175    -0.000006154551
       3       -0.000073473427    -0.000036203594     0.000019164972
       4       -0.000002838869     0.000027816923    -0.000010863355
       5        0.000068873013     0.000037241777    -0.000028214352
       6        0.000377824293    -0.001425279440     0.001229014550
       7       -0.000013808715    -0.000035164652    -0.000016965437
       8       -0.000008591266    -0.000007047663     0.000045592036
       9       -0.001017387332     0.002267239052    -0.001516741170
      10        0.000008081461     0.000000166715    -0.000053329606
      11        0.000015575693     0.000042884663     0.000021801541
      12        0.002636692486    -0.002179383446    -0.000563981825
      13       -0.000007372424     0.000034157057    -0.000010106975
      14       -0.000005140026    -0.000003099299     0.000061428245
      15        0.000024751603    -0.000018392942     0.000024057689
      16       -0.002020444122     0.001340805663     0.000778631320
      17        0.000007182793    -0.000031953779    -0.000001237098
      18       -0.000018500500    -0.000030492313    -0.000022146215
      19       -0.000012251910     0.000036256731    -0.000001367611
      20       -0.000009998577    -0.000013538043     0.000053887565

  **** Optimization is complete! (in 8 steps) ****
    Final optimized geometry and variables:
    Molecular point group: c1

    Geometry (in Angstrom), charge = 0, multiplicity = 1:

    H            3.566242054073    -1.373765718451    -0.107789256476
    O            2.667756746981    -1.441957583884     0.178269412995
    C            2.038786371903    -0.313433449089    -0.138705211538
    C            0.595349394068    -0.342662748085     0.286326777934
    O            2.587227369321     0.578634433204    -0.687711665385
    C           -0.162753861198     0.934251367277    -0.054297736686
    H            0.152369742068    -1.218032783650    -0.173429335163
    H            0.583227313695    -0.531196303379     1.355248325778
    C           -1.614697171146     0.932239669586     0.427699864498
    H           -0.127521206450     1.097641918145    -1.125978088089
    H            0.359653354494     1.771797935301     0.391625436157
    C           -2.549881156632    -0.003350953984    -0.339716638958
    H           -2.004969089867     1.942781414702     0.360494559742
    H           -1.635533628830     0.672798191369     1.484226678298
    C           -3.909768841714    -0.156251400356     0.336418773141
    H           -2.703518045536     0.394291633538    -1.338965477660
    H           -2.101037546867    -0.983727407033    -0.456478111475
    H           -4.568327917860    -0.791122520891    -0.245105405589
    H           -4.397528079896     0.805826866644     0.454298234986
    H           -3.809920795044    -0.597334431998     1.322597934260

  Mulliken Charges: (a.u.)
   Center  Symbol    Alpha    Beta     Spin     Total
       1     H     0.38238  0.38238  0.00000  0.23524
       2     O     4.16035  4.16035  0.00000 -0.32071
       3     C     2.80321  2.80321  0.00000  0.39358
       4     C     3.11118  3.11118  0.00000 -0.22235
       5     O     4.19123  4.19123  0.00000 -0.38246
       6     C     3.09176  3.09176  0.00000 -0.18352
       7     H     0.43772  0.43772  0.00000  0.12455
       8     H     0.43798  0.43798  0.00000  0.12403
       9     C     3.10043  3.10043  0.00000 -0.20087
      10     H     0.44599  0.44599  0.00000  0.10803
      11     H     0.43975  0.43975  0.00000  0.12050
      12     C     3.08433  3.08433  0.00000 -0.16866
      13     H     0.44381  0.44381  0.00000  0.11238
      14     H     0.45620  0.45620  0.00000  0.08761
      15     C     3.14972  3.14972  0.00000 -0.29943
      16     H     0.45186  0.45186  0.00000  0.09629
      17     H     0.45519  0.45519  0.00000  0.08961
      18     H     0.44780  0.44780  0.00000  0.10440
      19     H     0.45392  0.45392  0.00000  0.09216
      20     H     0.45519  0.45519  0.00000  0.08962

   Total alpha = 32.00000, Total beta = 32.00000, Total charge =  0.00000

*** Psi4 exiting successfully. Buy a developer a beer!
