  ==> Input File <==

--------------------------------------------------------------------------
set {
	reference rhf
	basis 6-31G*
}

set_num_threads( 4 )
memory 2 gb

molecule MOL {
0 1

H	 -1.832329	 -0.692901	 0.778650
O	 -2.035884	 -0.060112	 0.102722
C	 -0.955155	 0.788182	 -0.092531
C	 0.353668	 0.040312	 -0.004810
H	 -0.985057	 1.290372	 -1.054184
H	 -0.974469	 1.533190	 0.688632
F	 0.394464	 -0.937475	 -0.903053
F	 1.368604	 0.853376	 -0.249821
F	 0.546173	 -0.502608	 1.179981

	symmetry c1
}
set optking {
	frozen_dihedral = ("
		1 2 3 5
	")
}

ee = optimize('scf')
oeprop('DIPOLE', 'QUADRUPOLE', 'MULLIKEN_CHARGES')
f=open( 'psi4out.xyz', 'w' )
f.write( "9  " )
f.write( str(ee) + "\n" )
f.write( MOL.save_string_xyz() )
f.close()
--------------------------------------------------------------------------

    Molecular point group: c1
  Charge       = 0
  Multiplicity = 1
  Basis Set: 6-31G*
  Basis Set:
  @DF-RHF Final Energy:  -450.65913364907220
    Total Energy =                       -450.6591336490720892
    Molecular point group: c1
  Basis Set: 6-31G*
  Basis Set:
  Basis Set: 6-31G*
  Basis Set:
  @DF-RHF Final Energy:  -450.66110041303114
    Total Energy =                       -450.6611004130313063
  Basis Set: 6-31G*
  Basis Set:
  Basis Set: 6-31G*
  Basis Set:
  @DF-RHF Final Energy:  -450.66154029583333
    Total Energy =                       -450.6615402958332766
  Basis Set: 6-31G*
  Basis Set:
  Basis Set: 6-31G*
  Basis Set:
  @DF-RHF Final Energy:  -450.66156127376712
    Total Energy =                       -450.6615612737671768
  Basis Set: 6-31G*
  Basis Set:
  Charge       = 0
  Multiplicity = 1
  Basis Set: 6-31G*
  Basis Set:

    Orbital Energies (a.u.)
    -----------------------

    Doubly Occupied:

       1A    -26.349354     2A    -26.347815     3A    -26.343513
       4A    -20.588686     5A    -11.504994     6A    -11.309745
       7A     -1.745025     8A     -1.644302     9A     -1.641024
      10A     -1.401077    11A     -1.050058    12A     -0.927054
      13A     -0.834917    14A     -0.833180    15A     -0.812676
      16A     -0.723315    17A     -0.716419    18A     -0.692101
      19A     -0.668734    20A     -0.664601    21A     -0.647220
      22A     -0.634024    23A     -0.621242    24A     -0.527645
      25A     -0.479305

  @DF-RHF Final Energy:  -450.66156375184988

   => Energetics <=

    Nuclear Repulsion Energy =            277.3851968085570547
    One-Electron Energy =               -1176.6774713234399314
    Two-Electron Energy =                 448.6307107630327664
    DFT Exchange-Correlation Energy =       0.0000000000000000
    Empirical Dispersion Energy =           0.0000000000000000
    PCM Polarization Energy =               0.0000000000000000
    EFP Energy =                            0.0000000000000000
    Total Energy =                       -450.6615637518500534
    Molecular point group: c1
  Basis Set: 6-31G*
  Basis Set:

  -Total Gradient:
     Atom            X                  Y                   Z
    ------   -----------------  -----------------  -----------------
       1        0.001262113234    -0.002056359585    -0.002126868657
       2       -0.001185891096     0.002067925114     0.002302805215
       3       -0.001605941344     0.002190778747     0.000822842456
       4       -0.000128553696    -0.000096752149     0.000334801268
       5        0.001442787205    -0.002160080705    -0.001003209180
       6        0.000037667740     0.000005451300    -0.000029956526
       7        0.000115394011     0.000053462973    -0.000080912118
       8        0.000056924797    -0.000046953913    -0.000122111625
       9        0.000005499151     0.000042528217    -0.000097390832

  **** Optimization is complete! (in 5 steps) ****
    Final optimized geometry and variables:
    Molecular point group: c1

    Geometry (in Angstrom), charge = 0, multiplicity = 1:

    H           -1.848900917093    -0.658748482302     0.831679035021
    O           -2.040274700456    -0.061478081621     0.120364110955
    C           -0.961438411161     0.784242544643    -0.102865902780
    C            0.351656737191     0.040580711920    -0.041327570479
    H           -1.054779062154     1.187405149453    -1.100488981877
    H           -0.916107995149     1.597016940890     0.614159699988
    F            0.459962819131    -0.868004857522    -0.990976101765
    F            1.367575009181     0.876725880697    -0.159829237832
    F            0.477975805821    -0.590709380517     1.122226931270

  Mulliken Charges: (a.u.)
   Center  Symbol    Alpha    Beta     Spin     Total
       1     H     0.27185  0.27185  0.00000  0.45631
       2     O     4.36620  4.36620  0.00000 -0.73240
       3     C     3.03870  3.03870  0.00000 -0.07740
       4     C     2.47579  2.47579  0.00000  1.04843
       5     H     0.39739  0.39739  0.00000  0.20522
       6     H     0.40925  0.40925  0.00000  0.18149
       7     F     4.67511  4.67511  0.00000 -0.35022
       8     F     4.67949  4.67949  0.00000 -0.35897
       9     F     4.68623  4.68623  0.00000 -0.37245

   Total alpha = 25.00000, Total beta = 25.00000, Total charge =  0.00000
