                              Psi4 1.0.54 Driver

  ==> Input File <==

--------------------------------------------------------------------------
set {
	reference rhf
	basis cc-pvtz
}

set_num_threads( 4 )
memory 2 gb

molecule MOL {
0 1

O	 1.075136	 -0.269482	 -0.432647
C	 0.029490	 0.077183	 0.000078
C	 -1.232113	 -0.748027	 0.000015
O	 -0.170253	 1.262228	 0.552349
C	 -2.501422	 0.088592	 -0.000052
H	 -1.188777	 -1.400384	 -0.865133
H	 -1.188857	 -1.400312	 0.865225
H	 -2.548170	 0.725504	 -0.873205
H	 -3.371613	 -0.556398	 -0.000040
H	 -2.548215	 0.725571	 0.873047
C	 0.934152	 2.141745	 0.618525
H	 1.733057	 1.707330	 1.200993
H	 0.572312	 3.038928	 1.093877
H	 1.302021	 2.366726	 -0.371577

	symmetry c1
}
set optking {
	frozen_dihedral = ("
		4 2 3 6
	")
}

ee,wfn = optimize('scf', return_wfn=True)
oeprop( wfn, 'DIPOLE', 'QUADRUPOLE', 'MULLIKEN_CHARGES')
f=open( 'psi4out.xyz', 'w' )
f.write( "14  " )
f.write( str(ee) + "\n" )
f.write( MOL.save_string_xyz() )
f.close()
--------------------------------------------------------------------------

    Molecular point group: c1
  Charge       = 0
  Multiplicity = 1
  Basis Set: CC-PVTZ
  Basis Set:
  @DF-RHF Final Energy:  -305.98453369196500
    Total Energy =                       -305.9845336919648844
    Molecular point group: c1
  Basis Set: CC-PVTZ
  Basis Set:
  Basis Set: CC-PVTZ
  Basis Set:
  @DF-RHF Final Energy:  -305.98508389576500
    Total Energy =                       -305.9850838957653423
  Basis Set: CC-PVTZ
  Basis Set:
  Basis Set: CC-PVTZ
  Basis Set:
  @DF-RHF Final Energy:  -305.98412260168766
    Total Energy =                       -305.9841226016875453
  Basis Set: CC-PVTZ
  Basis Set:
  Basis Set: CC-PVTZ
  Basis Set:
  @DF-RHF Final Energy:  -305.98536273085779
    Total Energy =                       -305.9853627308579007
  Basis Set: CC-PVTZ
  Basis Set:
  Basis Set: CC-PVTZ
  Basis Set:
  @DF-RHF Final Energy:  -305.98536827420571
    Total Energy =                       -305.9853682742058254
  Basis Set: CC-PVTZ
  Basis Set:
  Basis Set: CC-PVTZ
  Basis Set:
  @DF-RHF Final Energy:  -305.98542761191243
    Total Energy =                       -305.9854276119123142
  Basis Set: CC-PVTZ
  Basis Set:
  Charge       = 0
  Multiplicity = 1
  Basis Set: CC-PVTZ
  Basis Set:

    Orbital Energies (a.u.)
    -----------------------

    Doubly Occupied:

       1A    -20.599561     2A    -20.531308     3A    -11.365317
       4A    -11.279939     5A    -11.237369     6A    -11.220252
       7A     -1.473935     8A     -1.365184     9A     -1.067382
      10A     -0.976187    11A     -0.888027    12A     -0.777212
      13A     -0.697392    14A     -0.685340    15A     -0.675902
      16A     -0.622389    17A     -0.587455    18A     -0.562796
      19A     -0.548187    20A     -0.523626    21A     -0.516863
      22A     -0.499811    23A     -0.459178    24A     -0.437153

  @DF-RHF Final Energy:  -305.98542808858150

   => Energetics <=

    Nuclear Repulsion Energy =            248.8419141024508576
    One-Electron Energy =                -910.4591521860572811
    Two-Electron Energy =                 355.6318099950245823
    DFT Exchange-Correlation Energy =       0.0000000000000000
    Empirical Dispersion Energy =           0.0000000000000000
    PCM Polarization Energy =               0.0000000000000000
    EFP Energy =                            0.0000000000000000
    Total Energy =                       -305.9854280885818980
    Molecular point group: c1
  Basis Set: CC-PVTZ
  Basis Set:

  -Total Gradient:
     Atom            X                  Y                   Z
    ------   -----------------  -----------------  -----------------
       1        0.000000296270    -0.000046905216    -0.000010974584
       2        0.000104279339    -0.000235511848     0.000597463111
       3        0.000325631671    -0.000528660846     0.000311485455
       4       -0.000111997857     0.000323102743    -0.000483232439
       5       -0.000021438979     0.000018148775     0.000002149142
       6       -0.000276888139     0.000496693887    -0.000406734311
       7       -0.000006498973     0.000003366517     0.000004948583
       8        0.000001715118    -0.000001484769    -0.000000321190
       9        0.000003511029    -0.000000380407     0.000000365816
      10        0.000003850458    -0.000011563736    -0.000009280036
      11       -0.000020602349    -0.000024741053    -0.000014099340
      12        0.000005008030     0.000003284210     0.000002729790
      13       -0.000012534548    -0.000002732019     0.000001260051
      14        0.000005668931     0.000007383766     0.000004239950

  **** Optimization is complete! (in 7 steps) ****
    Final optimized geometry and variables:
    Molecular point group: c1

    Geometry (in Angstrom), charge = 0, multiplicity = 1:

    O            1.333493573330    -0.821126555605    -0.469188785303
    C            0.300196952678    -0.369217742234    -0.107281433662
    C           -1.003360786835    -1.130932598486    -0.150287339481
    O            0.181140986104     0.844477349340     0.399156595415
    C           -2.272024713095    -0.288688301222    -0.215604922304
    H           -0.934070971083    -1.798449962332    -0.997791996899
    H           -1.012909656614    -1.756728044863     0.736931713446
    H           -2.273609704074     0.352926419952    -1.088350692061
    H           -3.137662432769    -0.936765018576    -0.276582093522
    H           -2.378160287011     0.338242724403     0.658310522847
    C            1.359328518684     1.618102626754     0.510771848495
    H            2.075926584535     1.129174320911     1.153677480279
    H            1.056620324509     2.560395118875     0.937721122475
    H            1.805285078054     1.773534882763    -0.460129149106

  Mulliken Charges: (a.u.)
   Center  Symbol    Alpha    Beta     Spin     Total
       1     O     4.20221  4.20221  0.00000 -0.40443
       2     C     2.80543  2.80543  0.00000  0.38914
       3     C     3.08895  3.08895  0.00000 -0.17789
       4     O     4.14434  4.14434  0.00000 -0.28867
       5     C     3.14234  3.14234  0.00000 -0.28468
       6     H     0.43561  0.43561  0.00000  0.12879
       7     H     0.44477  0.44477  0.00000  0.11046
       8     H     0.45135  0.45135  0.00000  0.09729
       9     H     0.44923  0.44923  0.00000  0.10154
      10     H     0.44751  0.44751  0.00000  0.10497
      11     C     3.03497  3.03497  0.00000 -0.06994
      12     H     0.45351  0.45351  0.00000  0.09297
      13     H     0.44639  0.44639  0.00000  0.10722
      14     H     0.45338  0.45338  0.00000  0.09323

   Total alpha = 24.00000, Total beta = 24.00000, Total charge =  0.00000

*** Psi4 exiting successfully. Buy a developer a beer!
