  ==> Input File <==

--------------------------------------------------------------------------
set {
	reference rhf
	basis 6-31G*
}

set_num_threads( 1 )
memory 2 gb

molecule MOL {
0 1

H	 3.734462	 -0.812156	 0.695923
O	 2.830258	 -1.088533	 0.582851
C	 2.079485	 0.003070	 0.437389
C	 0.624473	 -0.343591	 0.253101
O	 2.544056	 1.096136	 0.457316
C	 -0.265902	 0.883932	 0.072916
H	 0.564498	 -1.019254	 -0.593808
H	 0.320265	 -0.925593	 1.119406
C	 -1.728698	 0.646073	 0.462102
H	 -0.209144	 1.219470	 -0.958188
H	 0.135059	 1.692851	 0.673903
C	 -2.482460	 -0.343073	 -0.431425
H	 -2.245265	 1.602650	 0.432430
H	 -1.779332	 0.308348	 1.496285
C	 -3.960546	 -0.461025	 -0.060175
H	 -2.395034	 -0.026811	 -1.468912
H	 -2.024850	 -1.327147	 -0.371646
H	 -4.472726	 -1.168004	 -0.705284
H	 -4.465146	 0.496508	 -0.151489
H	 -4.081218	 -0.800940	 0.964585

	symmetry c1
}
set optking {
	frozen_dihedral = ("
		16 12 9 6,
		12 9 6 10,
		5 3 4 7,
		1 2 3 5
	")
}

ee = energy('scf')
oeprop('DIPOLE', 'QUADRUPOLE', 'MULLIKEN_CHARGES')
f=open( 'psi4out.xyz', 'w' )
f.write( "20  " )
f.write( str(ee) + "\n" )
f.write( MOL.save_string_xyz() )
f.close()
--------------------------------------------------------------------------

    Molecular point group: c1

    Geometry (in Angstrom), charge = 0, multiplicity = 1:

       Center              X                  Y                   Z               Mass
    ------------   -----------------  -----------------  -----------------  -----------------
           H          3.733539396084    -0.846443455391     0.466895634953     1.007825032070
           O          2.829335396084    -1.122820455391     0.353823634953    15.994914619560
           C          2.078562396084    -0.031217455391     0.208361634953    12.000000000000
           C          0.623550396084    -0.377878455391     0.024073634953    12.000000000000
           O          2.543133396084     1.061848544609     0.228288634953    15.994914619560
           C         -0.266824603916     0.849644544609    -0.156111365047    12.000000000000
           H          0.563575396084    -1.053541455391    -0.822835365047     1.007825032070
           H          0.319342396084    -0.959880455391     0.890378634953     1.007825032070
           C         -1.729620603916     0.611785544609     0.233074634953    12.000000000000
           H         -0.210066603916     1.185182544609    -1.187215365047     1.007825032070
           H          0.134136396084     1.658563544609     0.444875634953     1.007825032070
           C         -2.483382603916    -0.377360455391    -0.660452365047    12.000000000000
           H         -2.246187603916     1.568362544609     0.203402634953     1.007825032070
           H         -1.780254603916     0.274060544609     1.267257634953     1.007825032070
           C         -3.961468603916    -0.495312455391    -0.289202365047    12.000000000000
           H         -2.395956603916    -0.061098455391    -1.697939365047     1.007825032070
           H         -2.025772603916    -1.361434455391    -0.600673365047     1.007825032070
           H         -4.473648603916    -1.202291455391    -0.934311365047     1.007825032070
           H         -4.466068603916     0.462220544609    -0.380516365047     1.007825032070
           H         -4.082140603916    -0.835227455391     0.735557634953     1.007825032070

  Charge       = 0
  Multiplicity = 1
  Basis Set: 6-31G*
  Basis Set:

    Orbital Energies (a.u.)
    -----------------------

    Doubly Occupied:

       1A    -20.612851     2A    -20.552026     3A    -11.381520
       4A    -11.239989     5A    -11.221484     6A    -11.220299
       7A    -11.219685     8A    -11.212162     9A     -1.474943
      10A     -1.366113    11A     -1.095815    12A     -1.040826
      13A     -0.960856    14A     -0.868741    15A     -0.816059
      16A     -0.776633    17A     -0.700187    18A     -0.691046
      19A     -0.664248    20A     -0.635713    21A     -0.601009
      22A     -0.594091    23A     -0.574713    24A     -0.552153
      25A     -0.544875    26A     -0.510635    27A     -0.496558
      28A     -0.479580    29A     -0.469093    30A     -0.467164
      31A     -0.456226    32A     -0.444936

  @DF-RHF Final Energy:  -383.94755850678069

   => Energetics <=

    Nuclear Repulsion Energy =            375.8025850607623966
    One-Electron Energy =               -1267.6158672090805339
    Two-Electron Energy =                 507.8657236415373859
    DFT Exchange-Correlation Energy =       0.0000000000000000
    Empirical Dispersion Energy =           0.0000000000000000
    PCM Polarization Energy =               0.0000000000000000
    EFP Energy =                            0.0000000000000000
    Total Energy =                       -383.9475585067808083

  Mulliken Charges: (a.u.)
   Center  Symbol    Alpha    Beta     Spin     Total
       1     H     0.26776  0.26776  0.00000  0.46448
       2     O     4.35098  4.35098  0.00000 -0.70196
       3     C     2.62465  2.62465  0.00000  0.75070
       4     C     3.21282  3.21282  0.00000 -0.42564
       5     O     4.27871  4.27871  0.00000 -0.55743
       6     C     3.15759  3.15759  0.00000 -0.31518
       7     H     0.39626  0.39626  0.00000  0.20748
       8     H     0.39851  0.39851  0.00000  0.20297
       9     C     3.15637  3.15637  0.00000 -0.31274
      10     H     0.41563  0.41563  0.00000  0.16873
      11     H     0.40029  0.40029  0.00000  0.19942
      12     C     3.15446  3.15446  0.00000 -0.30891
      13     H     0.41840  0.41840  0.00000  0.16320
      14     H     0.42321  0.42321  0.00000  0.15358
      15     C     3.23935  3.23935  0.00000 -0.47870
      16     H     0.42205  0.42205  0.00000  0.15589
      17     H     0.42248  0.42248  0.00000  0.15505
      18     H     0.41847  0.41847  0.00000  0.16307
      19     H     0.42065  0.42065  0.00000  0.15871
      20     H     0.42137  0.42137  0.00000  0.15726

   Total alpha = 32.00000, Total beta = 32.00000, Total charge =  0.00000
