  ==> Input File <==

--------------------------------------------------------------------------
set {
	reference rhf
	basis 6-31G*
}

set_num_threads( 4 )
memory 2 gb

molecule MOL {
0 1

H	 -4.031818	 -0.453427	 -0.000094
C	 -2.967712	 -0.297022	 -0.000064
C	 -2.458620	 0.992929	 0.000032
C	 -2.109895	 -1.385637	 -0.000122
H	 -3.124998	 1.836319	 0.000077
C	 -1.090278	 1.193236	 0.000070
H	 -2.506361	 -2.384847	 -0.000198
C	 -0.739812	 -1.187531	 -0.000085
H	 -0.678594	 2.184290	 0.000146
C	 -0.226438	 0.104061	 0.000012
H	 -0.072310	 -2.027032	 -0.000131
C	 1.239129	 0.373821	 0.000060
O	 1.749652	 0.467711	 1.218729
O	 1.893705	 0.494375	 -0.987795
C	 3.139812	 0.723459	 1.312115
H	 3.702735	 -0.068934	 0.840920
H	 3.360699	 0.764398	 2.367287
H	 3.384015	 1.664035	 0.840308

	symmetry c1
}
set optking {
	frozen_dihedral = ("
		13 12 10 6
	")
}

ee = optimize('scf')
oeprop('DIPOLE', 'QUADRUPOLE', 'MULLIKEN_CHARGES')
f=open( 'psi4out.xyz', 'w' )
f.write( "18  " )
f.write( str(ee) + "\n" )
f.write( MOL.save_string_xyz() )
f.close()
--------------------------------------------------------------------------

    Molecular point group: c1
  Charge       = 0
  Multiplicity = 1
  Basis Set: 6-31G*
  Basis Set:
  @DF-RHF Final Energy:  -457.33761275196571
    Total Energy =                       -457.3376127519654801
    Molecular point group: c1
  Basis Set: 6-31G*
  Basis Set:
  Basis Set: 6-31G*
  Basis Set:
  @DF-RHF Final Energy:  -457.33770081198116
    Total Energy =                       -457.3377008119812217
  Basis Set: 6-31G*
  Basis Set:
  Basis Set: 6-31G*
  Basis Set:
  @DF-RHF Final Energy:  -457.33802308651246
    Total Energy =                       -457.3380230865125213
  Basis Set: 6-31G*
  Basis Set:
  Basis Set: 6-31G*
  Basis Set:
  @DF-RHF Final Energy:  -457.33808237492781
    Total Energy =                       -457.3380823749275805
  Basis Set: 6-31G*
  Basis Set:
  Basis Set: 6-31G*
  Basis Set:
  @DF-RHF Final Energy:  -457.33808475979288
    Total Energy =                       -457.3380847597934462
  Basis Set: 6-31G*
  Basis Set:
  Charge       = 0
  Multiplicity = 1
  Basis Set: 6-31G*
  Basis Set:

    Orbital Energies (a.u.)
    -----------------------

    Doubly Occupied:

       1A    -20.610056     2A    -20.551561     3A    -11.381081
       4A    -11.283782     5A    -11.251956     6A    -11.243765
       7A    -11.243665     8A    -11.240405     9A    -11.239721
      10A    -11.238637    11A     -1.475892    12A     -1.368658
      13A     -1.166559    14A     -1.048696    15A     -1.025699
      16A     -0.980202    17A     -0.859537    18A     -0.838404
      19A     -0.780658    20A     -0.737588    21A     -0.685420
      22A     -0.680454    23A     -0.677088    24A     -0.631439
      25A     -0.629565    26A     -0.597210    27A     -0.591570
      28A     -0.547816    29A     -0.537176    30A     -0.518014
      31A     -0.507305    32A     -0.501986    33A     -0.459992
      34A     -0.444865    35A     -0.342667    36A     -0.341886

  @DF-RHF Final Energy:  -457.33808531287053

   => Energetics <=

    Nuclear Repulsion Energy =            491.4172854204378496
    One-Electron Energy =               -1596.9887910144966554
    Two-Electron Energy =                 648.2334202811881596
    DFT Exchange-Correlation Energy =       0.0000000000000000
    Empirical Dispersion Energy =           0.0000000000000000
    PCM Polarization Energy =               0.0000000000000000
    EFP Energy =                            0.0000000000000000
    Total Energy =                       -457.3380853128707031
    Molecular point group: c1
  Basis Set: 6-31G*
  Basis Set:

  -Total Gradient:
     Atom            X                  Y                   Z
    ------   -----------------  -----------------  -----------------
       1       -0.000005209645     0.000010229417     0.000006598959
       2        0.000023768562    -0.000085974611    -0.000009367555
       3        0.000068182048     0.000048013274    -0.000002594196
       4       -0.000099923395     0.000043843169    -0.000008003139
       5       -0.000004833502    -0.000007559523    -0.000003306407
       6       -0.000097056036     0.000034737312    -0.000145579734
       7        0.000010896353     0.000003530068     0.000000964870
       8        0.000088614869     0.000059176525     0.000018543191
       9        0.000011812283    -0.000013827241     0.000002038676
      10        0.000074858988    -0.000162351660     0.000215542940
      11       -0.000008272932     0.000007706332     0.000000670505
      12       -0.000083527471     0.000217434831    -0.000094987774
      13        0.000016915405    -0.000132473727     0.000044821032
      14       -0.000006800524     0.000003626282    -0.000021040529
      15        0.000014982546    -0.000049891423    -0.000009475071
      16        0.000011733076     0.000012374881     0.000007446826
      17       -0.000004230782     0.000007873359    -0.000000767371
      18       -0.000011909849     0.000003532734    -0.000001505225

  **** Optimization is complete! (in 6 steps) ****
    Final optimized geometry and variables:
    Molecular point group: c1

    Geometry (in Angstrom), charge = 0, multiplicity = 1:

    H           -3.999869731179    -0.650068428724    -0.179229084213
    C           -2.938532032080    -0.478176772081    -0.173705514467
    C           -2.445751053835     0.816818611881    -0.173897275937
    C           -2.062126771663    -1.551049046423    -0.168059561126
    H           -3.122872142958     1.651816386783    -0.180382952922
    C           -1.079079385856     1.039941989160    -0.167076510233
    H           -2.440673221322    -2.557251821785    -0.169825147966
    C           -0.694662926207    -1.331114666328    -0.161883800105
    H           -0.698038212091     2.045499139124    -0.169906670344
    C           -0.203024827951    -0.034872535488    -0.161037396457
    H           -0.015682160474    -2.164961262232    -0.161476814686
    C            1.277913630615     0.204776367284    -0.182331463488
    O            1.780263292229     0.302501662322     1.037744621631
    O            1.930010235152     0.295705045516    -1.170667068646
    C            3.176096040868     0.529450869063     1.140240298750
    H            3.726234207016    -0.280814548833     0.684083561777
    H            3.387951945388     0.579389324155     2.196604860313
    H            3.445240009528     1.458188126500     0.658273574061

  Mulliken Charges: (a.u.)
   Center  Symbol    Alpha    Beta     Spin     Total
       1     H     0.39655  0.39655  0.00000  0.20691
       2     C     3.09775  3.09775  0.00000 -0.19551
       3     C     3.09973  3.09973  0.00000 -0.19945
       4     C     3.09974  3.09974  0.00000 -0.19947
       5     H     0.39589  0.39589  0.00000  0.20822
       6     C     3.09834  3.09834  0.00000 -0.19668
       7     H     0.39589  0.39589  0.00000  0.20823
       8     C     3.09846  3.09846  0.00000 -0.19691
       9     H     0.39133  0.39133  0.00000  0.21734
      10     C     3.00732  3.00732  0.00000 -0.01463
      11     H     0.39124  0.39124  0.00000  0.21753
      12     C     2.64304  2.64304  0.00000  0.71392
      13     O     4.29460  4.29460  0.00000 -0.58919
      14     O     4.27326  4.27326  0.00000 -0.54652
      15     C     3.09424  3.09424  0.00000 -0.18849
      16     H     0.40817  0.40817  0.00000  0.18365
      17     H     0.40629  0.40629  0.00000  0.18742
      18     H     0.40818  0.40818  0.00000  0.18364

   Total alpha = 36.00000, Total beta = 36.00000, Total charge = -0.00000
