                              Psi4 1.0.54 Driver

  ==> Input File <==

--------------------------------------------------------------------------
set {
	reference rhf
	basis cc-pvtz
}

set_num_threads( 4 )
memory 2 gb

molecule MOL {
0 1

H	 -2.169583	 -0.832760	 -1.529004
C	 -2.724719	 0.115082	 -1.546449
C	 -2.653809	 0.914422	 -0.273689
O	 -3.325090	 0.431119	 -2.514428
C	 -1.216901	 1.136108	 0.207794
H	 -3.172636	 1.851888	 -0.426366
H	 -3.199467	 0.349006	 0.478552
C	 -0.247837	 0.040196	 -0.230469
H	 -0.872882	 2.093195	 -0.169002
H	 -1.209325	 1.218376	 1.291938
C	 1.181757	 0.280428	 0.247371
H	 -0.259600	 -0.030819	 -1.314870
H	 -0.591284	 -0.923375	 0.136958
C	 2.151032	 -0.811012	 -0.202643
H	 1.515939	 1.247397	 -0.115449
H	 1.191514	 0.341223	 1.333422
C	 3.580021	 -0.656538	 0.320835
H	 2.170545	 -0.847575	 -1.289412
H	 1.766632	 -1.772905	 0.124928
C	 4.327657	 0.562694	 -0.213579
H	 4.138806	 -1.549270	 0.057813
H	 3.561991	 -0.620783	 1.406976
H	 4.355973	 0.557257	 -1.298551
H	 3.867136	 1.491650	 0.100501
H	 5.351524	 0.571613	 0.142204

	symmetry c1
}
set optking {
	frozen_dihedral = ("
		6 3 5 8
	")
}

ee,wfn = optimize('scf', return_wfn=True)
oeprop( wfn, 'DIPOLE', 'QUADRUPOLE', 'MULLIKEN_CHARGES')
f=open( 'psi4out.xyz', 'w' )
f.write( "25  " )
f.write( str(ee) + "\n" )
f.write( MOL.save_string_xyz() )
f.close()
--------------------------------------------------------------------------

    Molecular point group: c1
  Charge       = 0
  Multiplicity = 1
  Basis Set: CC-PVTZ
  Basis Set:
  @DF-RHF Final Energy:  -387.25196299628215
    Total Energy =                       -387.2519629962818044
    Molecular point group: c1
  Basis Set: CC-PVTZ
  Basis Set:
  Basis Set: CC-PVTZ
  Basis Set:
  @DF-RHF Final Energy:  -385.80526072739167
    Total Energy =                       -385.8052607273921808
  Basis Set: CC-PVTZ
  Basis Set:
  Basis Set: CC-PVTZ
  Basis Set:
  @DF-RHF Final Energy:  -386.04961284307137
    Total Energy =                       -386.0496128430715430
  Basis Set: CC-PVTZ
  Basis Set:
  Basis Set: CC-PVTZ
  Basis Set:
  @DF-RHF Final Energy:  -386.19923626295031
    Total Energy =                       -386.1992362629500803
  Basis Set: CC-PVTZ
  Basis Set:
  @DF-RHF Final Energy:  -386.22390306414678
    Total Energy =                       -386.2239030641466684
  @DF-RHF Final Energy:  -386.59100424359883
    Total Energy =                       -386.5910042435991727
  @DF-RHF Final Energy:  -386.86394553113854
    Total Energy =                       -386.8639455311384836
  @DF-RHF Final Energy:  -387.12818729861760
    Total Energy =                       -387.1281872986180588
  @DF-RHF Final Energy:  -387.23737266645543
    Total Energy =                       -387.2373726664552578
  @DF-RHF Final Energy:  -387.25318600890438
    Total Energy =                       -387.2531860089043221
  @DF-RHF Final Energy:  -387.25281219938034
    Total Energy =                       -387.2528121993802870
  @DF-RHF Final Energy:  -386.09839546931528
    Total Energy =                       -386.0983954693157330
  @DF-RHF Final Energy:  -386.51181267572952
    Total Energy =                       -386.5118126757297432
  @DF-RHF Final Energy:  -386.85916030360755
    Total Energy =                       -386.8591603036074957
  @DF-RHF Final Energy:  -387.10171604249189
    Total Energy =                       -387.1017160424921713
  @DF-RHF Final Energy:  -387.22057254554659
    Total Energy =                       -387.2205725455465881
  @DF-RHF Final Energy:  -387.25272585013397
    Total Energy =                       -387.2527258501336291
  @DF-RHF Final Energy:  -387.25152800966839
    Total Energy =                       -387.2515280096686183
  @DF-RHF Final Energy:  -387.25074607165089
    Total Energy =                       -387.2507460716508376
  @DF-RHF Final Energy:  -387.25473232335457
    Total Energy =                       -387.2547323233551424
  @DF-RHF Final Energy:  -387.25433891825912
    Total Energy =                       -387.2543389182591227
  @DF-RHF Final Energy:  -387.25510848103744
    Total Energy =                       -387.2551084810372686
  @DF-RHF Final Energy:  -387.25513145539975
    Total Energy =                       -387.2551314553998054
  Basis Set: CC-PVTZ
  Basis Set:
  @DF-RHF Final Energy:  -387.25514179985208
    Total Energy =                       -387.2551417998521401
  Basis Set: CC-PVTZ
  Basis Set:
  Basis Set: CC-PVTZ
  Basis Set:
  @DF-RHF Final Energy:  -387.25514146683031
    Total Energy =                       -387.2551414668304233
  Basis Set: CC-PVTZ
  Basis Set:
  Basis Set: CC-PVTZ
  Basis Set:
  @DF-RHF Final Energy:  -387.25514551551709
    Total Energy =                       -387.2551455155171425
  Basis Set: CC-PVTZ
  Basis Set:
  Charge       = 0
  Multiplicity = 1
  Basis Set: CC-PVTZ
  Basis Set:

    Orbital Energies (a.u.)
    -----------------------

    Doubly Occupied:

       1A    -20.550280     2A    -11.319269     3A    -11.233308
       4A    -11.232718     5A    -11.225096     6A    -11.219016
       7A    -11.217293     8A    -11.216516     9A    -11.209107
      10A     -1.404957    11A     -1.104834    12A     -1.069363
      13A     -1.014061    14A     -0.943808    15A     -0.878076
      16A     -0.831868    17A     -0.783743    18A     -0.771702
      19A     -0.683465    20A     -0.655993    21A     -0.632261
      22A     -0.620764    23A     -0.613933    24A     -0.586414
      25A     -0.574198    26A     -0.562211    27A     -0.534711
      28A     -0.525016    29A     -0.513064    30A     -0.499651
      31A     -0.490748    32A     -0.475785    33A     -0.466557
      34A     -0.460683    35A     -0.444502    36A     -0.409085

  @DF-RHF Final Energy:  -387.25514561318346

   => Energetics <=

    Nuclear Repulsion Energy =            441.0718591403176561
    One-Electron Energy =               -1398.7058920502258843
    Two-Electron Energy =                 570.3788872967247698
    DFT Exchange-Correlation Energy =       0.0000000000000000
    Empirical Dispersion Energy =           0.0000000000000000
    PCM Polarization Energy =               0.0000000000000000
    EFP Energy =                            0.0000000000000000
    Total Energy =                       -387.2551456131834584
    Molecular point group: c1
  Basis Set: CC-PVTZ
  Basis Set:

  -Total Gradient:
     Atom            X                  Y                   Z
    ------   -----------------  -----------------  -----------------
       1        0.000000235733     0.000006256253    -0.000008288569
       2        0.000070154842     0.000017581542    -0.000048631032
       3       -0.002233950137     0.000880636071     0.004133351370
       4       -0.000117013339    -0.000060494484     0.000069915989
       5       -0.004112152781     0.000297699369     0.000967802422
       6        0.003007161418    -0.000821114949    -0.003786810705
       7        0.000001094823     0.000010296949     0.000001522389
       8        0.003398245004    -0.000337713586    -0.001304953160
       9       -0.000002704504     0.000007359823    -0.000003469387
      10       -0.000012453020     0.000002058420     0.000028675974
      11        0.000011288621     0.000027148134    -0.000047206065
      12        0.000025061831    -0.000010582889    -0.000032677869
      13        0.000011875405     0.000010076815    -0.000006432245
      14       -0.000054358854    -0.000024661098     0.000071530063
      15        0.000000967164    -0.000012996129    -0.000000742202
      16       -0.000019590010    -0.000005482365     0.000025601184
      17        0.000034157409    -0.000006460817    -0.000084119694
      18        0.000010989563    -0.000001941473    -0.000023124731
      19        0.000000699417     0.000007904995     0.000006761469
      20       -0.000042844929     0.000010630329     0.000028596068
      21        0.000003563057    -0.000014545015    -0.000005797375
      22       -0.000010735662     0.000005428027     0.000017137226
      23        0.000008042225    -0.000000193548    -0.000020653358
      24        0.000014566111     0.000011362246     0.000012121346
      25        0.000007700613     0.000001747376     0.000009890893

  **** Optimization is complete! (in 27 steps) ****
    Final optimized geometry and variables:
    Molecular point group: c1

    Geometry (in Angstrom), charge = 0, multiplicity = 1:

    H           -0.408519987285     2.899946003548    -1.280072312849
    C            0.435487850573     3.083975088055    -0.606723668089
    C            0.205192208081     2.764756899056     0.848952094070
    O            1.448431287225     3.517227834042    -1.038318209895
    C            0.181410170587     1.251035846786     1.157922993169
    H            1.015273095483     3.237239026983     1.387126204132
    H           -0.735907682688     3.221958342783     1.139006598541
    C           -0.349479884468     0.343646488788     0.047726016765
    H            1.195793555481     0.941072093913     1.384776688021
    H           -0.393726660574     1.094511825185     2.063407620690
    C           -0.392462291899    -1.123740505954     0.466775131300
    H            0.276901118837     0.439523186265    -0.834393727963
    H           -1.348063169445     0.658115354329    -0.247552009002
    C           -0.897332510081    -2.045137852152    -0.641970377051
    H            0.601203808997    -1.427985409404     0.779641492715
    H           -1.033881875315    -1.228300480088     1.338868491111
    C           -1.035428786046    -3.514955402997    -0.241467623635
    H           -0.234356215331    -1.969908199892    -1.500822417993
    H           -1.867343778976    -1.687224026416    -0.976304556149
    C            0.282804782982    -4.216230855733     0.076961843636
    H           -1.524400500183    -4.045812466108    -1.052357921157
    H           -1.700770832964    -3.592004649719     0.614549490358
    H            0.971363676831    -4.149140389676    -0.759290664067
    H            0.772211612855    -3.787859299890     0.943322396592
    H            0.118008607984    -5.267346155498     0.284091439881

  Mulliken Charges: (a.u.)
   Center  Symbol    Alpha    Beta     Spin     Total
       1     H     0.45986  0.45986  0.00000  0.08027
       2     C     2.90786  2.90786  0.00000  0.18429
       3     C     3.08732  3.08732  0.00000 -0.17465
       4     O     4.16719  4.16719  0.00000 -0.33438
       5     C     3.09884  3.09884  0.00000 -0.19767
       6     H     0.44021  0.44021  0.00000  0.11959
       7     H     0.44875  0.44875  0.00000  0.10251
       8     C     3.10530  3.10530  0.00000 -0.21061
       9     H     0.44629  0.44629  0.00000  0.10742
      10     H     0.44785  0.44785  0.00000  0.10430
      11     C     3.09289  3.09289  0.00000 -0.18578
      12     H     0.44568  0.44568  0.00000  0.10865
      13     H     0.45100  0.45100  0.00000  0.09800
      14     C     3.09513  3.09513  0.00000 -0.19026
      15     H     0.45037  0.45037  0.00000  0.09926
      16     H     0.45324  0.45324  0.00000  0.09352
      17     C     3.09103  3.09103  0.00000 -0.18205
      18     H     0.45241  0.45241  0.00000  0.09517
      19     H     0.44976  0.44976  0.00000  0.10048
      20     C     3.15256  3.15256  0.00000 -0.30512
      21     H     0.44780  0.44780  0.00000  0.10441
      22     H     0.45476  0.45476  0.00000  0.09049
      23     H     0.45404  0.45404  0.00000  0.09193
      24     H     0.45393  0.45393  0.00000  0.09214
      25     H     0.44595  0.44595  0.00000  0.10810

   Total alpha = 36.00000, Total beta = 36.00000, Total charge = -0.00000

*** Psi4 exiting successfully. Buy a developer a beer!
