                              Psi4 1.0.54 Driver

  ==> Input File <==

--------------------------------------------------------------------------
set {
	reference rhf
	basis cc-pvtz
}

set_num_threads( 4 )
memory 2 gb

molecule MOL {
0 1

H	 2.162049	 1.079617	 1.082957
O	 1.294588	 0.707145	 1.133063
C	 1.050374	 0.054877	 0.000135
C	 -0.318151	 -0.570512	 0.000144
O	 1.841734	 -0.001962	 -0.876499
C	 -1.454884	 0.441630	 -0.000560
H	 -0.371613	 -1.223646	 -0.864985
H	 -0.371920	 -1.222758	 0.865929
C	 -2.822577	 -0.232186	 0.000063
H	 -1.359760	 1.084704	 -0.867077
H	 -1.359641	 1.085996	 0.864983
H	 -2.954352	 -0.858985	 -0.875745
H	 -3.615886	 0.505352	 0.000019
H	 -2.953878	 -0.858359	 0.876394

	symmetry c1
}
set optking {
	frozen_dihedral = ("
		2 3 4 7
	")
}

ee,wfn = optimize('scf', return_wfn=True)
oeprop( wfn, 'DIPOLE', 'QUADRUPOLE', 'MULLIKEN_CHARGES')
f=open( 'psi4out.xyz', 'w' )
f.write( "14  " )
f.write( str(ee) + "\n" )
f.write( MOL.save_string_xyz() )
f.close()
--------------------------------------------------------------------------

    Molecular point group: c1
  Charge       = 0
  Multiplicity = 1
  Basis Set: CC-PVTZ
  Basis Set:
  @DF-RHF Final Energy:  -305.99934062304646
    Total Energy =                       -305.9993406230463506
    Molecular point group: c1
  Basis Set: CC-PVTZ
  Basis Set:
  Basis Set: CC-PVTZ
  Basis Set:
  @DF-RHF Final Energy:  -305.99966220389103
    Total Energy =                       -305.9996622038911482
  Basis Set: CC-PVTZ
  Basis Set:
  Basis Set: CC-PVTZ
  Basis Set:
  @DF-RHF Final Energy:  -305.99910046427078
    Total Energy =                       -305.9991004642708958
  Basis Set: CC-PVTZ
  Basis Set:
  Basis Set: CC-PVTZ
  Basis Set:
  @DF-RHF Final Energy:  -305.99971362670112
    Total Energy =                       -305.9997136267013502
  Basis Set: CC-PVTZ
  Basis Set:
  Basis Set: CC-PVTZ
  Basis Set:
  @DF-RHF Final Energy:  -305.99973650164520
    Total Energy =                       -305.9997365016452591
  Basis Set: CC-PVTZ
  Basis Set:
  Charge       = 0
  Multiplicity = 1
  Basis Set: CC-PVTZ
  Basis Set:

    Orbital Energies (a.u.)
    -----------------------

    Doubly Occupied:

       1A    -20.604853     2A    -20.539535     3A    -11.372725
       4A    -11.238361     5A    -11.233541     6A    -11.219338
       7A     -1.477485     8A     -1.368277     9A     -1.087817
      10A     -0.980869    11A     -0.851358    12A     -0.814088
      13A     -0.705780    14A     -0.688291    15A     -0.647806
      16A     -0.635131    17A     -0.596191    18A     -0.567248
      19A     -0.554192    20A     -0.520770    21A     -0.501270
      22A     -0.489300    23A     -0.477327    24A     -0.440944

  @DF-RHF Final Energy:  -305.99973754483858

   => Energetics <=

    Nuclear Repulsion Energy =            240.9377926574001378
    One-Electron Energy =                -894.6500692881361374
    Two-Electron Energy =                 347.7125390858974470
    DFT Exchange-Correlation Energy =       0.0000000000000000
    Empirical Dispersion Energy =           0.0000000000000000
    PCM Polarization Energy =               0.0000000000000000
    EFP Energy =                            0.0000000000000000
    Total Energy =                       -305.9997375448385810
    Molecular point group: c1
  Basis Set: CC-PVTZ
  Basis Set:

  -Total Gradient:
     Atom            X                  Y                   Z
    ------   -----------------  -----------------  -----------------
       1       -0.000019164978    -0.000010017948    -0.000003766799
       2       -0.000085118974     0.000108729633    -0.000101079050
       3        0.000123293449    -0.000097877900     0.000174207417
       4        0.000061338986    -0.000072918840     0.000035882216
       5       -0.000022516158    -0.000039040324    -0.000047901524
       6        0.000036010092    -0.000051217099     0.000021523321
       7       -0.000052074790     0.000147267514    -0.000090509976
       8       -0.000003981538    -0.000007484715     0.000012345943
       9       -0.000027389093     0.000007504275    -0.000000518752
      10       -0.000010703679    -0.000001151586    -0.000002069420
      11       -0.000011825968     0.000008242714     0.000003809200
      12        0.000008007502     0.000003887956     0.000001637890
      13       -0.000005045930    -0.000000393655    -0.000000076768
      14        0.000009171074     0.000004469974    -0.000003483697

  **** Optimization is complete! (in 6 steps) ****
    Final optimized geometry and variables:
    Molecular point group: c1

    Geometry (in Angstrom), charge = 0, multiplicity = 1:

    H            2.208596155479     1.007651142878     1.003268051091
    O            1.352850106770     0.612986790445     1.078668149342
    C            1.083317895624    -0.026558914345    -0.056105497523
    C           -0.274266706759    -0.673376650306    -0.043644087821
    O            1.847508636787    -0.054164319691    -0.958450333896
    C           -1.410982494084     0.354549960635    -0.047031599977
    H           -0.333557113503    -1.308281496148    -0.915612908787
    H           -0.345871149160    -1.294247511433     0.842375244252
    C           -2.781994706747    -0.311270361235    -0.066186789423
    H           -1.306775302280     0.996270053098    -0.915945618564
    H           -1.323403828364     0.990014178024     0.825697587063
    H           -2.903553786745    -0.934140426018    -0.945519696444
    H           -3.571167682990     0.430798709739    -0.073764639762
    H           -2.924455693018    -0.938292706123     0.807331200480

  Mulliken Charges: (a.u.)
   Center  Symbol    Alpha    Beta     Spin     Total
       1     H     0.38049  0.38049  0.00000  0.23901
       2     O     4.16404  4.16404  0.00000 -0.32809
       3     C     2.80649  2.80649  0.00000  0.38701
       4     C     3.08687  3.08687  0.00000 -0.17374
       5     O     4.19458  4.19458  0.00000 -0.38917
       6     C     3.09396  3.09396  0.00000 -0.18791
       7     H     0.43671  0.43671  0.00000  0.12658
       8     H     0.44483  0.44483  0.00000  0.11034
       9     C     3.14973  3.14973  0.00000 -0.29947
      10     H     0.44687  0.44687  0.00000  0.10625
      11     H     0.44316  0.44316  0.00000  0.11369
      12     H     0.45270  0.45270  0.00000  0.09459
      13     H     0.44567  0.44567  0.00000  0.10866
      14     H     0.45388  0.45388  0.00000  0.09224

   Total alpha = 24.00000, Total beta = 24.00000, Total charge = -0.00000

*** Psi4 exiting successfully. Buy a developer a beer!
