  ==> Input File <==

--------------------------------------------------------------------------
set {
	reference rhf
	basis 6-31G*
}

set_num_threads( 1 )
memory 2 gb

molecule MOL {
0 1

O	 -1.876614	 2.004708	 -0.026051
C	 -1.893193	 0.849943	 -0.327178
C	 -0.679838	 0.193543	 -0.962169
C	 -3.101107	 -0.021609	 -0.065036
C	 0.379448	 -0.143569	 0.099626
H	 -0.264142	 0.893944	 -1.678367
H	 -0.968492	 -0.706493	 -1.497556
C	 1.631333	 -0.777471	 -0.511575
H	 0.632316	 0.769439	 0.626749
H	 -0.043870	 -0.824852	 0.836106
C	 2.915987	 -0.544314	 0.291766
H	 1.766672	 -0.399098	 -1.523130
H	 1.471257	 -1.849544	 -0.605828
C	 3.373361	 0.914346	 0.347591
H	 3.708709	 -1.142521	 -0.150311
H	 2.780642	 -0.921148	 1.303579
H	 3.506512	 1.320010	 -0.651625
H	 4.322697	 0.999599	 0.867103
H	 2.660624	 1.545032	 0.868198
H	 -3.536992	 -0.335541	 -1.009872
H	 -3.837366	 0.527734	 0.504989
H	 -2.816215	 -0.922363	 0.470952

	symmetry c1
}
set optking {
	frozen_dihedral = ("
		6 3 2 1,
		6 3 5 8,
		12 8 11 15
	")
}

ee = energy('scf')
oeprop('DIPOLE', 'QUADRUPOLE', 'MULLIKEN_CHARGES')
f=open( 'psi4out.xyz', 'w' )
f.write( "22  " )
f.write( str(ee) + "\n" )
f.write( MOL.save_string_xyz() )
f.close()
--------------------------------------------------------------------------

    Molecular point group: c1

    Geometry (in Angstrom), charge = 0, multiplicity = 1:

       Center              X                  Y                   Z               Mass
    ------------   -----------------  -----------------  -----------------  -----------------
           O         -1.972590791923     1.683409654305     0.110597656481    15.994914619560
           C         -1.989169791923     0.528644654305    -0.190529343519    12.000000000000
           C         -0.775814791923    -0.127755345695    -0.825520343519    12.000000000000
           C         -3.197083791923    -0.342907345695     0.071612656481    12.000000000000
           C          0.283471208077    -0.464867345695     0.236274656481    12.000000000000
           H         -0.360118791923     0.572645654305    -1.541718343519     1.007825032070
           H         -1.064468791923    -1.027791345695    -1.360907343519     1.007825032070
           C          1.535356208077    -1.098769345695    -0.374926343519    12.000000000000
           H          0.536339208077     0.448140654305     0.763397656481     1.007825032070
           H         -0.139846791923    -1.146150345695     0.972754656481     1.007825032070
           C          2.820010208077    -0.865612345695     0.428414656481    12.000000000000
           H          1.670695208077    -0.720396345695    -1.386481343519     1.007825032070
           H          1.375280208077    -2.170842345695    -0.469179343519     1.007825032070
           C          3.277384208077     0.593047654305     0.484239656481    12.000000000000
           H          3.612732208077    -1.463819345695    -0.013662343519     1.007825032070
           H          2.684665208077    -1.242446345695     1.440227656481     1.007825032070
           H          3.410535208077     0.998711654305    -0.514976343519     1.007825032070
           H          4.226720208077     0.678300654305     1.003751656481     1.007825032070
           H          2.564647208077     1.223733654305     1.004846656481     1.007825032070
           H         -3.632968791923    -0.656839345695    -0.873223343519     1.007825032070
           H         -3.933342791923     0.206435654305     0.641637656481     1.007825032070
           H         -2.912191791923    -1.243661345695     0.607600656481     1.007825032070

  Charge       = 0
  Multiplicity = 1
  Basis Set: 6-31G*
  Basis Set:

    Orbital Energies (a.u.)
    -----------------------

    Doubly Occupied:

       1A    -20.547245     2A    -11.324171     3A    -11.229311
       4A    -11.228332     5A    -11.228022     6A    -11.221615
       7A    -11.220077     8A    -11.210219     9A     -1.392962
      10A     -1.095523    11A     -1.043657    12A     -0.999037
      13A     -0.937741    14A     -0.857100    15A     -0.786008
      16A     -0.733002    17A     -0.660704    18A     -0.645880
      19A     -0.626360    20A     -0.620330    21A     -0.598154
      22A     -0.575239    23A     -0.567066    24A     -0.544496
      25A     -0.532710    26A     -0.513826    27A     -0.503046
      28A     -0.486331    29A     -0.468134    30A     -0.462236
      31A     -0.460689    32A     -0.395823

  @DF-RHF Final Energy:  -348.09553973567836

   => Energetics <=

    Nuclear Repulsion Energy =            374.3603719678801554
    One-Electron Energy =               -1213.4815061098965998
    Two-Electron Energy =                 491.0255944063380298
    DFT Exchange-Correlation Energy =       0.0000000000000000
    Empirical Dispersion Energy =           0.0000000000000000
    PCM Polarization Energy =               0.0000000000000000
    EFP Energy =                            0.0000000000000000
    Total Energy =                       -348.0955397356784147

  Mulliken Charges: (a.u.)
   Center  Symbol    Alpha    Beta     Spin     Total
       1     O     4.26264  4.26264  0.00000 -0.52528
       2     C     2.73717  2.73717  0.00000  0.52567
       3     C     3.20086  3.20086  0.00000 -0.40172
       4     C     3.28944  3.28944  0.00000 -0.57889
       5     C     3.16484  3.16484  0.00000 -0.32969
       6     H     0.40098  0.40098  0.00000  0.19803
       7     H     0.41677  0.41677  0.00000  0.16646
       8     C     3.15401  3.15401  0.00000 -0.30802
       9     H     0.40354  0.40354  0.00000  0.19293
      10     H     0.41948  0.41948  0.00000  0.16104
      11     C     3.15390  3.15390  0.00000 -0.30779
      12     H     0.42141  0.42141  0.00000  0.15718
      13     H     0.42008  0.42008  0.00000  0.15984
      14     C     3.24215  3.24215  0.00000 -0.48431
      15     H     0.41990  0.41990  0.00000  0.16020
      16     H     0.42248  0.42248  0.00000  0.15505
      17     H     0.42126  0.42126  0.00000  0.15748
      18     H     0.41796  0.41796  0.00000  0.16408
      19     H     0.41719  0.41719  0.00000  0.16562
      20     H     0.40696  0.40696  0.00000  0.18608
      21     H     0.39717  0.39717  0.00000  0.20566
      22     H     0.40981  0.40981  0.00000  0.18038

   Total alpha = 32.00000, Total beta = 32.00000, Total charge = -0.00000
