  ==> Input File <==

--------------------------------------------------------------------------
set {
	reference rhf
	basis 6-31G*
}

set_num_threads( 1 )
memory 2 gb

molecule MOL {
0 1

H	 2.254297	 -1.873688	 0.385747
O	 2.826016	 -1.159218	 0.122261
C	 2.077727	 -0.067559	 -0.035091
C	 0.624473	 -0.343591	 0.253101
O	 2.542965	 0.974826	 -0.363729
C	 -0.265902	 0.883932	 0.072916
H	 0.324016	 -1.163849	 -0.390541
H	 0.565024	 -0.726111	 1.268924
C	 -1.728698	 0.646073	 0.462102
H	 -0.209144	 1.219470	 -0.958188
H	 0.135059	 1.692851	 0.673903
C	 -2.482460	 -0.343073	 -0.431425
H	 -2.245265	 1.602650	 0.432430
H	 -1.779332	 0.308348	 1.496285
C	 -3.960546	 -0.461025	 -0.060175
H	 -2.395034	 -0.026811	 -1.468912
H	 -2.024850	 -1.327147	 -0.371646
H	 -4.472726	 -1.168004	 -0.705284
H	 -4.465146	 0.496508	 -0.151489
H	 -4.081218	 -0.800940	 0.964585

	symmetry c1
}
set optking {
	frozen_dihedral = ("
		16 12 9 6,
		7 4 6 10,
		12 9 6 10,
		5 3 4 7
	")
}

ee = energy('scf')
oeprop('DIPOLE', 'QUADRUPOLE', 'MULLIKEN_CHARGES')
f=open( 'psi4out.xyz', 'w' )
f.write( "20  " )
f.write( str(ee) + "\n" )
f.write( MOL.save_string_xyz() )
f.close()
--------------------------------------------------------------------------

    Molecular point group: c1

    Geometry (in Angstrom), charge = 0, multiplicity = 1:

       Center              X                  Y                   Z               Mass
    ------------   -----------------  -----------------  -----------------  -----------------
           H          2.267104431772    -1.865480148962     0.381785284259     1.007825032070
           O          2.838823431772    -1.151010148962     0.118299284259    15.994914619560
           C          2.090534431772    -0.059351148962    -0.039052715741    12.000000000000
           C          0.637280431772    -0.335383148962     0.249139284259    12.000000000000
           O          2.555772431772     0.983033851038    -0.367690715741    15.994914619560
           C         -0.253094568228     0.892139851038     0.068954284259    12.000000000000
           H          0.336823431772    -1.155641148962    -0.394502715741     1.007825032070
           H          0.577831431772    -0.717903148962     1.264962284259     1.007825032070
           C         -1.715890568228     0.654280851038     0.458140284259    12.000000000000
           H         -0.196336568228     1.227677851038    -0.962149715741     1.007825032070
           H          0.147866431772     1.701058851038     0.669941284259     1.007825032070
           C         -2.469652568228    -0.334865148962    -0.435386715741    12.000000000000
           H         -2.232457568228     1.610857851038     0.428468284259     1.007825032070
           H         -1.766524568228     0.316555851038     1.492323284259     1.007825032070
           C         -3.947738568228    -0.452817148962    -0.064136715741    12.000000000000
           H         -2.382226568228    -0.018603148962    -1.472873715741     1.007825032070
           H         -2.012042568228    -1.318939148962    -0.375607715741     1.007825032070
           H         -4.459918568228    -1.159796148962    -0.709245715741     1.007825032070
           H         -4.452338568228     0.504715851038    -0.155450715741     1.007825032070
           H         -4.068410568228    -0.792732148962     0.960623284259     1.007825032070

  Charge       = 0
  Multiplicity = 1
  Basis Set: 6-31G*
  Basis Set:

    Orbital Energies (a.u.)
    -----------------------

    Doubly Occupied:

       1A    -20.615488     2A    -20.548575     3A    -11.380953
       4A    -11.252680     5A    -11.230192     6A    -11.226795
       7A    -11.226147     8A    -11.217395     9A     -1.470887
      10A     -1.370330    11A     -1.103314    12A     -1.046697
      13A     -0.963363    14A     -0.866741    15A     -0.829549
      16A     -0.795468    17A     -0.721778    18A     -0.672331
      19A     -0.660977    20A     -0.638328    21A     -0.608673
      22A     -0.605070    23A     -0.575726    24A     -0.566616
      25A     -0.546716    26A     -0.518698    27A     -0.502699
      28A     -0.477032    29A     -0.476205    30A     -0.472648
      31A     -0.463691    32A     -0.439685

  @DF-RHF Final Energy:  -383.93612040811081

   => Energetics <=

    Nuclear Repulsion Energy =            376.6470774066375498
    One-Electron Energy =               -1268.9834678703737154
    Two-Electron Energy =                 508.4002700556247873
    DFT Exchange-Correlation Energy =       0.0000000000000000
    Empirical Dispersion Energy =           0.0000000000000000
    PCM Polarization Energy =               0.0000000000000000
    EFP Energy =                            0.0000000000000000
    Total Energy =                       -383.9361204081113783

  Mulliken Charges: (a.u.)
   Center  Symbol    Alpha    Beta     Spin     Total
       1     H     0.26719  0.26719  0.00000  0.46561
       2     O     4.34927  4.34927  0.00000 -0.69854
       3     C     2.59951  2.59951  0.00000  0.80097
       4     C     3.24755  3.24755  0.00000 -0.49511
       5     O     4.26948  4.26948  0.00000 -0.53895
       6     C     3.15285  3.15285  0.00000 -0.30571
       7     H     0.40216  0.40216  0.00000  0.19568
       8     H     0.40368  0.40368  0.00000  0.19264
       9     C     3.15645  3.15645  0.00000 -0.31290
      10     H     0.40888  0.40888  0.00000  0.18223
      11     H     0.40436  0.40436  0.00000  0.19129
      12     C     3.15458  3.15458  0.00000 -0.30916
      13     H     0.41610  0.41610  0.00000  0.16779
      14     H     0.42407  0.42407  0.00000  0.15186
      15     C     3.23932  3.23932  0.00000 -0.47865
      16     H     0.42012  0.42012  0.00000  0.15975
      17     H     0.42588  0.42588  0.00000  0.14823
      18     H     0.41774  0.41774  0.00000  0.16452
      19     H     0.41945  0.41945  0.00000  0.16110
      20     H     0.42133  0.42133  0.00000  0.15734

   Total alpha = 32.00000, Total beta = 32.00000, Total charge = -0.00000
