  ==> Input File <==

--------------------------------------------------------------------------
set {
	reference rhf
	basis 6-31G*
}

set_num_threads( 4 )
memory 2 gb

molecule MOL {
0 1

H	 -2.646374	 -0.642757	 1.268656
C	 -2.083525	 -0.384536	 0.393091
O	 -0.807605	 -0.127164	 0.768327
F	 -2.118945	 -1.383102	 -0.486752
F	 -2.621877	 0.670592	 -0.209486
C	 0.084052	 0.273579	 -0.209957
C	 -0.139460	 1.763868	 -0.431864
Cl	 -0.179880	 -0.627274	 -1.711961
H	 1.108443	 0.125208	 0.083954
F	 0.688631	 2.221533	 -1.346712
F	 0.103274	 2.401870	 0.695731
F	 -1.367954	 2.029983	 -0.803291

	symmetry c1
}
set optking {
	frozen_dihedral = ("
		9 6 3 2
	")
}

ee = optimize('scf')
oeprop('DIPOLE', 'QUADRUPOLE', 'MULLIKEN_CHARGES')
f=open( 'psi4out.xyz', 'w' )
f.write( "12  " )
f.write( str(ee) + "\n" )
f.write( MOL.save_string_xyz() )
f.close()
--------------------------------------------------------------------------

    Molecular point group: c1
  Charge       = 0
  Multiplicity = 1
  Basis Set: 6-31G*
  Basis Set:
  @DF-RHF Final Energy: -1146.25411744738653
    Total Energy =                      -1146.2541174473867613
    Molecular point group: c1
  Basis Set: 6-31G*
  Basis Set:
  Basis Set: 6-31G*
  Basis Set:
  @DF-RHF Final Energy: -1146.28063337980120
    Total Energy =                      -1146.2806333798009746
  Basis Set: 6-31G*
  Basis Set:
  Basis Set: 6-31G*
  Basis Set:
  @DF-RHF Final Energy: -1146.29432962771511
    Total Energy =                      -1146.2943296277153422
  Basis Set: 6-31G*
  Basis Set:
  Basis Set: 6-31G*
  Basis Set:
  @DF-RHF Final Energy: -1146.30121363348690
    Total Energy =                      -1146.3012136334859861
  Basis Set: 6-31G*
  Basis Set:
  @DF-RHF Final Energy: -1146.30411169261356
    Total Energy =                      -1146.3041116926137875
  @DF-RHF Final Energy: -1146.30491941321679
    Total Energy =                      -1146.3049194132172488
  @DF-RHF Final Energy: -1146.30515882162490
    Total Energy =                      -1146.3051588216251275
  @DF-RHF Final Energy: -1146.30520731625211
    Total Energy =                      -1146.3052073162521083
  Basis Set: 6-31G*
  Basis Set:
  @DF-RHF Final Energy: -1146.30522996259788
    Total Energy =                      -1146.3052299625983323
  Basis Set: 6-31G*
  Basis Set:
  Basis Set: 6-31G*
  Basis Set:
  @DF-RHF Final Energy: -1146.30523484566038
    Total Energy =                      -1146.3052348456608343
  Basis Set: 6-31G*
  Basis Set:
  Basis Set: 6-31G*
  Basis Set:
  @DF-RHF Final Energy: -1146.30523681899831
    Total Energy =                      -1146.3052368189987646
  Basis Set: 6-31G*
  Basis Set:
  Charge       = 0
  Multiplicity = 1
  Basis Set: 6-31G*
  Basis Set:

    Orbital Energies (a.u.)
    -----------------------

    Doubly Occupied:

       1A   -104.846741     2A    -26.358798     3A    -26.358206
       4A    -26.357015     5A    -26.342279     6A    -26.334320
       7A    -20.644921     8A    -11.526894     9A    -11.484799
      10A    -11.402929    11A    -10.581647    12A     -8.051019
      13A     -8.047446    14A     -8.047315    15A     -1.760684
      16A     -1.710352    17A     -1.656391    18A     -1.655689
      19A     -1.632133    20A     -1.476306    21A     -1.180578
      22A     -1.052835    23A     -0.990950    24A     -0.913959
      25A     -0.852131    26A     -0.849750    27A     -0.844568
      28A     -0.830618    29A     -0.806530    30A     -0.759716
      31A     -0.730071    32A     -0.721341    33A     -0.705881
      34A     -0.688126    35A     -0.679985    36A     -0.671008
      37A     -0.665280    38A     -0.657442    39A     -0.648700
      40A     -0.633149    41A     -0.592357    42A     -0.559450
      43A     -0.526006    44A     -0.478706    45A     -0.468107

  @DF-RHF Final Energy: -1146.30523709753652

   => Energetics <=

    Nuclear Repulsion Energy =            752.4556850208413152
    One-Electron Energy =               -3087.9555893960268804
    Two-Electron Energy =                1189.1946672776493870
    DFT Exchange-Correlation Energy =       0.0000000000000000
    Empirical Dispersion Energy =           0.0000000000000000
    PCM Polarization Energy =               0.0000000000000000
    EFP Energy =                            0.0000000000000000
    Total Energy =                      -1146.3052370975360645
    Molecular point group: c1
  Basis Set: 6-31G*
  Basis Set:

  -Total Gradient:
     Atom            X                  Y                   Z
    ------   -----------------  -----------------  -----------------
       1        0.000011197853     0.000021058024     0.000005232744
       2       -0.000087274472     0.000181885998     0.000001092452
       3        0.000072857983    -0.000182924068    -0.000048655372
       4       -0.000002439033    -0.000067375948     0.000004963776
       5        0.000037816728     0.000002873384     0.000008584368
       6       -0.000046234614    -0.000070298025    -0.000063567349
       7        0.000015055565    -0.000014307650    -0.000024800209
       8       -0.000004644365     0.000003612582    -0.000012568368
       9        0.000003597628     0.000138532504     0.000070399899
      10       -0.000004534984     0.000014138354    -0.000000265947
      11       -0.000005580339     0.000020278622     0.000022527429
      12        0.000010182014    -0.000047473779     0.000037056611

  **** Optimization is complete! (in 12 steps) ****
    Final optimized geometry and variables:
    Molecular point group: c1

    Geometry (in Angstrom), charge = 0, multiplicity = 1:

    H           -1.776993791356    -1.141542084878     1.971708417850
    C           -1.343241046957    -1.091981795146     0.991127218234
    O           -0.027093070831    -0.784659766295     1.149400433833
    F           -1.486786070447    -2.263408413246     0.386486687201
    F           -1.975274396381    -0.185700591326     0.259765295402
    C            0.804962650227    -0.275732485977     0.168132944687
    C            0.718999327664     1.250438162185     0.058816697382
    CL           0.645908179205    -1.019787276674    -1.431629858609
    H            1.800731422621    -0.490841014561     0.512265089014
    F            1.799018351676     1.684900990583    -0.563046120088
    F            0.710047584137     1.767213821094     1.270765948675
    F           -0.328475857478     1.695317119547    -0.587720108691

  Mulliken Charges: (a.u.)
   Center  Symbol    Alpha    Beta     Spin     Total
       1     H     0.40600  0.40600  0.00000  0.18801
       2     C     2.55903  2.55903  0.00000  0.88194
       3     O     4.31335  4.31335  0.00000 -0.62669
       4     F     4.68054  4.68054  0.00000 -0.36108
       5     F     4.68176  4.68176  0.00000 -0.36352
       6     C     3.03193  3.03193  0.00000 -0.06386
       7     C     2.44562  2.44562  0.00000  1.10875
       8    CL     8.50155  8.50155  0.00000 -0.00310
       9     H     0.36516  0.36516  0.00000  0.26967
      10     F     4.67625  4.67625  0.00000 -0.35250
      11     F     4.67494  4.67494  0.00000 -0.34988
      12     F     4.66387  4.66387  0.00000 -0.32774

   Total alpha = 45.00000, Total beta = 45.00000, Total charge = -0.00000
