                              Psi4 1.0.54 Driver

  ==> Input File <==

--------------------------------------------------------------------------
set {
	reference rhf
	basis cc-pvtz
}

set_num_threads( 4 )
memory 2 gb

molecule MOL {
0 1

O	 -2.817697	 1.304178	 0.001046
C	 -2.664672	 0.129869	 0.003507
C	 -3.797908	 -0.860100	 -0.001145
O	 -1.481217	 -0.452708	 0.001092
H	 -4.408836	 -0.679689	 -0.875387
H	 -3.443486	 -1.878443	 -0.002770
H	 -4.412123	 -0.683688	 0.871605
C	 -0.332055	 0.384012	 -0.000250
C	 0.892252	 -0.506059	 -0.000295
H	 -0.360822	 1.020205	 -0.874146
H	 -0.359817	 1.021310	 0.872861
C	 1.792510	 -0.244743	 -1.204293
H	 0.573185	 -1.543281	 0.005783
H	 1.445808	 -0.343137	 0.918779
C	 3.034706	 -1.131100	 -1.225383
H	 1.227469	 -0.400118	 -2.120025
H	 2.098261	 0.798556	 -1.208689
C	 3.935196	 -0.869460	 -2.427744
H	 2.730440	 -2.173919	 -1.222785
H	 3.600244	 -0.976581	 -0.310847
H	 3.407498	 -1.048948	 -3.358423
H	 4.806495	 -1.513752	 -2.412523
H	 4.283779	 0.157771	 -2.439590

	symmetry c1
}
set optking {
	frozen_dihedral = ("
		13 9 8 10
	")
}

ee,wfn = optimize('scf', return_wfn=True)
oeprop( wfn, 'DIPOLE', 'QUADRUPOLE', 'MULLIKEN_CHARGES')
f=open( 'psi4out.xyz', 'w' )
f.write( "23  " )
f.write( str(ee) + "\n" )
f.write( MOL.save_string_xyz() )
f.close()
--------------------------------------------------------------------------

    Molecular point group: c1
  Charge       = 0
  Multiplicity = 1
  Basis Set: CC-PVTZ
  Basis Set:
  @DF-RHF Final Energy:  -423.12862502283201
    Total Energy =                       -423.1286250228321251
    Molecular point group: c1
  Basis Set: CC-PVTZ
  Basis Set:
  Basis Set: CC-PVTZ
  Basis Set:
  @DF-RHF Final Energy:  -423.12878059408843
    Total Energy =                       -423.1287805940886528
  Basis Set: CC-PVTZ
  Basis Set:
  Basis Set: CC-PVTZ
  Basis Set:
  @DF-RHF Final Energy:  -423.12889195537326
    Total Energy =                       -423.1288919553730921
  Basis Set: CC-PVTZ
  Basis Set:
  Basis Set: CC-PVTZ
  Basis Set:
  @DF-RHF Final Energy:  -423.12902005622220
    Total Energy =                       -423.1290200562226573
  Basis Set: CC-PVTZ
  Basis Set:
  Basis Set: CC-PVTZ
  Basis Set:
  @DF-RHF Final Energy:  -423.12904597015620
    Total Energy =                       -423.1290459701560849
  Basis Set: CC-PVTZ
  Basis Set:
  Charge       = 0
  Multiplicity = 1
  Basis Set: CC-PVTZ
  Basis Set:

    Orbital Energies (a.u.)
    -----------------------

    Doubly Occupied:

       1A    -20.595947     2A    -20.529455     3A    -11.366154
       4A    -11.279782     5A    -11.230788     6A    -11.222106
       7A    -11.220086     8A    -11.218495     9A    -11.210525
      10A     -1.470745    11A     -1.363618    12A     -1.092839
      13A     -1.041881    14A     -1.003256    15A     -0.931613
      16A     -0.843392    17A     -0.801058    18A     -0.781166
      19A     -0.691045    20A     -0.684833    21A     -0.670074
      22A     -0.646515    23A     -0.608680    24A     -0.584539
      25A     -0.582376    26A     -0.571931    27A     -0.559488
      28A     -0.536316    29A     -0.527399    30A     -0.502595
      31A     -0.498635    32A     -0.475257    33A     -0.471215
      34A     -0.466714    35A     -0.447959    36A     -0.438927

  @DF-RHF Final Energy:  -423.12904615250926

   => Energetics <=

    Nuclear Repulsion Energy =            451.9900182615497783
    One-Electron Energy =               -1471.9033240136484437
    Two-Electron Energy =                 596.7842595995898591
    DFT Exchange-Correlation Energy =       0.0000000000000000
    Empirical Dispersion Energy =           0.0000000000000000
    PCM Polarization Energy =               0.0000000000000000
    EFP Energy =                            0.0000000000000000
    Total Energy =                       -423.1290461525088631
    Molecular point group: c1
  Basis Set: CC-PVTZ
  Basis Set:

  -Total Gradient:
     Atom            X                  Y                   Z
    ------   -----------------  -----------------  -----------------
       1        0.000002357850     0.000135864756     0.000001581050
       2       -0.000024742818    -0.000131892695    -0.000074941356
       3        0.000011897619     0.000011897616     0.000048394855
       4        0.000046323268     0.000042322154    -0.000070809888
       5        0.000004110233     0.000010192667    -0.000019763503
       6        0.000008172483    -0.000037339930    -0.000001293885
       7       -0.000022724713     0.000004374477     0.000020932883
       8       -0.000140186495    -0.000273246315     0.000142729599
       9        0.000011807658     0.000063585353    -0.000357147065
      10        0.000084902312     0.000193718894     0.000083464779
      11        0.000022280909     0.000010544647    -0.000042117177
      12       -0.000030977443    -0.000023668203     0.000005426916
      13        0.000010536215    -0.000013352809     0.000253130715
      14       -0.000008348128     0.000003692088     0.000012679054
      15        0.000007533411     0.000012018560     0.000006284369
      16       -0.000001102346    -0.000010253800    -0.000002820018
      17       -0.000006926496     0.000003219382    -0.000002624274
      18        0.000014950778    -0.000003673947     0.000003532962
      19       -0.000000722096     0.000007152648    -0.000005364853
      20        0.000003902935    -0.000006743053     0.000001177981
      21       -0.000002041646    -0.000001152410     0.000003090880
      22        0.000007995966     0.000000923047    -0.000005485671
      23        0.000001000543     0.000001816876    -0.000000058357

  **** Optimization is complete! (in 6 steps) ****
    Final optimized geometry and variables:
    Molecular point group: c1

    Geometry (in Angstrom), charge = 0, multiplicity = 1:

    O           -2.649164361268     1.552561576929     0.555273994861
    C           -2.501165251238     0.377362543226     0.550298694032
    C           -3.639659596514    -0.607014664837     0.553805594602
    O           -1.320798576039    -0.210842294133     0.541480897220
    H           -4.257157365869    -0.421657368083    -0.314860540977
    H           -3.290851145426    -1.627385815329     0.547286454711
    H           -4.245353017960    -0.428980314161     1.432290184489
    C           -0.166915487067     0.623916390235     0.541967656802
    C            1.078410548728    -0.264919244974     0.521686343005
    H           -0.210729687641     1.269476883691    -0.323494592980
    H           -0.200898434951     1.254841952645     1.417532057632
    C            1.988155097355    -0.005187849017    -0.676637059950
    H            0.758667995934    -1.299566312431     0.519630026534
    H            1.641481697049    -0.120277416444     1.437360409310
    C            3.235224401921    -0.883399771679    -0.684854052222
    H            1.425695452239    -0.167826397352    -1.592771420510
    H            2.286626477919     1.040542435602    -0.684349107474
    C            4.141780291656    -0.624295718452    -1.883396486113
    H            2.937135397132    -1.928218223616    -0.677202100693
    H            3.794938668720    -0.720214251499     0.232081827111
    H            3.620756744188    -0.812652338064    -2.816124885692
    H            5.016695610456    -1.263479079123    -1.858813743983
    H            4.484565021852     0.404891264458    -1.899666437709

  Mulliken Charges: (a.u.)
   Center  Symbol    Alpha    Beta     Spin     Total
       1     O     4.20265  4.20265  0.00000 -0.40529
       2     C     2.81087  2.81087  0.00000  0.37825
       3     C     3.13889  3.13889  0.00000 -0.27777
       4     O     4.14642  4.14642  0.00000 -0.29284
       5     H     0.44225  0.44225  0.00000  0.11550
       6     H     0.44225  0.44225  0.00000  0.11551
       7     H     0.44208  0.44208  0.00000  0.11584
       8     C     2.98481  2.98481  0.00000  0.03037
       9     C     3.09224  3.09224  0.00000 -0.18448
      10     H     0.45342  0.45342  0.00000  0.09317
      11     H     0.45061  0.45061  0.00000  0.09877
      12     C     3.09422  3.09422  0.00000 -0.18844
      13     H     0.44522  0.44522  0.00000  0.10957
      14     H     0.44934  0.44934  0.00000  0.10131
      15     C     3.08629  3.08629  0.00000 -0.17258
      16     H     0.45160  0.45160  0.00000  0.09680
      17     H     0.45271  0.45271  0.00000  0.09458
      18     C     3.14947  3.14947  0.00000 -0.29893
      19     H     0.45353  0.45353  0.00000  0.09294
      20     H     0.45398  0.45398  0.00000  0.09204
      21     H     0.45457  0.45457  0.00000  0.09086
      22     H     0.44790  0.44790  0.00000  0.10419
      23     H     0.45467  0.45467  0.00000  0.09065

   Total alpha = 36.00000, Total beta = 36.00000, Total charge = -0.00000

*** Psi4 exiting successfully. Buy a developer a beer!
