  ==> Input File <==

--------------------------------------------------------------------------
set {
	reference rhf
	basis cc-pvtz
}

set_num_threads( 4 )
memory 2 gb

molecule MOL {
0 1

H	 -2.816458	 -0.841657	 -0.064679
N	 -1.878861	 -0.711874	 0.250184
C	 -1.341419	 0.551458	 -0.220231
H	 -1.333674	 -1.468530	 -0.105118
C	 0.082190	 0.731516	 0.254705
H	 -1.357065	 0.652078	 -1.304747
H	 -1.939897	 1.357530	 0.189797
O	 0.939667	 0.088672	 -0.639270
H	 0.323026	 1.792394	 0.306755
H	 0.191618	 0.307832	 1.250419
C	 2.280104	 0.121935	 -0.276858
H	 2.843207	 -0.399087	 -1.037671
H	 2.648262	 1.143421	 -0.208142
H	 2.445956	 -0.368366	 0.679521

	symmetry c1
}
set optking {
	frozen_dihedral = ("
		8 5 3 6
	")
}

ee = optimize('scf')
oeprop('DIPOLE', 'QUADRUPOLE', 'MULLIKEN_CHARGES')
f=open( 'psi4out.xyz', 'w' )
f.write( "14  " )
f.write( str(ee) + "\n" )
f.write( MOL.save_string_xyz() )
f.close()
--------------------------------------------------------------------------

    Molecular point group: c1
  Charge       = 0
  Multiplicity = 1
  Basis Set: CC-PVTZ
  Basis Set:
  @DF-RHF Final Energy:  -248.22400407656889
    Total Energy =                       -248.2240040765689741
    Molecular point group: c1
  Basis Set: CC-PVTZ
  Basis Set:
  Basis Set: CC-PVTZ
  Basis Set:
  @DF-RHF Final Energy:  -248.22425218618963
    Total Energy =                       -248.2242521861893465
  Basis Set: CC-PVTZ
  Basis Set:
  Basis Set: CC-PVTZ
  Basis Set:
  @DF-RHF Final Energy:  -248.22430134149380
    Total Energy =                       -248.2243013414936286
  Basis Set: CC-PVTZ
  Basis Set:
  Basis Set: CC-PVTZ
  Basis Set:
  @DF-RHF Final Energy:  -248.22430285003080
    Total Energy =                       -248.2243028500309947
  Basis Set: CC-PVTZ
  Basis Set:
  Charge       = 0
  Multiplicity = 1
  Basis Set: CC-PVTZ
  Basis Set:

    Orbital Energies (a.u.)
    -----------------------

    Doubly Occupied:

       1A    -20.550391     2A    -15.525699     3A    -11.263365
       4A    -11.263295     5A    -11.239950     6A     -1.383797
       7A     -1.176751     8A     -1.000190     9A     -0.905452
      10A     -0.818559    11A     -0.684778    12A     -0.674017
      13A     -0.648325    14A     -0.615889    15A     -0.602168
      16A     -0.546861    17A     -0.526814    18A     -0.499427
      19A     -0.473447    20A     -0.420369    21A     -0.385155

  @DF-RHF Final Energy:  -248.22430298622359

   => Energetics <=

    Nuclear Repulsion Energy =            193.5862266129434204
    One-Electron Energy =                -721.2116607786964551
    Two-Electron Energy =                 279.4011311795293295
    DFT Exchange-Correlation Energy =       0.0000000000000000
    Empirical Dispersion Energy =           0.0000000000000000
    PCM Polarization Energy =               0.0000000000000000
    EFP Energy =                            0.0000000000000000
    Total Energy =                       -248.2243029862237336
    Molecular point group: c1
  Basis Set: CC-PVTZ
  Basis Set:

  -Total Gradient:
     Atom            X                  Y                   Z
    ------   -----------------  -----------------  -----------------
       1       -0.000011844584    -0.000002092776    -0.000005029281
       2        0.000001933370    -0.000009874053     0.000010868747
       3       -0.000836714440     0.006894863575    -0.000175605352
       4        0.000003812563    -0.000009041072    -0.000000481448
       5       -0.000195419667    -0.005241726728     0.002675564718
       6        0.000744994510    -0.004861604247    -0.000380770512
       7        0.000010801604    -0.000004530794    -0.000001278671
       8        0.000281606004     0.003219313702    -0.002126124408
       9        0.000004345919     0.000005271322    -0.000001403990
      10       -0.000000888569     0.000001813440    -0.000000600858
      11        0.000003481100     0.000011980371     0.000007751509
      12       -0.000010836900     0.000000616856    -0.000001640073
      13        0.000004961516    -0.000000750998    -0.000001944261
      14       -0.000000232417    -0.000004238598     0.000000693878

  **** Optimization is complete! (in 5 steps) ****
    Final optimized geometry and variables:
    Molecular point group: c1

    Geometry (in Angstrom), charge = 0, multiplicity = 1:

    H           -2.840235843938    -0.983642818203     0.067441914368
    N           -1.896822311050    -0.861614149087     0.369487669687
    C           -1.372134860446     0.421874969038    -0.077113403933
    H           -1.363680523267    -1.605665080714    -0.030732285776
    C            0.058468104504     0.602966059246     0.388254614733
    H           -1.378650696032     0.508332257995    -1.161153039176
    H           -1.988078106597     1.208230801418     0.340898598509
    O            0.909165101290    -0.057624031337    -0.501149808633
    H            0.310992543474     1.662403405206     0.409405479494
    H            0.170196374378     0.208750273353     1.394719542502
    C            2.251158896813    -0.021999322284    -0.145191529503
    H            2.810188396070    -0.550651553093    -0.903757027510
    H            2.620017222949     1.000097012368    -0.088246874872
    H            2.422695983494    -0.502414710923     0.815309303151

  Mulliken Charges: (a.u.)
   Center  Symbol    Alpha    Beta     Spin     Total
       1     H     0.43007  0.43007  0.00000  0.13985
       2     N     3.69517  3.69517  0.00000 -0.39035
       3     C     3.02194  3.02194  0.00000 -0.04387
       4     H     0.42497  0.42497  0.00000  0.15007
       5     C     2.97315  2.97315  0.00000  0.05370
       6     H     0.46159  0.46159  0.00000  0.07681
       7     H     0.45719  0.45719  0.00000  0.08561
       8     O     4.17776  4.17776  0.00000 -0.35552
       9     H     0.47017  0.47017  0.00000  0.05965
      10     H     0.46682  0.46682  0.00000  0.06635
      11     C     3.03178  3.03178  0.00000 -0.06356
      12     H     0.44758  0.44758  0.00000  0.10484
      13     H     0.47171  0.47171  0.00000  0.05659
      14     H     0.47009  0.47009  0.00000  0.05983

   Total alpha = 21.00000, Total beta = 21.00000, Total charge = -0.00000
