  ==> Input File <==

--------------------------------------------------------------------------
set {
	reference rhf
	basis 6-31G*
}

set_num_threads( 1 )
memory 2 gb

molecule MOL {
0 1

H	 1.074631	 -1.200010	 -0.478972
O	 1.261547	 -0.349576	 -0.852706
C	 0.709265	 0.639550	 -0.033818
C	 -0.793441	 0.596080	 0.058728
H	 1.020883	 1.588943	 -0.454234
H	 1.130427	 0.590717	 0.969807
C	 -1.530462	 -0.493172	 -0.025500
H	 -1.268471	 1.554324	 0.202247
H	 -1.092586	 -1.461565	 -0.186463
H	 -2.602122	 -0.450675	 0.050101

	symmetry c1
}
set optking {
	frozen_dihedral = ("
		5 3 2 1,
		3 4 7 9
	")
}

ee = energy('scf')
oeprop('DIPOLE', 'QUADRUPOLE', 'MULLIKEN_CHARGES')
f=open( 'psi4out.xyz', 'w' )
f.write( "10  " )
f.write( str(ee) + "\n" )
f.write( MOL.save_string_xyz() )
f.close()
--------------------------------------------------------------------------

    Molecular point group: c1

    Geometry (in Angstrom), charge = 0, multiplicity = 1:

       Center              X                  Y                   Z               Mass
    ------------   -----------------  -----------------  -----------------  -----------------
           H          1.090966646564    -1.267972268756    -0.245644698177     1.007825032070
           O          1.277882646564    -0.417538268756    -0.619378698177    15.994914619560
           C          0.725600646564     0.571587731244     0.199509301823    12.000000000000
           C         -0.777105353436     0.528117731244     0.292055301823    12.000000000000
           H          1.037218646564     1.520980731244    -0.220906698177     1.007825032070
           H          1.146762646564     0.522754731244     1.203134301823     1.007825032070
           C         -1.514126353436    -0.561134268756     0.207827301823    12.000000000000
           H         -1.252135353436     1.486361731244     0.435574301823     1.007825032070
           H         -1.076250353436    -1.529527268756     0.046864301823     1.007825032070
           H         -2.585786353436    -0.518637268756     0.283428301823     1.007825032070

  Charge       = 0
  Multiplicity = 1
  Basis Set: 6-31G*
  Basis Set:

    Orbital Energies (a.u.)
    -----------------------

    Doubly Occupied:

       1A    -20.559497     2A    -11.277819     3A    -11.232740
       4A    -11.223790     5A     -1.368454     6A     -1.060428
       7A     -0.929896     8A     -0.767945     9A     -0.696870
      10A     -0.657553    11A     -0.622003    12A     -0.569302
      13A     -0.531318    14A     -0.504071    15A     -0.442541
      16A     -0.367248

  @DF-RHF Final Energy:  -191.91261098682259

   => Energetics <=

    Nuclear Repulsion Energy =            119.2157976172528180
    One-Electron Energy =                -496.6338622557775011
    Two-Electron Energy =                 185.5054536517022825
    DFT Exchange-Correlation Energy =       0.0000000000000000
    Empirical Dispersion Energy =           0.0000000000000000
    PCM Polarization Energy =               0.0000000000000000
    EFP Energy =                            0.0000000000000000
    Total Energy =                       -191.9126109868224148

  Mulliken Charges: (a.u.)
   Center  Symbol    Alpha    Beta     Spin     Total
       1     H     0.27947  0.27947  0.00000  0.44106
       2     O     4.36397  4.36397  0.00000 -0.72794
       3     C     3.00764  3.00764  0.00000 -0.01528
       4     C     3.08182  3.08182  0.00000 -0.16365
       5     H     0.41110  0.41110  0.00000  0.17780
       6     H     0.42256  0.42256  0.00000  0.15488
       7     C     3.19684  3.19684  0.00000 -0.39368
       8     H     0.40785  0.40785  0.00000  0.18430
       9     H     0.42084  0.42084  0.00000  0.15831
      10     H     0.40791  0.40791  0.00000  0.18418

   Total alpha = 16.00000, Total beta = 16.00000, Total charge =  0.00000
