  ==> Input File <==

--------------------------------------------------------------------------
set {
	reference rhf
	basis 6-31G*
}

set_num_threads( 1 )
memory 2 gb

molecule MOL {
0 1

H	 3.729471	 -0.928294	 -0.070608
O	 2.826016	 -1.159218	 0.122261
C	 2.077727	 -0.067559	 -0.035091
C	 0.624473	 -0.343591	 0.253101
O	 2.542965	 0.974826	 -0.363729
C	 -0.265902	 0.883932	 0.072916
H	 0.324016	 -1.163849	 -0.390541
H	 0.565024	 -0.726111	 1.268924
C	 -1.728698	 0.646073	 0.462102
H	 -0.209144	 1.219470	 -0.958188
H	 0.135059	 1.692851	 0.673903
C	 -2.057231	 -0.785058	 0.896713
H	 -2.350634	 0.899639	 -0.393270
H	 -2.010808	 1.337254	 1.255096
C	 -3.547068	 -0.987656	 1.172063
H	 -1.736119	 -1.477430	 0.121115
H	 -1.495598	 -1.044402	 1.790408
H	 -3.754857	 -2.007703	 1.479702
H	 -4.140896	 -0.781301	 0.286278
H	 -3.892874	 -0.327024	 1.962139

	symmetry c1
}
set optking {
	frozen_dihedral = ("
		16 12 9 6,
		7 4 6 10,
		5 3 4 7,
		1 2 3 5
	")
}

ee = energy('scf')
oeprop('DIPOLE', 'QUADRUPOLE', 'MULLIKEN_CHARGES')
f=open( 'psi4out.xyz', 'w' )
f.write( "20  " )
f.write( str(ee) + "\n" )
f.write( MOL.save_string_xyz() )
f.close()
--------------------------------------------------------------------------

    Molecular point group: c1

    Geometry (in Angstrom), charge = 0, multiplicity = 1:

       Center              X                  Y                   Z               Mass
    ------------   -----------------  -----------------  -----------------  -----------------
           H          3.624697127636    -0.806585135710    -0.390026721283     1.007825032070
           O          2.721242127636    -1.037509135710    -0.197157721283    15.994914619560
           C          1.972953127636     0.054149864290    -0.354509721283    12.000000000000
           C          0.519699127636    -0.221882135710    -0.066317721283    12.000000000000
           O          2.438191127636     1.096534864290    -0.683147721283    15.994914619560
           C         -0.370675872364     1.005640864290    -0.246502721283    12.000000000000
           H          0.219242127636    -1.042140135710    -0.709959721283     1.007825032070
           H          0.460250127636    -0.604402135710     0.949505278717     1.007825032070
           C         -1.833471872364     0.767781864290     0.142683278717    12.000000000000
           H         -0.313917872364     1.341178864290    -1.277606721283     1.007825032070
           H          0.030285127636     1.814559864290     0.354484278717     1.007825032070
           C         -2.162004872364    -0.663349135710     0.577294278717    12.000000000000
           H         -2.455407872364     1.021347864290    -0.712688721283     1.007825032070
           H         -2.115581872364     1.458962864290     0.935677278717     1.007825032070
           C         -3.651841872364    -0.865947135710     0.852644278717    12.000000000000
           H         -1.840892872364    -1.355721135710    -0.198303721283     1.007825032070
           H         -1.600371872364    -0.922693135710     1.470989278717     1.007825032070
           H         -3.859630872364    -1.885994135710     1.160283278717     1.007825032070
           H         -4.245669872364    -0.659592135710    -0.033140721283     1.007825032070
           H         -3.997647872364    -0.205315135710     1.642720278717     1.007825032070

  Charge       = 0
  Multiplicity = 1
  Basis Set: 6-31G*
  Basis Set:

    Orbital Energies (a.u.)
    -----------------------

    Doubly Occupied:

       1A    -20.611837     2A    -20.550534     3A    -11.379911
       4A    -11.239154     5A    -11.221356     6A    -11.221266
       7A    -11.218724     8A    -11.212359     9A     -1.473765
      10A     -1.364746    11A     -1.098671    12A     -1.037727
      13A     -0.961808    14A     -0.869172    15A     -0.825437
      16A     -0.764140    17A     -0.698896    18A     -0.688340
      19A     -0.672333    20A     -0.636903    21A     -0.596356
      22A     -0.591220    23A     -0.582870    24A     -0.547674
      25A     -0.544400    26A     -0.518885    27A     -0.501459
      28A     -0.478011    29A     -0.471397    30A     -0.458625
      31A     -0.451301    32A     -0.442907

  @DF-RHF Final Energy:  -383.93794514619981

   => Energetics <=

    Nuclear Repulsion Energy =            379.5358279884915191
    One-Electron Energy =               -1275.0831608599164610
    Two-Electron Energy =                 511.6093877252255311
    DFT Exchange-Correlation Energy =       0.0000000000000000
    Empirical Dispersion Energy =           0.0000000000000000
    PCM Polarization Energy =               0.0000000000000000
    EFP Energy =                            0.0000000000000000
    Total Energy =                       -383.9379451461994108

  Mulliken Charges: (a.u.)
   Center  Symbol    Alpha    Beta     Spin     Total
       1     H     0.26787  0.26787  0.00000  0.46426
       2     O     4.35154  4.35154  0.00000 -0.70309
       3     C     2.62085  2.62085  0.00000  0.75829
       4     C     3.21846  3.21846  0.00000 -0.43691
       5     O     4.27922  4.27922  0.00000 -0.55844
       6     C     3.15612  3.15612  0.00000 -0.31224
       7     H     0.39708  0.39708  0.00000  0.20584
       8     H     0.39712  0.39712  0.00000  0.20577
       9     C     3.15651  3.15651  0.00000 -0.31302
      10     H     0.40945  0.40945  0.00000  0.18110
      11     H     0.40742  0.40742  0.00000  0.18515
      12     C     3.15917  3.15917  0.00000 -0.31833
      13     H     0.41888  0.41888  0.00000  0.16225
      14     H     0.41829  0.41829  0.00000  0.16342
      15     C     3.23726  3.23726  0.00000 -0.47452
      16     H     0.42235  0.42235  0.00000  0.15529
      17     H     0.42184  0.42184  0.00000  0.15633
      18     H     0.41866  0.41866  0.00000  0.16267
      19     H     0.42096  0.42096  0.00000  0.15808
      20     H     0.42096  0.42096  0.00000  0.15809

   Total alpha = 32.00000, Total beta = 32.00000, Total charge =  0.00000
