  ==> Input File <==

--------------------------------------------------------------------------
set {
	reference rhf
	basis cc-pvtz
}

set_num_threads( 4 )
memory 2 gb

molecule MOL {
0 1

H	 3.889604	 0.356866	 -0.089510
N	 3.091268	 -0.241216	 -0.065538
C	 1.860978	 0.530248	 0.016256
H	 3.192566	 -0.835836	 0.730398
C	 0.644130	 -0.381765	 -0.031064
H	 1.835721	 1.204666	 -0.833114
H	 1.808789	 1.151975	 0.911067
C	 -0.678115	 0.376691	 0.025731
H	 0.693998	 -0.977147	 -0.936845
H	 0.693309	 -1.082142	 0.800523
C	 -1.376857	 0.475437	 -1.327492
H	 -0.501434	 1.379007	 0.409267
H	 -1.344465	 -0.106913	 0.736349
C	 -2.695095	 1.239863	 -1.267702
H	 -0.712592	 0.957882	 -2.039033
H	 -1.558002	 -0.524917	 -1.711223
H	 -2.542645	 2.256392	 -0.920330
H	 -3.164254	 1.291420	 -2.243529
H	 -3.394518	 0.762062	 -0.589580

	symmetry c1
}
set optking {
	frozen_dihedral = ("
		12 8 5 9
	")
}

ee = optimize('scf')
oeprop('DIPOLE', 'QUADRUPOLE', 'MULLIKEN_CHARGES')
f=open( 'psi4out.xyz', 'w' )
f.write( "19  " )
f.write( str(ee) + "\n" )
f.write( MOL.save_string_xyz() )
f.close()
--------------------------------------------------------------------------

    Molecular point group: c1
  Charge       = 0
  Multiplicity = 1
  Basis Set: CC-PVTZ
  Basis Set:
  @DF-RHF Final Energy:  -251.44360797139325
    Total Energy =                       -251.4436079713931349
    Molecular point group: c1
  Basis Set: CC-PVTZ
  Basis Set:
  Basis Set: CC-PVTZ
  Basis Set:
  @DF-RHF Final Energy:  -251.44389180964299
    Total Energy =                       -251.4438918096428779
  Basis Set: CC-PVTZ
  Basis Set:
  Basis Set: CC-PVTZ
  Basis Set:
  @DF-RHF Final Energy:  -251.44395349423172
    Total Energy =                       -251.4439534942314936
  Basis Set: CC-PVTZ
  Basis Set:
  Charge       = 0
  Multiplicity = 1
  Basis Set: CC-PVTZ
  Basis Set:

    Orbital Energies (a.u.)
    -----------------------

    Doubly Occupied:

       1A    -15.526477     2A    -11.238304     3A    -11.211521
       4A    -11.210360     5A    -11.207566     6A    -11.205010
       7A     -1.178406     8A     -1.072754     9A     -0.997705
      10A     -0.900090    11A     -0.819866    12A     -0.785496
      13A     -0.661588    14A     -0.635644    15A     -0.626543
      16A     -0.588556    17A     -0.570766    18A     -0.549219
      19A     -0.526462    20A     -0.499145    21A     -0.486197
      22A     -0.465168    23A     -0.453698    24A     -0.449313
      25A     -0.384083

  @DF-RHF Final Energy:  -251.44395429830237

   => Energetics <=

    Nuclear Repulsion Energy =            247.9512418738800363
    One-Electron Energy =                -830.2905182230822447
    Two-Electron Energy =                 330.8953220508995514
    DFT Exchange-Correlation Energy =       0.0000000000000000
    Empirical Dispersion Energy =           0.0000000000000000
    PCM Polarization Energy =               0.0000000000000000
    EFP Energy =                            0.0000000000000000
    Total Energy =                       -251.4439542983026854
    Molecular point group: c1
  Basis Set: CC-PVTZ
  Basis Set:

  -Total Gradient:
     Atom            X                  Y                   Z
    ------   -----------------  -----------------  -----------------
       1        0.000030363607    -0.000012783581     0.000000556571
       2        0.000064877764     0.000002788639     0.000001392006
       3       -0.000066329637    -0.000047104923     0.000007503234
       4        0.000010559956     0.000008775210    -0.000000463444
       5       -0.001232242028    -0.002219740936     0.000926317386
       6        0.000006677700    -0.000007943564     0.000013655232
       7        0.000001482827     0.000038996772    -0.000001969692
       8       -0.000273015676    -0.000591551016     0.002642366908
       9        0.001062837367     0.001982106827    -0.001244194769
      10       -0.000013885007     0.000035664198    -0.000007487373
      11       -0.000009984307    -0.000112716597     0.000052595397
      12        0.000409494293     0.000868633215    -0.002329823262
      13        0.000005331048    -0.000003694743    -0.000035542428
      14        0.000018966001     0.000066984235    -0.000004123095
      15       -0.000002037039    -0.000019122452    -0.000003978137
      16       -0.000014187505    -0.000004556240    -0.000010980681
      17       -0.000020673090     0.000007278011     0.000013104407
      18        0.000005405009     0.000016902784    -0.000005412545
      19        0.000016358718    -0.000008915834    -0.000013515717

  **** Optimization is complete! (in 4 steps) ****
    Final optimized geometry and variables:
    Molecular point group: c1

    Geometry (in Angstrom), charge = 0, multiplicity = 1:

    H            3.697509103076     0.068771242715     0.284101488521
    N            2.911651697449    -0.545384065484     0.314881020439
    C            1.670404721925     0.196684153670     0.462701721687
    H            3.051179129782    -1.163857629561     1.086590044463
    C            0.468819463969    -0.740340422376     0.441063286639
    H            1.598026309376     0.891378201931    -0.367877632118
    H            1.638697207674     0.795167588185     1.374044017442
    C           -0.874171584094     0.007831511733     0.482849103595
    H            0.538267476113    -1.336992085481    -0.461504942811
    H            0.546541144608    -1.425705585862     1.279749913239
    C           -1.545901125037     0.119954848920    -0.885609370646
    H           -0.717787995961     1.013153255853     0.865896450764
    H           -1.557034523338    -0.480755380022     1.169782720028
    C           -2.837843629276     0.929005372479    -0.855011145925
    H           -0.853611936969     0.572850401255    -1.590344382228
    H           -1.752994605953    -0.877218005991    -1.263290129438
    H           -2.656910000556     1.944370367714    -0.517803179813
    H           -3.291328563220     0.983436588564    -1.838122367563
    H           -3.562328111218     0.483342210855    -0.181195578214

  Mulliken Charges: (a.u.)
   Center  Symbol    Alpha    Beta     Spin     Total
       1     H     0.43022  0.43022  0.00000  0.13956
       2     N     3.68992  3.68992  0.00000 -0.37983
       3     C     3.02334  3.02334  0.00000 -0.04669
       4     H     0.43095  0.43095  0.00000  0.13810
       5     C     3.09203  3.09203  0.00000 -0.18405
       6     H     0.45688  0.45688  0.00000  0.08624
       7     H     0.46819  0.46819  0.00000  0.06362
       8     C     3.10177  3.10177  0.00000 -0.20355
       9     H     0.44967  0.44967  0.00000  0.10067
      10     H     0.45305  0.45305  0.00000  0.09391
      11     C     3.08126  3.08126  0.00000 -0.16252
      12     H     0.45733  0.45733  0.00000  0.08534
      13     H     0.44780  0.44780  0.00000  0.10441
      14     C     3.15056  3.15056  0.00000 -0.30113
      15     H     0.45402  0.45402  0.00000  0.09195
      16     H     0.45346  0.45346  0.00000  0.09307
      17     H     0.45563  0.45563  0.00000  0.08874
      18     H     0.44853  0.44853  0.00000  0.10294
      19     H     0.45539  0.45539  0.00000  0.08922

   Total alpha = 25.00000, Total beta = 25.00000, Total charge = -0.00000
