                              Psi4 1.0.54 Driver

  ==> Input File <==

--------------------------------------------------------------------------
set {
	reference rhf
	basis cc-pvtz
}

set_num_threads( 4 )
memory 2 gb

molecule MOL {
0 1

H	 -3.162190	 0.493205	 -0.000107
C	 -2.363908	 -0.234727	 0.000005
O	 -1.158738	 0.454634	 -0.000087
H	 -2.464314	 -0.863616	 -0.882153
H	 -2.464327	 -0.863359	 0.882345
C	 -0.028611	 -0.359694	 0.000037
C	 1.212847	 0.509314	 -0.000053
H	 -0.034155	 -1.007047	 -0.877198
H	 -0.034195	 -1.006836	 0.877430
C	 0.887671	 1.989308	 0.167962
H	 1.866810	 0.177495	 0.798792
H	 1.747605	 0.347564	 -0.929474
H	 0.373049	 2.177221	 1.104412
H	 1.791423	 2.586168	 0.164511
H	 0.253304	 2.348496	 -0.635549

	symmetry c1
}
set optking {
	frozen_dihedral = ("
		11 7 6 8
	")
}

ee,wfn = optimize('scf', return_wfn=True)
oeprop( wfn, 'DIPOLE', 'QUADRUPOLE', 'MULLIKEN_CHARGES')
f=open( 'psi4out.xyz', 'w' )
f.write( "15  " )
f.write( str(ee) + "\n" )
f.write( MOL.save_string_xyz() )
f.close()
--------------------------------------------------------------------------

    Molecular point group: c1
  Charge       = 0
  Multiplicity = 1
  Basis Set: CC-PVTZ
  Basis Set:
  @DF-RHF Final Energy:  -232.21815128471010
    Total Energy =                       -232.2181512847101885
    Molecular point group: c1
  Basis Set: CC-PVTZ
  Basis Set:
  Basis Set: CC-PVTZ
  Basis Set:
  @DF-RHF Final Energy:  -232.21862566025180
    Total Energy =                       -232.2186256602518029
  Basis Set: CC-PVTZ
  Basis Set:
  Basis Set: CC-PVTZ
  Basis Set:
  @DF-RHF Final Energy:  -232.21994162306592
    Total Energy =                       -232.2199416230660063
  Basis Set: CC-PVTZ
  Basis Set:
  Basis Set: CC-PVTZ
  Basis Set:
  @DF-RHF Final Energy:  -232.21999569768005
    Total Energy =                       -232.2199956976801332
  Basis Set: CC-PVTZ
  Basis Set:
  Basis Set: CC-PVTZ
  Basis Set:
  @DF-RHF Final Energy:  -232.21999881843931
    Total Energy =                       -232.2199988184392510
  Basis Set: CC-PVTZ
  Basis Set:
  Charge       = 0
  Multiplicity = 1
  Basis Set: CC-PVTZ
  Basis Set:

    Orbital Energies (a.u.)
    -----------------------

    Doubly Occupied:

       1A    -20.547380     2A    -11.265600     3A    -11.262149
       4A    -11.214233     5A    -11.199143     6A     -1.381967
       7A     -1.048927     8A     -0.949325     9A     -0.890128
      10A     -0.793399    11A     -0.675803    12A     -0.656939
      13A     -0.635281    14A     -0.603761    15A     -0.552674
      16A     -0.541371    17A     -0.505114    18A     -0.480010
      19A     -0.476458    20A     -0.461870    21A     -0.411022

  @DF-RHF Final Energy:  -232.21999902356711

   => Energetics <=

    Nuclear Repulsion Energy =            193.5142443013544664
    One-Electron Energy =                -698.3633855393297836
    Two-Electron Energy =                 272.6291422144081480
    DFT Exchange-Correlation Energy =       0.0000000000000000
    Empirical Dispersion Energy =           0.0000000000000000
    PCM Polarization Energy =               0.0000000000000000
    EFP Energy =                            0.0000000000000000
    Total Energy =                       -232.2199990235671976
    Molecular point group: c1
  Basis Set: CC-PVTZ
  Basis Set:

  -Total Gradient:
     Atom            X                  Y                   Z
    ------   -----------------  -----------------  -----------------
       1        0.000013538072     0.000008039457    -0.000000495784
       2        0.000001903621    -0.000008551419     0.000001439769
       3        0.000002721639     0.000005953955    -0.000005764368
       4        0.000006316693     0.000003386939    -0.000001390422
       5        0.000004748676     0.000001678065     0.000001370076
       6        0.001198363793    -0.001702432185     0.001926825195
       7        0.001077160064    -0.001480957334    -0.002132838710
       8       -0.001200296102     0.001662791818    -0.001296364187
       9        0.000030489597    -0.000014118338     0.000006438519
      10        0.000001913092    -0.000019493173     0.000030818472
      11       -0.001135093503     0.001534409658     0.001499443630
      12        0.000006784128    -0.000014349164    -0.000004022655
      13        0.000007930838     0.000007850047    -0.000003679588
      14        0.000001916910     0.000010885900    -0.000013174416
      15       -0.000018397518     0.000004905772    -0.000008605531

  **** Optimization is complete! (in 6 steps) ****
    Final optimized geometry and variables:
    Molecular point group: c1

    Geometry (in Angstrom), charge = 0, multiplicity = 1:

    H           -2.878915725243    -0.131874366847    -0.090230801322
    C           -2.038091134189    -0.809984152663    -0.064037405071
    O           -0.877622219616    -0.049784069224    -0.052353407610
    H           -2.083363524527    -1.457100375429    -0.937771928727
    H           -2.117644505375    -1.431403268452     0.825766078130
    C            0.296528392060    -0.803522735497    -0.015909709550
    C            1.541019768804     0.104613388651    -0.018372823198
    H            0.315846266984    -1.459654002348    -0.883817344189
    H            0.291389846726    -1.434661816365     0.870365021651
    C            1.254426014847     1.595746375498     0.149856461540
    H            2.192993576909    -0.204709778585     0.791007283107
    H            2.093429372921    -0.045583420684    -0.938537865725
    H            0.735359653842     1.797407309398     1.077963259255
    H            2.188302187714     2.146761021932     0.158529422744
    H            0.642699522037     1.976785688300    -0.656023113123

  Mulliken Charges: (a.u.)
   Center  Symbol    Alpha    Beta     Spin     Total
       1     H     0.44788  0.44788  0.00000  0.10423
       2     C     3.03293  3.03293  0.00000 -0.06587
       3     O     4.16923  4.16923  0.00000 -0.33845
       4     H     0.47205  0.47205  0.00000  0.05590
       5     H     0.47201  0.47201  0.00000  0.05599
       6     C     2.96504  2.96504  0.00000  0.06992
       7     C     3.09780  3.09780  0.00000 -0.19560
       8     H     0.47126  0.47126  0.00000  0.05748
       9     H     0.47235  0.47235  0.00000  0.05530
      10     C     3.13786  3.13786  0.00000 -0.27573
      11     H     0.45333  0.45333  0.00000  0.09333
      12     H     0.45203  0.45203  0.00000  0.09594
      13     H     0.45282  0.45282  0.00000  0.09436
      14     H     0.45360  0.45360  0.00000  0.09280
      15     H     0.44982  0.44982  0.00000  0.10037

   Total alpha = 21.00000, Total beta = 21.00000, Total charge = -0.00000

*** Psi4 exiting successfully. Buy a developer a beer!
