  ==> Input File <==

--------------------------------------------------------------------------
set {
	reference rhf
	basis 6-31G*
}

set_num_threads( 1 )
memory 2 gb

molecule MOL {
0 1

O	 -2.484891	 0.825418	 -0.763388
C	 -1.921153	 0.064240	 -0.045697
C	 -2.563498	 -1.109336	 0.643114
O	 -0.632575	 0.154573	 0.251549
H	 -2.453643	 -1.008873	 1.716793
H	 -3.609936	 -1.155278	 0.381020
H	 -2.065692	 -2.025297	 0.346532
C	 0.160891	 -1.019931	 0.106212
C	 1.589627	 -0.672828	 0.480843
H	 0.089836	 -1.367806	 -0.916050
H	 -0.238459	 -1.792301	 0.749618
C	 2.246377	 0.346236	 -0.452210
H	 2.163194	 -1.597435	 0.473358
H	 1.604769	 -0.303424	 1.502885
C	 3.691736	 0.652107	 -0.061850
H	 2.219579	 -0.032311	 -1.472055
H	 1.666466	 1.263317	 -0.447249
H	 4.134505	 1.377213	 -0.737283
H	 4.305508	 -0.243868	 -0.089969
H	 3.748266	 1.059562	 0.943567

	symmetry c1
}
set optking {
	frozen_dihedral = ("
		16 12 9 8,
		2 4 8 10,
		12 9 8 10
	")
}

ee = energy('scf')
oeprop('DIPOLE', 'QUADRUPOLE', 'MULLIKEN_CHARGES')
f=open( 'psi4out.xyz', 'w' )
f.write( "20  " )
f.write( str(ee) + "\n" )
f.write( MOL.save_string_xyz() )
f.close()
--------------------------------------------------------------------------

    Molecular point group: c1

    Geometry (in Angstrom), charge = 0, multiplicity = 1:

       Center              X                  Y                   Z               Mass
    ------------   -----------------  -----------------  -----------------  -----------------
           O         -2.486950222662     0.920791961709    -0.783446541916    15.994914619560
           C         -1.923212222662     0.159613961709    -0.065755541916    12.000000000000
           C         -2.565557222662    -1.013962038291     0.623055458084    12.000000000000
           O         -0.634634222662     0.249946961709     0.231490458084    15.994914619560
           H         -2.455702222662    -0.913499038291     1.696734458084     1.007825032070
           H         -3.611995222662    -1.059904038291     0.360961458084     1.007825032070
           H         -2.067751222662    -1.929923038291     0.326473458084     1.007825032070
           C          0.158831777338    -0.924557038291     0.086153458084    12.000000000000
           C          1.587567777338    -0.577454038291     0.460784458084    12.000000000000
           H          0.087776777338    -1.272432038291    -0.936108541916     1.007825032070
           H         -0.240518222662    -1.696927038291     0.729559458084     1.007825032070
           C          2.244317777338     0.441609961709    -0.472268541916    12.000000000000
           H          2.161134777338    -1.502061038291     0.453299458084     1.007825032070
           H          1.602709777338    -0.208050038291     1.482826458084     1.007825032070
           C          3.689676777338     0.747480961709    -0.081908541916    12.000000000000
           H          2.217519777338     0.063062961709    -1.492113541916     1.007825032070
           H          1.664406777338     1.358690961709    -0.467307541916     1.007825032070
           H          4.132445777338     1.472586961709    -0.757341541916     1.007825032070
           H          4.303448777338    -0.148494038291    -0.110027541916     1.007825032070
           H          3.746206777338     1.154935961709     0.923508458084     1.007825032070

  Charge       = 0
  Multiplicity = 1
  Basis Set: 6-31G*
  Basis Set:

    Orbital Energies (a.u.)
    -----------------------

    Doubly Occupied:

       1A    -20.593534     2A    -20.549982     3A    -11.376207
       4A    -11.298702     5A    -11.236037     6A    -11.232163
       7A    -11.220952     8A    -11.213752     9A     -1.464066
      10A     -1.368662    11A     -1.087507    12A     -1.020036
      13A     -0.999897    14A     -0.889885    15A     -0.813117
      16A     -0.783037    17A     -0.697184    18A     -0.690071
      19A     -0.657963    20A     -0.640166    21A     -0.615992
      22A     -0.591377    23A     -0.577426    24A     -0.565814
      25A     -0.545581    26A     -0.529472    27A     -0.505820
      28A     -0.488227    29A     -0.477524    30A     -0.473328
      31A     -0.451957    32A     -0.434559

  @DF-RHF Final Energy:  -383.92163980423913

   => Energetics <=

    Nuclear Repulsion Energy =            386.2869386919900307
    One-Electron Energy =               -1288.2372388465503263
    Two-Electron Energy =                 518.0286603503210472
    DFT Exchange-Correlation Energy =       0.0000000000000000
    Empirical Dispersion Energy =           0.0000000000000000
    PCM Polarization Energy =               0.0000000000000000
    EFP Energy =                            0.0000000000000000
    Total Energy =                       -383.9216398042392484

  Mulliken Charges: (a.u.)
   Center  Symbol    Alpha    Beta     Spin     Total
       1     O     4.25983  4.25983  0.00000 -0.51967
       2     C     2.61721  2.61721  0.00000  0.76557
       3     C     3.30619  3.30619  0.00000 -0.61239
       4     O     4.30498  4.30498  0.00000 -0.60997
       5     H     0.39878  0.39878  0.00000  0.20245
       6     H     0.39361  0.39361  0.00000  0.21277
       7     H     0.40422  0.40422  0.00000  0.19156
       8     C     3.01141  3.01141  0.00000 -0.02282
       9     C     3.16139  3.16139  0.00000 -0.32277
      10     H     0.41381  0.41381  0.00000  0.17238
      11     H     0.41515  0.41515  0.00000  0.16970
      12     C     3.15614  3.15614  0.00000 -0.31227
      13     H     0.41929  0.41929  0.00000  0.16143
      14     H     0.41163  0.41163  0.00000  0.17674
      15     C     3.24116  3.24116  0.00000 -0.48233
      16     H     0.42290  0.42290  0.00000  0.15419
      17     H     0.40334  0.40334  0.00000  0.19331
      18     H     0.41584  0.41584  0.00000  0.16833
      19     H     0.42297  0.42297  0.00000  0.15406
      20     H     0.42014  0.42014  0.00000  0.15973

   Total alpha = 32.00000, Total beta = 32.00000, Total charge = -0.00000
