  ==> Input File <==

--------------------------------------------------------------------------
set {
	reference rhf
	basis 6-31G*
}

set_num_threads( 4 )
memory 2 gb

molecule MOL {
0 1

H	 2.591676	 2.013956	 0.335017
O	 3.341076	 1.666752	 -0.126416
C	 3.569581	 0.339145	 0.272707
C	 2.539767	 -0.640285	 -0.279495
H	 4.553106	 0.084646	 -0.100901
H	 3.608576	 0.269204	 1.359154
C	 2.608205	 -0.825308	 -1.797372
H	 2.678441	 -1.599873	 0.211757
H	 1.549327	 -0.282535	 -0.003073
C	 1.527498	 -1.772091	 -2.326986
H	 3.588966	 -1.207350	 -2.066661
H	 2.504255	 0.143933	 -2.285335
C	 1.497307	 -1.925994	 -3.852025
H	 1.653745	 -2.751419	 -1.868918
H	 0.556558	 -1.407250	 -1.998552
C	 2.725458	 -2.613583	 -4.454805
H	 0.612456	 -2.499558	 -4.120131
H	 1.371600	 -0.945926	 -4.309737
C	 2.602206	 -2.838759	 -5.963295
H	 2.878872	 -3.572021	 -3.960870
H	 3.617963	 -2.023956	 -4.259669
C	 3.829524	 -3.519172	 -6.568599
H	 1.719271	 -3.440998	 -6.166327
H	 2.439157	 -1.883251	 -6.457568
H	 4.000502	 -4.492597	 -6.117564
H	 3.710897	 -3.666536	 -7.637639
H	 4.724684	 -2.923074	 -6.414589

	symmetry c1
}
set optking {
	frozen_dihedral = ("
		8 4 3 2
	")
}

ee = optimize('scf')
oeprop('DIPOLE', 'QUADRUPOLE', 'MULLIKEN_CHARGES')
f=open( 'psi4out.xyz', 'w' )
f.write( "27  " )
f.write( str(ee) + "\n" )
f.write( MOL.save_string_xyz() )
f.close()
--------------------------------------------------------------------------

    Molecular point group: c1
  Charge       = 0
  Multiplicity = 1
  Basis Set: 6-31G*
  Basis Set:
  @DF-RHF Final Energy:  -388.28180076329204
    Total Energy =                       -388.2818007632920398
    Molecular point group: c1
  Basis Set: 6-31G*
  Basis Set:
  Basis Set: 6-31G*
  Basis Set:
  @DF-RHF Final Energy:  -388.28203165713944
    Total Energy =                       -388.2820316571392141
  Basis Set: 6-31G*
  Basis Set:
  Basis Set: 6-31G*
  Basis Set:
  @DF-RHF Final Energy:  -388.28206000699282
    Total Energy =                       -388.2820600069921966
  Basis Set: 6-31G*
  Basis Set:
  Basis Set: 6-31G*
  Basis Set:
  @DF-RHF Final Energy:  -388.28205640339996
    Total Energy =                       -388.2820564034002473
  Basis Set: 6-31G*
  Basis Set:
  Basis Set: 6-31G*
  Basis Set:
  @DF-RHF Final Energy:  -388.28206167843842
    Total Energy =                       -388.2820616784382537
  Basis Set: 6-31G*
  Basis Set:
  Charge       = 0
  Multiplicity = 1
  Basis Set: 6-31G*
  Basis Set:

    Orbital Energies (a.u.)
    -----------------------

    Doubly Occupied:

       1A    -20.553156     2A    -11.267612     3A    -11.217505
       4A    -11.213231     5A    -11.212981     6A    -11.211824
       7A    -11.211186     8A    -11.210557     9A    -11.206767
      10A     -1.359880    11A     -1.091356    12A     -1.058858
      13A     -1.009506    14A     -0.944746    15A     -0.883434
      16A     -0.821174    17A     -0.801601    18A     -0.775072
      19A     -0.679896    20A     -0.651047    21A     -0.638568
      22A     -0.611637    23A     -0.606531    24A     -0.583818
      25A     -0.571182    26A     -0.556584    27A     -0.537195
      28A     -0.517163    29A     -0.512202    30A     -0.489965
      31A     -0.479276    32A     -0.472387    33A     -0.464324
      34A     -0.456670    35A     -0.454826    36A     -0.439994
      37A     -0.419472

  @DF-RHF Final Energy:  -388.28206266409558

   => Energetics <=

    Nuclear Repulsion Energy =            458.2130185957477693
    One-Electron Energy =               -1434.6037976116931532
    Two-Electron Energy =                 588.1087163518501484
    DFT Exchange-Correlation Energy =       0.0000000000000000
    Empirical Dispersion Energy =           0.0000000000000000
    PCM Polarization Energy =               0.0000000000000000
    EFP Energy =                            0.0000000000000000
    Total Energy =                       -388.2820626640951787
    Molecular point group: c1
  Basis Set: 6-31G*
  Basis Set:

  -Total Gradient:
     Atom            X                  Y                   Z
    ------   -----------------  -----------------  -----------------
       1       -0.000016003508     0.000034519094    -0.000006481281
       2       -0.000839976572     0.000208470181     0.001191262797
       3        0.000918136570    -0.000263654869    -0.001314969705
       4        0.001094816462    -0.000540949426    -0.001101439072
       5        0.000011765912    -0.000019844804    -0.000001724066
       6       -0.000024557624     0.000036588686    -0.000004884678
       7        0.000004374926    -0.000034013053     0.000034721184
       8       -0.001120455244     0.000530527708     0.001224632053
       9       -0.000026689891     0.000022843113    -0.000008943422
      10        0.000020267601    -0.000005417260    -0.000006545389
      11       -0.000011591345    -0.000008938569     0.000013380203
      12       -0.000021939873     0.000041000173    -0.000024974743
      13        0.000004238464     0.000018713842     0.000003947738
      14        0.000003832531     0.000005413663    -0.000009245088
      15        0.000003843954    -0.000004188410    -0.000001637327
      16       -0.000002716179    -0.000026097075     0.000000169438
      17        0.000002638514     0.000007076885     0.000019503682
      18       -0.000006244082     0.000003639615    -0.000003370283
      19       -0.000000614534    -0.000004812232     0.000001022270
      20       -0.000004898425    -0.000003750946    -0.000004237290
      21        0.000005057764    -0.000009917347    -0.000000463985
      22        0.000007381923     0.000013538577    -0.000001188144
      23        0.000006610472    -0.000005472609     0.000003700727
      24       -0.000008908145    -0.000000083394    -0.000002160450
      25       -0.000004642578     0.000002910837    -0.000001140592
      26        0.000001182684     0.000004411232     0.000000474557
      27        0.000005090222    -0.000002513618     0.000000590862

  **** Optimization is complete! (in 6 steps) ****
    Final optimized geometry and variables:
    Molecular point group: c1

    Geometry (in Angstrom), charge = 0, multiplicity = 1:

    H           -0.177751642041     3.265203744451     2.947909739091
    O            0.643871577993     2.956434064767     2.591988448297
    C            0.865489132928     1.636186742870     3.018897626930
    C           -0.170898951419     0.656715760892     2.478580597206
    H            1.855205794193     1.372579350815     2.667201903828
    H            0.885863028577     1.591558683701     4.106497536640
    C           -0.104304509660     0.470069801838     0.962532329666
    H           -0.045499385158    -0.298483669495     2.985523114648
    H           -1.162797741298     1.011917347440     2.760402523333
    C           -1.187746266957    -0.472707985817     0.432370812628
    H            0.880540238654     0.090834291326     0.701806132410
    H           -0.197407044992     1.440372101867     0.482637016770
    C           -1.218704905613    -0.620994797949    -1.093291471484
    H           -1.067027057122    -1.455378248859     0.886173122224
    H           -2.158517385055    -0.106235174213     0.760728540003
    C            0.007183337484    -1.310916404560    -1.697820651178
    H           -2.105970236575    -1.189526095434    -1.364725060639
    H           -1.338806692497     0.361772012623    -1.546236986077
    C           -0.113923871497    -1.525585566922    -3.208008622268
    H            0.154340000960    -2.273752032975    -1.210069677938
    H            0.901545562990    -0.726656813956    -1.496601073998
    C            1.112076937485    -2.206555144082    -3.815381697620
    H           -0.998844349193    -2.122938998451    -3.417245772757
    H           -0.271815916060    -0.566049866201    -3.695968559690
    H            1.277902598740    -3.184097174691    -3.371174597697
    H            0.995625449218    -2.345580703250    -4.885831893664
    H            2.009108740528    -1.615181900174    -3.654568594265

  Mulliken Charges: (a.u.)
   Center  Symbol    Alpha    Beta     Spin     Total
       1     H     0.28330  0.28330  0.00000  0.43340
       2     O     4.36868  4.36868  0.00000 -0.73736
       3     C     2.99659  2.99659  0.00000  0.00682
       4     C     3.16705  3.16705  0.00000 -0.33410
       5     H     0.41629  0.41629  0.00000  0.16742
       6     H     0.42840  0.42840  0.00000  0.14319
       7     C     3.15510  3.15510  0.00000 -0.31020
       8     H     0.42241  0.42241  0.00000  0.15518
       9     H     0.42876  0.42876  0.00000  0.14248
      10     C     3.15309  3.15309  0.00000 -0.30618
      11     H     0.42140  0.42140  0.00000  0.15719
      12     H     0.41221  0.41221  0.00000  0.17557
      13     C     3.15296  3.15296  0.00000 -0.30592
      14     H     0.42500  0.42500  0.00000  0.15000
      15     H     0.42331  0.42331  0.00000  0.15338
      16     C     3.15273  3.15273  0.00000 -0.30547
      17     H     0.42260  0.42260  0.00000  0.15479
      18     H     0.42323  0.42323  0.00000  0.15355
      19     C     3.15113  3.15113  0.00000 -0.30226
      20     H     0.42531  0.42531  0.00000  0.14939
      21     H     0.42122  0.42122  0.00000  0.15756
      22     C     3.23914  3.23914  0.00000 -0.47828
      23     H     0.42361  0.42361  0.00000  0.15277
      24     H     0.42282  0.42282  0.00000  0.15437
      25     H     0.42227  0.42227  0.00000  0.15546
      26     H     0.41968  0.41968  0.00000  0.16064
      27     H     0.42170  0.42170  0.00000  0.15660

   Total alpha = 37.00000, Total beta = 37.00000, Total charge =  0.00000
