  ==> Input File <==

--------------------------------------------------------------------------
set {
	reference rhf
	basis 6-31G*
}

set_num_threads( 4 )
memory 2 gb

molecule MOL {
0 1

O	 -0.682937	 1.318834	 -0.186099
C	 -0.860635	 0.152188	 -0.042321
C	 -2.173363	 -0.477127	 0.338347
O	 0.083258	 -0.765189	 -0.202595
H	 -2.477673	 -1.180929	 -0.427595
H	 -2.923125	 0.290956	 0.455536
H	 -2.058825	 -1.029004	 1.264191
C	 1.391937	 -0.334737	 -0.569838
C	 2.194443	 0.102143	 0.641676
H	 1.313351	 0.460158	 -1.295859
H	 1.839435	 -1.198676	 -1.039790
H	 3.207447	 0.351150	 0.340764
H	 1.752156	 0.976330	 1.102704
H	 2.243186	 -0.695665	 1.374849

	symmetry c1
}
set optking {
	frozen_dihedral = ("
		10 8 4 2
	")
}

ee = optimize('scf')
oeprop('DIPOLE', 'QUADRUPOLE', 'MULLIKEN_CHARGES')
f=open( 'psi4out.xyz', 'w' )
f.write( "14  " )
f.write( str(ee) + "\n" )
f.write( MOL.save_string_xyz() )
f.close()
--------------------------------------------------------------------------

    Molecular point group: c1
  Charge       = 0
  Multiplicity = 1
  Basis Set: 6-31G*
  Basis Set:
  @DF-RHF Final Energy:  -305.87549678756727
    Total Energy =                       -305.8754967875671582
    Molecular point group: c1
  Basis Set: 6-31G*
  Basis Set:
  Charge       = 0
  Multiplicity = 1
  Basis Set: 6-31G*
  Basis Set:

    Orbital Energies (a.u.)
    -----------------------

    Doubly Occupied:

       1A    -20.601932     2A    -20.544687     3A    -11.375960
       4A    -11.285310     5A    -11.233402     6A    -11.218375
       7A     -1.467703     8A     -1.362894     9A     -1.055028
      10A     -0.998738    11A     -0.882769    12A     -0.765198
      13A     -0.699317    14A     -0.681967    15A     -0.657165
      16A     -0.610340    17A     -0.587055    18A     -0.570144
      19A     -0.558844    20A     -0.528906    21A     -0.516405
      22A     -0.494314    23A     -0.450684    24A     -0.438914

  @DF-RHF Final Energy:  -305.87549693060578

   => Energetics <=

    Nuclear Repulsion Energy =            248.8554847344513234
    One-Electron Energy =                -910.2898619124309789
    Two-Electron Energy =                 355.5588802473739634
    DFT Exchange-Correlation Energy =       0.0000000000000000
    Empirical Dispersion Energy =           0.0000000000000000
    PCM Polarization Energy =               0.0000000000000000
    EFP Energy =                            0.0000000000000000
    Total Energy =                       -305.8754969306056637
    Molecular point group: c1
  Basis Set: 6-31G*
  Basis Set:

  -Total Gradient:
     Atom            X                  Y                   Z
    ------   -----------------  -----------------  -----------------
       1        0.000037497779    -0.000016654702    -0.000009676462
       2        0.000029571778    -0.000018226793     0.000047758769
       3       -0.000002165741    -0.000002366602    -0.000000293059
       4       -0.000036669697    -0.000031103222    -0.000095102354
       5        0.000000538492    -0.000000127754     0.000000327575
       6        0.000001197515     0.000001191311     0.000001182618
       7       -0.000001231549    -0.000001368547     0.000001277513
       8       -0.000021908048     0.000096620712     0.000102127374
       9        0.000010452365     0.000009843346    -0.000000728933
      10        0.000003397521    -0.000028575110    -0.000054861517
      11       -0.000032806765    -0.000001020654     0.000008773663
      12        0.000009578496     0.000003545214     0.000011871134
      13        0.000000780651    -0.000010563366    -0.000014025285
      14        0.000001767208    -0.000001193833     0.000001368966

  **** Optimization is complete! (in 2 steps) ****
    Final optimized geometry and variables:
    Molecular point group: c1

    Geometry (in Angstrom), charge = 0, multiplicity = 1:

    O           -0.682907363913     1.317255963993    -0.187337779117
    C           -0.860326969623     0.150704455157    -0.042522080161
    C           -2.172768075724    -0.478680195412     0.338990454009
    O            0.083793411677    -0.766502539408    -0.202418114639
    H           -2.477063108230    -1.183141512924    -0.426361413481
    H           -2.922722821597     0.289283930082     0.455787311213
    H           -2.057820066643    -1.029813753648     1.265230452092
    C            1.392463053899    -0.335499927533    -0.569043242941
    C            2.195442630238     0.100493190782     0.642511204118
    H            1.313967711420     0.459516640753    -1.295073751311
    H            1.839711077650    -1.199327136132    -1.039400881682
    H            3.208562549873     0.348935863406     0.341503641906
    H            1.753840520089     0.974732599420     1.103948079363
    H            2.243862097747    -0.697707245378     1.375306869666

  Mulliken Charges: (a.u.)
   Center  Symbol    Alpha    Beta     Spin     Total
       1     O     4.28456  4.28456  0.00000 -0.56912
       2     C     2.61996  2.61996  0.00000  0.76008
       3     C     3.28157  3.28157  0.00000 -0.56315
       4     O     4.30715  4.30715  0.00000 -0.61429
       5     H     0.40019  0.40019  0.00000  0.19962
       6     H     0.39706  0.39706  0.00000  0.20588
       7     H     0.40046  0.40046  0.00000  0.19909
       8     C     3.00671  3.00671  0.00000 -0.01342
       9     C     3.25501  3.25501  0.00000 -0.51002
      10     H     0.40302  0.40302  0.00000  0.19397
      11     H     0.41005  0.41005  0.00000  0.17991
      12     H     0.41758  0.41758  0.00000  0.16483
      13     H     0.40221  0.40221  0.00000  0.19559
      14     H     0.41449  0.41449  0.00000  0.17103

   Total alpha = 24.00000, Total beta = 24.00000, Total charge = -0.00000
