  ==> Input File <==

--------------------------------------------------------------------------
set {
	reference rhf
	basis cc-pvtz
}

set_num_threads( 4 )
memory 2 gb

molecule MOL {
0 1

H	 -2.553858	 -0.211866	 -2.863043
C	 -1.656437	 -0.278654	 -2.279701
C	 -1.433910	 -1.369796	 -1.451616
C	 -0.707282	 0.715021	 -2.339637
H	 -2.163453	 -2.155115	 -1.391837
C	 -0.285511	 -1.459399	 -0.702502
H	 -0.861736	 1.566922	 -2.974536
C	 0.458246	 0.640381	 -1.589716
H	 -0.103941	 -2.298112	 -0.059647
C	 0.670380	 -0.451101	 -0.767678
H	 1.177276	 1.430132	 -1.658649
O	 1.760432	 -0.625184	 0.000000
C	 2.773565	 0.334879	 0.000000
H	 2.728295	 0.960928	 -0.884150
H	 3.706387	 -0.206610	 0.000000
H	 2.728295	 0.960928	 0.884150

	symmetry c1
}
set optking {
	frozen_dihedral = ("
		10 12 13 14
	")
}

ee = optimize('scf')
oeprop('DIPOLE', 'QUADRUPOLE', 'MULLIKEN_CHARGES')
f=open( 'psi4out.xyz', 'w' )
f.write( "16  " )
f.write( str(ee) + "\n" )
f.write( MOL.save_string_xyz() )
f.close()
--------------------------------------------------------------------------

    Molecular point group: c1
  Charge       = 0
  Multiplicity = 1
  Basis Set: CC-PVTZ
  Basis Set:
  @DF-RHF Final Energy:  -344.69769828429611
    Total Energy =                       -344.6976982842967345
    Molecular point group: c1
  Basis Set: CC-PVTZ
  Basis Set:
  Basis Set: CC-PVTZ
  Basis Set:
  @DF-RHF Final Energy:  -344.69724756938120
    Total Energy =                       -344.6972475693814886
  Basis Set: CC-PVTZ
  Basis Set:
  Basis Set: CC-PVTZ
  Basis Set:
  @DF-RHF Final Energy:  -344.69986841780610
    Total Energy =                       -344.6998684178059875
  Basis Set: CC-PVTZ
  Basis Set:
  Basis Set: CC-PVTZ
  Basis Set:
  @DF-RHF Final Energy:  -344.70041714642241
    Total Energy =                       -344.7004171464224669
  Basis Set: CC-PVTZ
  Basis Set:
  Basis Set: CC-PVTZ
  Basis Set:
  @DF-RHF Final Energy:  -344.70073953610927
    Total Energy =                       -344.7007395361093813
  Basis Set: CC-PVTZ
  Basis Set:
  Basis Set: CC-PVTZ
  Basis Set:
  @DF-RHF Final Energy:  -344.70075583762053
    Total Energy =                       -344.7007558376204770
  Basis Set: CC-PVTZ
  Basis Set:
  Basis Set: CC-PVTZ
  Basis Set:
  @DF-RHF Final Energy:  -344.70075916058124
    Total Energy =                       -344.7007591605813559
  Basis Set: CC-PVTZ
  Basis Set:
  Charge       = 0
  Multiplicity = 1
  Basis Set: CC-PVTZ
  Basis Set:

    Orbital Energies (a.u.)
    -----------------------

    Doubly Occupied:

       1A    -20.575458     2A    -11.292529     3A    -11.277509
       4A    -11.231477     5A    -11.230086     6A    -11.222428
       7A    -11.218379     8A    -11.218014     9A     -1.414322
      10A     -1.151154    11A     -1.024524    12A     -1.017036
      13A     -0.942517    14A     -0.835508    15A     -0.808638
      16A     -0.724051    17A     -0.667478    18A     -0.666703
      19A     -0.654743    20A     -0.618276    21A     -0.592315
      22A     -0.583176    23A     -0.527886    24A     -0.519768
      25A     -0.511902    26A     -0.483115    27A     -0.458620
      28A     -0.339592    29A     -0.312024

  @DF-RHF Final Energy:  -344.70075959067623

   => Energetics <=

    Nuclear Repulsion Energy =            348.5202215756118562
    One-Electron Energy =               -1158.2035040187861341
    Two-Electron Energy =                 464.9825228524980503
    DFT Exchange-Correlation Energy =       0.0000000000000000
    Empirical Dispersion Energy =           0.0000000000000000
    PCM Polarization Energy =               0.0000000000000000
    EFP Energy =                            0.0000000000000000
    Total Energy =                       -344.7007595906761708
    Molecular point group: c1
  Basis Set: CC-PVTZ
  Basis Set:

  -Total Gradient:
     Atom            X                  Y                   Z
    ------   -----------------  -----------------  -----------------
       1       -0.000005017808    -0.000008967033    -0.000000639597
       2        0.000026228864     0.000084488302    -0.000006112544
       3        0.000036939418    -0.000043165193     0.000034777397
       4       -0.000061343795    -0.000022721808    -0.000049340682
       5       -0.000003141328     0.000011604451    -0.000007491330
       6        0.000028394861    -0.000031996013    -0.000018694656
       7       -0.000000125824    -0.000000719161     0.000001686452
       8        0.000056017612    -0.000050882186     0.000025540750
       9        0.000002909921     0.000001336226     0.000005839243
      10        0.000732738320    -0.002005355706    -0.001308286516
      11        0.000006944242    -0.000009302003     0.000000712509
      12       -0.001701897428     0.003839344098     0.002096174924
      13        0.002275083450    -0.004380941127    -0.001272580111
      14       -0.001397938760     0.002639651391     0.000512549739
      15        0.000004786118    -0.000008365534    -0.000011558104
      16       -0.000000577863    -0.000014008703    -0.000002577473

  **** Optimization is complete! (in 8 steps) ****
    Final optimized geometry and variables:
    Molecular point group: c1

    Geometry (in Angstrom), charge = 0, multiplicity = 1:

    H           -2.737262717397    -0.047181709799    -1.919726793829
    C           -1.881658971895    -0.057722351783    -1.273090846264
    C           -1.627204600432    -1.151908127549    -0.462165333120
    C           -1.021791569381     1.018219468204    -1.233099094068
    H           -2.288250973705    -1.997604572045    -0.479818075510
    C           -0.527595965280    -1.171837939028     0.366247984615
    H           -1.209309847734     1.878219187526    -1.847801639540
    C            0.084546236706     1.015268571719    -0.399304149147
    H           -0.320127816341    -2.014569316415     0.995831129313
    C            0.337418874235    -0.087097741596     0.397918606122
    H            0.727428179254     1.871975587497    -0.368048642096
    O            1.370530063106    -0.164512258431     1.258887317589
    C            2.570454377866     0.508679338927     0.993732555743
    H            2.669761390185     0.756281860286    -0.054162440688
    H            3.381024226218    -0.139144632084     1.293028909202
    H            2.622934055913     1.426595415665     1.568382100570

  Mulliken Charges: (a.u.)
   Center  Symbol    Alpha    Beta     Spin     Total
       1     H     0.42429  0.42429  0.00000  0.15142
       2     C     3.09842  3.09842  0.00000 -0.19684
       3     C     3.05961  3.05961  0.00000 -0.11922
       4     C     3.06396  3.06396  0.00000 -0.12792
       5     H     0.42285  0.42285  0.00000  0.15430
       6     C     3.11012  3.11012  0.00000 -0.22023
       7     H     0.42297  0.42297  0.00000  0.15406
       8     C     3.13289  3.13289  0.00000 -0.26577
       9     H     0.41966  0.41966  0.00000  0.16069
      10     C     2.85611  2.85611  0.00000  0.28777
      11     H     0.42344  0.42344  0.00000  0.15313
      12     O     4.16002  4.16002  0.00000 -0.32005
      13     C     3.04087  3.04087  0.00000 -0.08174
      14     H     0.46398  0.46398  0.00000  0.07203
      15     H     0.44418  0.44418  0.00000  0.11164
      16     H     0.45664  0.45664  0.00000  0.08673

   Total alpha = 29.00000, Total beta = 29.00000, Total charge =  0.00000
