  ==> Input File <==

--------------------------------------------------------------------------
set {
	reference rhf
	basis 6-31G*
}

set_num_threads( 1 )
memory 2 gb

molecule MOL {
0 1

O	 -2.363556	 -0.850313	 -0.699825
C	 -1.880809	 0.109614	 -0.192117
C	 -2.589061	 1.419466	 0.024706
O	 -0.632575	 0.154573	 0.251549
H	 -2.058385	 2.212310	 -0.489812
H	 -3.600785	 1.350292	 -0.346058
H	 -2.596313	 1.661235	 1.081234
C	 0.160891	 -1.019931	 0.106212
C	 1.589627	 -0.672828	 0.480843
H	 0.089836	 -1.367806	 -0.916050
H	 -0.238459	 -1.792301	 0.749618
C	 2.246377	 0.346236	 -0.452210
H	 2.163194	 -1.597435	 0.473358
H	 1.604769	 -0.303424	 1.502885
C	 3.691736	 0.652107	 -0.061850
H	 2.219579	 -0.032311	 -1.472055
H	 1.666466	 1.263317	 -0.447249
H	 4.134505	 1.377213	 -0.737283
H	 4.305508	 -0.243868	 -0.089969
H	 3.748266	 1.059562	 0.943567

	symmetry c1
}
set optking {
	frozen_dihedral = ("
		16 12 9 8,
		12 9 8 10,
		1 2 4 8
	")
}

ee = energy('scf')
oeprop('DIPOLE', 'QUADRUPOLE', 'MULLIKEN_CHARGES')
f=open( 'psi4out.xyz', 'w' )
f.write( "20  " )
f.write( str(ee) + "\n" )
f.write( MOL.save_string_xyz() )
f.close()
--------------------------------------------------------------------------

    Molecular point group: c1

    Geometry (in Angstrom), charge = 0, multiplicity = 1:

       Center              X                  Y                   Z               Mass
    ------------   -----------------  -----------------  -----------------  -----------------
           O         -2.382765906559    -0.871870860094    -0.630487384741    15.994914619560
           C         -1.900018906559     0.088056139906    -0.122779384741    12.000000000000
           C         -2.608270906559     1.397908139906     0.094043615259    12.000000000000
           O         -0.651784906559     0.133015139906     0.320886615259    15.994914619560
           H         -2.077594906559     2.190752139906    -0.420474384741     1.007825032070
           H         -3.619994906559     1.328734139906    -0.276720384741     1.007825032070
           H         -2.615522906559     1.639677139906     1.150571615259     1.007825032070
           C          0.141681093441    -1.041488860094     0.175549615259    12.000000000000
           C          1.570417093441    -0.694385860094     0.550180615259    12.000000000000
           H          0.070626093441    -1.389363860094    -0.846712384741     1.007825032070
           H         -0.257668906559    -1.813858860094     0.818955615259     1.007825032070
           C          2.227167093441     0.324678139906    -0.382872384741    12.000000000000
           H          2.143984093441    -1.618992860094     0.542695615259     1.007825032070
           H          1.585559093441    -0.324981860094     1.572222615259     1.007825032070
           C          3.672526093441     0.630549139906     0.007487615259    12.000000000000
           H          2.200369093441    -0.053868860094    -1.402717384741     1.007825032070
           H          1.647256093441     1.241759139906    -0.377911384741     1.007825032070
           H          4.115295093441     1.355655139906    -0.667945384741     1.007825032070
           H          4.286298093441    -0.265425860094    -0.020631384741     1.007825032070
           H          3.729056093441     1.038004139906     1.012904615259     1.007825032070

  Charge       = 0
  Multiplicity = 1
  Basis Set: 6-31G*
  Basis Set:

    Orbital Energies (a.u.)
    -----------------------

    Doubly Occupied:

       1A    -20.601860     2A    -20.544092     3A    -11.374622
       4A    -11.282144     5A    -11.233498     6A    -11.225410
       7A    -11.220676     8A    -11.213467     9A     -1.468050
      10A     -1.362285    11A     -1.085975    12A     -1.028348
      13A     -0.981448    14A     -0.880351    15A     -0.810850
      16A     -0.775652    17A     -0.689964    18A     -0.682602
      19A     -0.667498    20A     -0.631792    21A     -0.601385
      22A     -0.592725    23A     -0.572572    24A     -0.549726
      25A     -0.543964    26A     -0.532845    27A     -0.510567
      28A     -0.482481    29A     -0.474896    30A     -0.474537
      31A     -0.448315    32A     -0.438644

  @DF-RHF Final Energy:  -383.94557965788852

   => Energetics <=

    Nuclear Repulsion Energy =            385.6232564140387922
    One-Electron Energy =               -1287.1711193625174019
    Two-Electron Energy =                 517.6022832905906625
    DFT Exchange-Correlation Energy =       0.0000000000000000
    Empirical Dispersion Energy =           0.0000000000000000
    PCM Polarization Energy =               0.0000000000000000
    EFP Energy =                            0.0000000000000000
    Total Energy =                       -383.9455796578879472

  Mulliken Charges: (a.u.)
   Center  Symbol    Alpha    Beta     Spin     Total
       1     O     4.28326  4.28326  0.00000 -0.56653
       2     C     2.61921  2.61921  0.00000  0.76158
       3     C     3.28177  3.28177  0.00000 -0.56354
       4     O     4.30854  4.30854  0.00000 -0.61707
       5     H     0.40077  0.40077  0.00000  0.19846
       6     H     0.39685  0.39685  0.00000  0.20631
       7     H     0.40056  0.40056  0.00000  0.19887
       8     C     3.00318  3.00318  0.00000 -0.00637
       9     C     3.16466  3.16466  0.00000 -0.32931
      10     H     0.40806  0.40806  0.00000  0.18387
      11     H     0.41020  0.41020  0.00000  0.17961
      12     C     3.15514  3.15514  0.00000 -0.31028
      13     H     0.41834  0.41834  0.00000  0.16332
      14     H     0.41456  0.41456  0.00000  0.17089
      15     C     3.24035  3.24035  0.00000 -0.48070
      16     H     0.42253  0.42253  0.00000  0.15494
      17     H     0.41234  0.41234  0.00000  0.17532
      18     H     0.41754  0.41754  0.00000  0.16493
      19     H     0.42161  0.42161  0.00000  0.15679
      20     H     0.42054  0.42054  0.00000  0.15891

   Total alpha = 32.00000, Total beta = 32.00000, Total charge =  0.00000
