                              Psi4 1.0.54 Driver

  ==> Input File <==

--------------------------------------------------------------------------
set {
	reference rhf
	basis cc-pvtz
}

set_num_threads( 4 )
memory 2 gb

molecule MOL {
0 1

H	 0.989368	 0.355381	 -1.910861
O	 1.214182	 1.006176	 -1.270255
C	 0.706474	 0.636793	 -0.025501
C	 -0.793473	 0.591216	 0.050087
H	 1.077369	 1.365589	 0.685551
H	 1.103432	 -0.328128	 0.284421
C	 -1.534243	 -0.493009	 -0.013340
H	 -1.266611	 1.552628	 0.164437
H	 -1.101195	 -1.466332	 -0.144046
H	 -2.604242	 -0.437780	 0.050785

	symmetry c1
}
set optking {
	frozen_dihedral = ("
		5 3 4 7
	")
}

ee,wfn = optimize('scf', return_wfn=True)
oeprop( wfn, 'DIPOLE', 'QUADRUPOLE', 'MULLIKEN_CHARGES')
f=open( 'psi4out.xyz', 'w' )
f.write( "10  " )
f.write( str(ee) + "\n" )
f.write( MOL.save_string_xyz() )
f.close()
--------------------------------------------------------------------------

    Molecular point group: c1
  Charge       = 0
  Multiplicity = 1
  Basis Set: CC-PVTZ
  Basis Set:
  @DF-RHF Final Energy:  -191.99672886851846
    Total Energy =                       -191.9967288685183746
    Molecular point group: c1
  Basis Set: CC-PVTZ
  Basis Set:
  Basis Set: CC-PVTZ
  Basis Set:
  @DF-RHF Final Energy:  -191.99624286560720
    Total Energy =                       -191.9962428656072575
  Basis Set: CC-PVTZ
  Basis Set:
  Basis Set: CC-PVTZ
  Basis Set:
  @DF-RHF Final Energy:  -191.99796137070405
    Total Energy =                       -191.9979613707040471
  Basis Set: CC-PVTZ
  Basis Set:
  Basis Set: CC-PVTZ
  Basis Set:
  @DF-RHF Final Energy:  -191.99799786251057
    Total Energy =                       -191.9979978625106014
  Basis Set: CC-PVTZ
  Basis Set:
  Basis Set: CC-PVTZ
  Basis Set:
  @DF-RHF Final Energy:  -191.99800258598447
    Total Energy =                       -191.9980025859845227
  Basis Set: CC-PVTZ
  Basis Set:
  Charge       = 0
  Multiplicity = 1
  Basis Set: CC-PVTZ
  Basis Set:

    Orbital Energies (a.u.)
    -----------------------

    Doubly Occupied:

       1A    -20.550189     2A    -11.275398     3A    -11.232487
       4A    -11.227363     5A     -1.368309     6A     -1.068484
       7A     -0.925793     8A     -0.778492     9A     -0.706621
      10A     -0.626931    11A     -0.625956    12A     -0.600677
      13A     -0.535631    14A     -0.491827    15A     -0.446467
      16A     -0.381629

  @DF-RHF Final Energy:  -191.99800286146001

   => Energetics <=

    Nuclear Repulsion Energy =            118.1304413511569322
    One-Electron Energy =                -494.5723813695477133
    Two-Electron Energy =                 184.4439371569307298
    DFT Exchange-Correlation Energy =       0.0000000000000000
    Empirical Dispersion Energy =           0.0000000000000000
    PCM Polarization Energy =               0.0000000000000000
    EFP Energy =                            0.0000000000000000
    Total Energy =                       -191.9980028614600371
    Molecular point group: c1
  Basis Set: CC-PVTZ
  Basis Set:

  -Total Gradient:
     Atom            X                  Y                   Z
    ------   -----------------  -----------------  -----------------
       1        0.000004721380     0.000008295569     0.000017691692
       2        0.000016117250    -0.000013920222    -0.000021873825
       3       -0.000302340724    -0.002368954371     0.001556920020
       4       -0.000268319779     0.000555208613     0.003588623889
       5        0.000292222861     0.001860370130    -0.002336265939
       6        0.000012763663     0.000004104242    -0.000010265855
       7        0.000236942005    -0.000042115278    -0.002775096068
       8        0.000006292865    -0.000003272529    -0.000009647943
       9       -0.000003787458     0.000004087317    -0.000006132788
      10        0.000005387938    -0.000003803470    -0.000003953183

  **** Optimization is complete! (in 6 steps) ****
    Final optimized geometry and variables:
    Molecular point group: c1

    Geometry (in Angstrom), charge = 0, multiplicity = 1:

    H            1.005385604446    -0.193921591803    -1.464542655617
    O            1.348721055164     0.392619580762    -0.814636118201
    C            0.719214583015     0.146318559547     0.416647298388
    C           -0.776351757822     0.243295790276     0.304295171920
    H            1.096256039956     0.912758485094     1.079862393058
    H            1.004248177784    -0.823459982514     0.812126398224
    C           -1.579370360628    -0.798471667237     0.270200606659
    H           -1.179239221148     1.232901699497     0.172988500938
    H           -1.206540067724    -1.800809516528     0.387256098903
    H           -2.639677557510    -0.690432722917     0.139804808723

  Mulliken Charges: (a.u.)
   Center  Symbol    Alpha    Beta     Spin     Total
       1     H     0.39407  0.39407  0.00000  0.21187
       2     O     4.20034  4.20034  0.00000 -0.40068
       3     C     2.95089  2.95089  0.00000  0.09823
       4     C     3.08026  3.08026  0.00000 -0.16051
       5     H     0.45812  0.45812  0.00000  0.08377
       6     H     0.47052  0.47052  0.00000  0.05896
       7     C     3.17303  3.17303  0.00000 -0.34607
       8     H     0.41898  0.41898  0.00000  0.16205
       9     H     0.42814  0.42814  0.00000  0.14373
      10     H     0.42567  0.42567  0.00000  0.14866

   Total alpha = 16.00000, Total beta = 16.00000, Total charge = -0.00000

*** Psi4 exiting successfully. Buy a developer a beer!
