                              Psi4 1.0.54 Driver

  ==> Input File <==

--------------------------------------------------------------------------
set {
	reference rhf
	basis cc-pvtz
}

set_num_threads( 4 )
memory 2 gb

molecule MOL {
0 1

H	 -2.698799	 -0.000846	 0.036018
C	 -1.694291	 -0.000483	 0.434279
O	 -0.828718	 -0.000608	 -0.655022
H	 -1.576855	 0.881100	 1.056504
H	 -1.576401	 -0.881658	 1.057001
C	 -1.356248	 0.212765	 -1.941125
C	 -2.311614	 -0.893942	 -2.373266
C	 -1.967583	 1.600240	 -2.100593
H	 -0.482368	 0.161917	 -2.578593
H	 -1.860922	 -1.865428	 -2.211553
H	 -2.535835	 -0.794338	 -3.428989
H	 -3.251686	 -0.857219	 -1.835214
H	 -1.278289	 2.358466	 -1.749863
H	 -2.179411	 1.790494	 -3.146397
H	 -2.898453	 1.703169	 -1.555223

	symmetry c1
}
set optking {
	frozen_dihedral = ("
		6 3 2 1
	")
}

ee,wfn = optimize('scf', return_wfn=True)
oeprop( wfn, 'DIPOLE', 'QUADRUPOLE', 'MULLIKEN_CHARGES')
f=open( 'psi4out.xyz', 'w' )
f.write( "15  " )
f.write( str(ee) + "\n" )
f.write( MOL.save_string_xyz() )
f.close()
--------------------------------------------------------------------------

    Molecular point group: c1
  Charge       = 0
  Multiplicity = 1
  Basis Set: CC-PVTZ
  Basis Set:
  @DF-RHF Final Energy:  -232.22177275063916
    Total Energy =                       -232.2217727506391611
    Molecular point group: c1
  Basis Set: CC-PVTZ
  Basis Set:
  Basis Set: CC-PVTZ
  Basis Set:
  @DF-RHF Final Energy:  -232.22325329478997
    Total Energy =                       -232.2232532947901404
  Basis Set: CC-PVTZ
  Basis Set:
  Basis Set: CC-PVTZ
  Basis Set:
  @DF-RHF Final Energy:  -232.22398700185605
    Total Energy =                       -232.2239870018560737
  Basis Set: CC-PVTZ
  Basis Set:
  Basis Set: CC-PVTZ
  Basis Set:
  @DF-RHF Final Energy:  -232.22400370197107
    Total Energy =                       -232.2240037019709575
  Basis Set: CC-PVTZ
  Basis Set:
  Basis Set: CC-PVTZ
  Basis Set:
  @DF-RHF Final Energy:  -232.22401080904814
    Total Energy =                       -232.2240108090481385
  Basis Set: CC-PVTZ
  Basis Set:
  Basis Set: CC-PVTZ
  Basis Set:
  @DF-RHF Final Energy:  -232.22400931459964
    Total Energy =                       -232.2240093145996411
  Basis Set: CC-PVTZ
  Basis Set:
  Charge       = 0
  Multiplicity = 1
  Basis Set: CC-PVTZ
  Basis Set:

    Orbital Energies (a.u.)
    -----------------------

    Doubly Occupied:

       1A    -20.539492     2A    -11.273244     3A    -11.258923
       4A    -11.208826     5A    -11.208384     6A     -1.371212
       7A     -1.051016     8A     -0.940383     9A     -0.931730
      10A     -0.781815    11A     -0.677172    12A     -0.640359
      13A     -0.633680    14A     -0.570389    15A     -0.563638
      16A     -0.552468    17A     -0.538010    18A     -0.501280
      19A     -0.498576    20A     -0.443518    21A     -0.406004

  @DF-RHF Final Energy:  -232.22401120581077

   => Energetics <=

    Nuclear Repulsion Energy =            198.8806313158343073
    One-Electron Energy =                -709.0290500130313376
    Two-Electron Energy =                 277.9244074913860914
    DFT Exchange-Correlation Energy =       0.0000000000000000
    Empirical Dispersion Energy =           0.0000000000000000
    PCM Polarization Energy =               0.0000000000000000
    EFP Energy =                            0.0000000000000000
    Total Energy =                       -232.2240112058109389
    Molecular point group: c1
  Basis Set: CC-PVTZ
  Basis Set:

  -Total Gradient:
     Atom            X                  Y                   Z
    ------   -----------------  -----------------  -----------------
       1        0.000037636812     0.001062445738     0.000017145051
       2       -0.000085159603    -0.001805547760    -0.000105891880
       3        0.000208184906     0.001581322255     0.000187740421
       4       -0.000005103067     0.000002785353     0.000005192120
       5       -0.000004594016    -0.000002581646     0.000005189524
       6       -0.000141936050    -0.000845269806    -0.000091090052
       7       -0.000003646915     0.000002302815    -0.000005273890
       8       -0.000008849588     0.000003877925    -0.000008818390
       9       -0.000005255870     0.000001114601    -0.000003410845
      10       -0.000001477877     0.000001466955     0.000000894064
      11        0.000001625265    -0.000001350590     0.000001522011
      12        0.000004960399     0.000001299594    -0.000000901517
      13       -0.000001722031    -0.000003079183     0.000000102497
      14        0.000000332416     0.000002551389    -0.000000879044
      15        0.000005005216    -0.000001337641    -0.000001520069

  **** Optimization is complete! (in 7 steps) ****
    Final optimized geometry and variables:
    Molecular point group: c1

    Geometry (in Angstrom), charge = 0, multiplicity = 1:

    H           -1.070645718449    -0.158612083030     1.489042044055
    C           -0.019646646407    -0.202695451425     1.744439312050
    O            0.816060984437    -0.213945189190     0.626852962086
    H            0.205349665403     0.654608920994     2.370307771443
    H            0.152015543079    -1.102684380521     2.321668768454
    C            0.272782907284     0.042189403037    -0.644113990115
    C           -0.683818089474    -1.054894232600    -1.097362245476
    C           -0.337392473253     1.435458152867    -0.745411719699
    H            1.137351623776     0.012943141369    -1.295514335059
    H           -0.211045344153    -2.024531060893    -1.002352211467
    H           -0.952767530814    -0.906657418256    -2.137038744504
    H           -1.601401217520    -1.064563066911    -0.520616810749
    H            0.376272794497     2.181543262748    -0.418145043411
    H           -0.607960743738     1.650237253229    -1.772848915570
    H           -1.233319967472     1.532989458956    -0.142905125976

  Mulliken Charges: (a.u.)
   Center  Symbol    Alpha    Beta     Spin     Total
       1     H     0.46940  0.46940  0.00000  0.06121
       2     C     3.03850  3.03850  0.00000 -0.07700
       3     O     4.18759  4.18759  0.00000 -0.37519
       4     H     0.45697  0.45697  0.00000  0.08606
       5     H     0.45036  0.45036  0.00000  0.09927
       6     C     2.93946  2.93946  0.00000  0.12107
       7     C     3.15477  3.15477  0.00000 -0.30954
       8     C     3.15494  3.15494  0.00000 -0.30988
       9     H     0.44606  0.44606  0.00000  0.10789
      10     H     0.44483  0.44483  0.00000  0.11034
      11     H     0.45084  0.45084  0.00000  0.09832
      12     H     0.45537  0.45537  0.00000  0.08925
      13     H     0.44498  0.44498  0.00000  0.11004
      14     H     0.45021  0.45021  0.00000  0.09958
      15     H     0.45572  0.45572  0.00000  0.08855

   Total alpha = 21.00000, Total beta = 21.00000, Total charge = -0.00000

*** Psi4 exiting successfully. Buy a developer a beer!
