                              Psi4 1.0.54 Driver

  ==> Input File <==

--------------------------------------------------------------------------
set {
	reference rhf
	basis cc-pvtz
}

set_num_threads( 4 )
memory 2 gb

molecule MOL {
0 1

H	 -2.816458	 -0.841657	 -0.064679
N	 -1.878861	 -0.711874	 0.250184
C	 -1.341419	 0.551458	 -0.220231
H	 -1.333674	 -1.468530	 -0.105118
C	 0.082190	 0.731516	 0.254705
H	 -1.357065	 0.652078	 -1.304747
H	 -1.939897	 1.357530	 0.189797
O	 0.946185	 0.510802	 -0.818843
H	 0.217604	 1.740185	 0.642549
H	 0.291878	 0.027018	 1.056354
C	 2.295377	 0.579285	 -0.496029
H	 2.862536	 0.396928	 -1.397396
H	 2.562189	 1.560118	 -0.108119
H	 2.565508	 -0.168842	 0.245522

	symmetry c1
}
set optking {
	frozen_dihedral = ("
		8 5 3 6
	")
}

ee,wfn = optimize('scf', return_wfn=True)
oeprop( wfn, 'DIPOLE', 'QUADRUPOLE', 'MULLIKEN_CHARGES')
f=open( 'psi4out.xyz', 'w' )
f.write( "14  " )
f.write( str(ee) + "\n" )
f.write( MOL.save_string_xyz() )
f.close()
--------------------------------------------------------------------------

    Molecular point group: c1
  Charge       = 0
  Multiplicity = 1
  Basis Set: CC-PVTZ
  Basis Set:
  @DF-RHF Final Energy:  -248.22007609994407
    Total Energy =                       -248.2200760999441513
    Molecular point group: c1
  Basis Set: CC-PVTZ
  Basis Set:
  Basis Set: CC-PVTZ
  Basis Set:
  @DF-RHF Final Energy:  -248.22056257974151
    Total Energy =                       -248.2205625797415678
  Basis Set: CC-PVTZ
  Basis Set:
  Basis Set: CC-PVTZ
  Basis Set:
  @DF-RHF Final Energy:  -248.22069394549737
    Total Energy =                       -248.2206939454972598
  Basis Set: CC-PVTZ
  Basis Set:
  Basis Set: CC-PVTZ
  Basis Set:
  @DF-RHF Final Energy:  -248.22069962443464
    Total Energy =                       -248.2206996244346442
  Basis Set: CC-PVTZ
  Basis Set:
  Charge       = 0
  Multiplicity = 1
  Basis Set: CC-PVTZ
  Basis Set:

    Orbital Energies (a.u.)
    -----------------------

    Doubly Occupied:

       1A    -20.549456     2A    -15.528186     3A    -11.263209
       4A    -11.262691     5A    -11.240128     6A     -1.382778
       7A     -1.177868     8A     -0.998674     9A     -0.903266
      10A     -0.821636    11A     -0.685014    12A     -0.670224
      13A     -0.650766    14A     -0.618247    15A     -0.596211
      16A     -0.553608    17A     -0.522401    18A     -0.499415
      19A     -0.472328    20A     -0.419705    21A     -0.385580

  @DF-RHF Final Energy:  -248.22070012639904

   => Energetics <=

    Nuclear Repulsion Energy =            192.1982393261799302
    One-Electron Energy =                -718.4350949647359812
    Two-Electron Energy =                 278.0161555121569563
    DFT Exchange-Correlation Energy =       0.0000000000000000
    Empirical Dispersion Energy =           0.0000000000000000
    PCM Polarization Energy =               0.0000000000000000
    EFP Energy =                            0.0000000000000000
    Total Energy =                       -248.2207001263991515
    Molecular point group: c1
  Basis Set: CC-PVTZ
  Basis Set:

  -Total Gradient:
     Atom            X                  Y                   Z
    ------   -----------------  -----------------  -----------------
       1       -0.000019640253    -0.000008204676    -0.000017126633
       2        0.000010646543    -0.000032678448     0.000037954717
       3       -0.000848736062     0.006580501650     0.000116984634
       4        0.000001326637    -0.000019531396    -0.000007024229
       5        0.000313408110    -0.005480879652     0.001080748288
       6        0.000659135748    -0.004511369712    -0.000339309649
       7        0.000020660041    -0.000002941474     0.000010284681
       8       -0.000136326818     0.003465181357    -0.000884399885
       9       -0.000002216478     0.000006237491    -0.000007242164
      10       -0.000003148290    -0.000005825380     0.000001790550
      11        0.000011624164     0.000018956440     0.000016556139
      12       -0.000015287741    -0.000003309633    -0.000002120580
      13        0.000009803862     0.000002946713    -0.000003218069
      14       -0.000001249459    -0.000009083281    -0.000003877802

  **** Optimization is complete! (in 5 steps) ****
    Final optimized geometry and variables:
    Molecular point group: c1

    Geometry (in Angstrom), charge = 0, multiplicity = 1:

    H           -2.880694011043    -1.123656029035     0.173606719089
    N           -1.925856663850    -1.032166203827     0.450210596322
    C           -1.380406267811     0.244304689890     0.002585366240
    H           -1.428442648189    -1.788681185658     0.027133385190
    C            0.061366479316     0.417871756117     0.468465718953
    H           -1.382475565848     0.331136796136    -1.080018811440
    H           -1.997999022473     1.031971582399     0.413580893797
    O            0.925241981888     0.173187369504    -0.602260787730
    H            0.222431708243     1.431532054940     0.831425774703
    H            0.264054496524    -0.262798070085     1.290432983009
    C            2.272633995698     0.269397639526    -0.281052312595
    H            2.842608471437     0.069750082499    -1.176992522526
    H            2.525754981958     1.264324814137     0.079700098640
    H            2.554744100484    -0.453003549838     0.481780675450

  Mulliken Charges: (a.u.)
   Center  Symbol    Alpha    Beta     Spin     Total
       1     H     0.42985  0.42985  0.00000  0.14031
       2     N     3.69340  3.69340  0.00000 -0.38681
       3     C     3.02616  3.02616  0.00000 -0.05231
       4     H     0.42693  0.42693  0.00000  0.14615
       5     C     2.97320  2.97320  0.00000  0.05361
       6     H     0.45955  0.45955  0.00000  0.08090
       7     H     0.45641  0.45641  0.00000  0.08719
       8     O     4.17493  4.17493  0.00000 -0.34986
       9     H     0.47191  0.47191  0.00000  0.05618
      10     H     0.46691  0.46691  0.00000  0.06619
      11     C     3.02980  3.02980  0.00000 -0.05959
      12     H     0.44747  0.44747  0.00000  0.10506
      13     H     0.47211  0.47211  0.00000  0.05578
      14     H     0.47139  0.47139  0.00000  0.05722

   Total alpha = 21.00000, Total beta = 21.00000, Total charge =  0.00000

*** Psi4 exiting successfully. Buy a developer a beer!
