                              Psi4 1.0.54 Driver

  ==> Input File <==

--------------------------------------------------------------------------
set {
	reference rhf
	basis cc-pvtz
}

set_num_threads( 4 )
memory 2 gb

molecule MOL {
0 1

H	 -3.144994	 -1.202467	 -0.018751
O	 -2.321472	 -0.864941	 -0.318626
C	 -2.021813	 0.336996	 0.342658
C	 -0.669613	 0.837286	 -0.127252
H	 -2.780861	 1.084746	 0.127159
H	 -2.006390	 0.184138	 1.420053
C	 0.490865	 -0.082543	 0.241244
H	 -0.708709	 0.967192	 -1.204587
H	 -0.507562	 1.822272	 0.303070
C	 1.846395	 0.458358	 -0.204370
H	 0.326360	 -1.058416	 -0.201096
H	 0.501357	 -0.230229	 1.319298
C	 3.007533	 -0.456589	 0.170352
H	 1.836994	 0.604121	 -1.281109
H	 2.006353	 1.440197	 0.233917
H	 2.894318	 -1.436034	 -0.282178
H	 3.954737	 -0.046370	 -0.161054
H	 3.065433	 -0.595526	 1.244964

	symmetry c1
}
set optking {
	frozen_dihedral = ("
		10 7 4 8
	")
}

ee,wfn = optimize('scf', return_wfn=True)
oeprop( wfn, 'DIPOLE', 'QUADRUPOLE', 'MULLIKEN_CHARGES')
f=open( 'psi4out.xyz', 'w' )
f.write( "18  " )
f.write( str(ee) + "\n" )
f.write( MOL.save_string_xyz() )
f.close()
--------------------------------------------------------------------------

    Molecular point group: c1
  Charge       = 0
  Multiplicity = 1
  Basis Set: CC-PVTZ
  Basis Set:
  @DF-RHF Final Energy:  -271.28690881210497
    Total Energy =                       -271.2869088121051959
    Molecular point group: c1
  Basis Set: CC-PVTZ
  Basis Set:
  Basis Set: CC-PVTZ
  Basis Set:
  @DF-RHF Final Energy:  -271.28691052211002
    Total Energy =                       -271.2869105221101904
  Basis Set: CC-PVTZ
  Basis Set:
  Basis Set: CC-PVTZ
  Basis Set:
  @DF-RHF Final Energy:  -271.28691192570653
    Total Energy =                       -271.2869119257069315
  Basis Set: CC-PVTZ
  Basis Set:
  Charge       = 0
  Multiplicity = 1
  Basis Set: CC-PVTZ
  Basis Set:

    Orbital Energies (a.u.)
    -----------------------

    Doubly Occupied:

       1A    -20.546234     2A    -11.265915     3A    -11.210453
       4A    -11.209160     5A    -11.204998     6A    -11.202806
       7A     -1.364131     8A     -1.076607     9A     -1.010271
      10A     -0.914462    11A     -0.818445    12A     -0.784759
      13A     -0.708235    14A     -0.643865    15A     -0.626923
      16A     -0.582114    17A     -0.572221    18A     -0.559372
      19A     -0.524424    20A     -0.502375    21A     -0.488755
      22A     -0.468518    23A     -0.459288    24A     -0.449735
      25A     -0.431354

  @DF-RHF Final Energy:  -271.28691195035105

   => Energetics <=

    Nuclear Repulsion Energy =            249.2902895477578795
    One-Electron Energy =                -861.9035649192403525
    Two-Electron Energy =                 341.3263634211313047
    DFT Exchange-Correlation Energy =       0.0000000000000000
    Empirical Dispersion Energy =           0.0000000000000000
    PCM Polarization Energy =               0.0000000000000000
    EFP Energy =                            0.0000000000000000
    Total Energy =                       -271.2869119503511683
    Molecular point group: c1
  Basis Set: CC-PVTZ
  Basis Set:

  -Total Gradient:
     Atom            X                  Y                   Z
    ------   -----------------  -----------------  -----------------
       1        0.000002092256     0.000001015116     0.000000174588
       2       -0.000007586650    -0.000002987023    -0.000001933225
       3        0.000005526972     0.000005051411     0.000008825149
       4        0.000340820395     0.000483384205     0.000129272836
       5        0.000001077037    -0.000001728182     0.000000850943
       6       -0.000004386500    -0.000002729941    -0.000000807088
       7       -0.000106270061    -0.000290447159    -0.000389304097
       8       -0.000263962877    -0.000342608243    -0.000037277384
       9        0.000001584775    -0.000009247278     0.000002326703
      10        0.000030581645     0.000158497538     0.000287836162
      11       -0.000003016089     0.000009144712     0.000004147919
      12        0.000003610832    -0.000001987125     0.000003975972
      13        0.000000010728    -0.000005527031    -0.000008658060
      14        0.000003635486     0.000001034560     0.000001239781
      15       -0.000002471146    -0.000001927744     0.000000670146
      16        0.000001190432    -0.000001559467     0.000003033607
      17       -0.000000447643    -0.000001447628    -0.000002330305
      18       -0.000001989594     0.000004069278    -0.000002043648

  **** Optimization is complete! (in 4 steps) ****
    Final optimized geometry and variables:
    Molecular point group: c1

    Geometry (in Angstrom), charge = 0, multiplicity = 1:

    H           -3.142707999209    -1.215950336630    -0.036267518899
    O           -2.318589555623    -0.877940201850    -0.333705615395
    C           -2.025058546261     0.327924911196     0.323104857458
    C           -0.672428736078     0.829838387414    -0.144022213395
    H           -2.785449669661     1.072497413350     0.101335863638
    H           -2.013193059939     0.179980730623     1.401192960472
    C            0.487787385814    -0.089168524312     0.227291439398
    H           -0.710830184084     0.956667903590    -1.221752255019
    H           -0.512776076626     1.815248973330     0.285937704547
    C            1.843494674123     0.450407334172    -0.219310476306
    H            0.322486807353    -1.067042694865    -0.210046956968
    H            0.499050511488    -0.232028551998     1.306007993806
    C            3.003447407752    -0.468368194942     0.149526770937
    H            1.832662274912     0.600554000586    -1.295491650558
    H            2.006033264568     1.430073972981     0.222644860736
    H            2.887146510506    -1.445942678494    -0.306184574543
    H            3.950810880750    -0.059017663857    -0.182454150664
    H            3.063274648294    -0.611210977408     1.223504035448

  Mulliken Charges: (a.u.)
   Center  Symbol    Alpha    Beta     Spin     Total
       1     H     0.39573  0.39573  0.00000  0.20854
       2     O     4.19884  4.19884  0.00000 -0.39767
       3     C     2.97379  2.97379  0.00000  0.05241
       4     C     3.09119  3.09119  0.00000 -0.18237
       5     H     0.46547  0.46547  0.00000  0.06906
       6     H     0.47372  0.47372  0.00000  0.05255
       7     C     3.08635  3.08635  0.00000 -0.17270
       8     H     0.45203  0.45203  0.00000  0.09594
       9     H     0.45443  0.45443  0.00000  0.09115
      10     C     3.08361  3.08361  0.00000 -0.16721
      11     H     0.44428  0.44428  0.00000  0.11143
      12     H     0.45973  0.45973  0.00000  0.08055
      13     C     3.14980  3.14980  0.00000 -0.29960
      14     H     0.45446  0.45446  0.00000  0.09107
      15     H     0.45677  0.45677  0.00000  0.08645
      16     H     0.45442  0.45442  0.00000  0.09117
      17     H     0.44937  0.44937  0.00000  0.10125
      18     H     0.45602  0.45602  0.00000  0.08797

   Total alpha = 25.00000, Total beta = 25.00000, Total charge =  0.00000

*** Psi4 exiting successfully. Buy a developer a beer!
