  ==> Input File <==

--------------------------------------------------------------------------
set {
	reference rhf
	basis cc-pvtz
}

set_num_threads( 4 )
memory 2 gb

molecule MOL {
0 1

H	 2.867672	 -0.456275	 0.875795
C	 2.403497	 -0.020426	 0.000000
N	 0.989899	 -0.304564	 0.000000
H	 2.867672	 -0.456275	 -0.875795
H	 2.620366	 1.051270	 0.000000
C	 0.199528	 0.819417	 0.457763
C	 0.665292	 -1.497779	 0.753948
H	 0.453263	 1.093981	 1.486343
H	 0.403669	 1.678439	 -0.170835
C	 -1.277184	 0.481666	 0.383684
H	 1.211180	 -2.338959	 0.342671
H	 0.954059	 -1.397503	 1.804806
C	 -0.823387	 -1.775992	 0.672259
H	 -1.870464	 1.279031	 0.808953
H	 -1.568733	 0.351819	 -0.656623
O	 -1.566881	 -0.676816	 1.108350
H	 -1.088645	 -2.610547	 1.306122
H	 -1.091454	 -2.022666	 -0.353115

	symmetry c1
}
set optking {
	frozen_dihedral = ("
		6 3 2 5
	")
}

ee = optimize('scf')
oeprop('DIPOLE', 'QUADRUPOLE', 'MULLIKEN_CHARGES')
f=open( 'psi4out.xyz', 'w' )
f.write( "18  " )
f.write( str(ee) + "\n" )
f.write( MOL.save_string_xyz() )
f.close()
--------------------------------------------------------------------------

    Molecular point group: c1
  Charge       = 0
  Multiplicity = 1
  Basis Set: CC-PVTZ
  Basis Set:
  @DF-RHF Final Energy:  -325.14090030163641
    Total Energy =                       -325.1409003016364068
    Molecular point group: c1
  Basis Set: CC-PVTZ
  Basis Set:
  Basis Set: CC-PVTZ
  Basis Set:
  @DF-RHF Final Energy:  -325.14184006596548
    Total Energy =                       -325.1418400659653116
  Basis Set: CC-PVTZ
  Basis Set:
  Basis Set: CC-PVTZ
  Basis Set:
  @DF-RHF Final Energy:  -325.14197055491792
    Total Energy =                       -325.1419705549181458
  Basis Set: CC-PVTZ
  Basis Set:
  Basis Set: CC-PVTZ
  Basis Set:
  @DF-RHF Final Energy:  -325.14198039155377
    Total Energy =                       -325.1419803915540570
  Basis Set: CC-PVTZ
  Basis Set:
  Charge       = 0
  Multiplicity = 1
  Basis Set: CC-PVTZ
  Basis Set:

    Orbital Energies (a.u.)
    -----------------------

    Doubly Occupied:

       1A    -20.547237     2A    -15.541002     3A    -11.263863
       4A    -11.263782     5A    -11.242720     6A    -11.242423
       7A    -11.239118     8A     -1.386044     9A     -1.230759
      10A     -1.039239    11A     -0.981517    12A     -0.884264
      13A     -0.870038    14A     -0.773259    15A     -0.684703
      16A     -0.646220    17A     -0.645009    18A     -0.633750
      19A     -0.628607    20A     -0.572971    21A     -0.558029
      22A     -0.545709    23A     -0.526969    24A     -0.500236
      25A     -0.486243    26A     -0.453764    27A     -0.410485
      28A     -0.348245

  @DF-RHF Final Energy:  -325.14198132523990

   => Energetics <=

    Nuclear Repulsion Energy =            341.5322109641803650
    One-Electron Energy =               -1119.0559798021970437
    Two-Electron Energy =                 452.3817875127765546
    DFT Exchange-Correlation Energy =       0.0000000000000000
    Empirical Dispersion Energy =           0.0000000000000000
    PCM Polarization Energy =               0.0000000000000000
    EFP Energy =                            0.0000000000000000
    Total Energy =                       -325.1419813252400672
    Molecular point group: c1
  Basis Set: CC-PVTZ
  Basis Set:

  -Total Gradient:
     Atom            X                  Y                   Z
    ------   -----------------  -----------------  -----------------
       1        0.000020275648     0.000000153449     0.000007369495
       2       -0.000264338816     0.000221418417    -0.006864178332
       3        0.000443534972    -0.001370056757     0.005641866186
       4       -0.000030610590    -0.000006821151     0.000044082932
       5        0.000164250231     0.000184441491     0.004368189637
       6       -0.000312289027     0.001023819348    -0.003156503303
       7       -0.000010652271    -0.000006500697    -0.000035970398
       8        0.000017700219    -0.000010730647    -0.000009130113
       9       -0.000004432139    -0.000006878160    -0.000002221762
      10       -0.000020346284    -0.000027745744    -0.000034937750
      11        0.000000694053     0.000001441929     0.000003240754
      12       -0.000007746660     0.000005219685    -0.000014158495
      13       -0.000007729791    -0.000031394105     0.000047960035
      14       -0.000002932672    -0.000009904903     0.000006239079
      15       -0.000001190822     0.000015297691    -0.000011568558
      16        0.000028509536     0.000018639815    -0.000002211591
      17       -0.000026887396    -0.000011119681     0.000002452372
      18        0.000014191808     0.000010720018     0.000009479815

  **** Optimization is complete! (in 5 steps) ****
    Final optimized geometry and variables:
    Molecular point group: c1

    Geometry (in Angstrom), charge = 0, multiplicity = 1:

    H            2.851315816211     0.033708348713     0.379200029982
    C            2.330728470680     0.390333187089    -0.511075383171
    N            0.908944245411     0.130825971909    -0.448570342033
    H            2.779092182384    -0.088857584611    -1.373322010856
    H            2.517782253700     1.454947361321    -0.561043544580
    C            0.110029137287     1.255347247041    -0.014580086324
    C            0.576480916543    -1.079075954194     0.267194783797
    H            0.339685550684     1.547812128598     1.015316188722
    H            0.315897847794     2.106830847147    -0.651793848357
    C           -1.363326375432     0.906319027066    -0.111044032404
    H            1.124680195414    -1.910655635225    -0.161663719372
    H            0.858113878595    -1.009017896755     1.322680451239
    C           -0.911808754955    -1.353410383206     0.166243620762
    H           -1.969002674107     1.698476724142     0.306683014501
    H           -1.637173131233     0.776852945817    -1.156360613781
    O           -1.656493019358    -0.256356424645     0.605464911896
    H           -1.186299456458    -2.193875831157     0.788466663887
    H           -1.169633857947    -1.588423083979    -0.864541621961

  Mulliken Charges: (a.u.)
   Center  Symbol    Alpha    Beta     Spin     Total
       1     H     0.46651  0.46651  0.00000  0.06699
       2     C     3.09213  3.09213  0.00000 -0.18425
       3     N     3.61818  3.61818  0.00000 -0.23635
       4     H     0.44909  0.44909  0.00000  0.10182
       5     H     0.45547  0.45547  0.00000  0.08907
       6     C     3.03938  3.03938  0.00000 -0.07875
       7     C     3.04060  3.04060  0.00000 -0.08121
       8     H     0.47005  0.47005  0.00000  0.05990
       9     H     0.45410  0.45410  0.00000  0.09179
      10     C     2.98418  2.98418  0.00000  0.03163
      11     H     0.45421  0.45421  0.00000  0.09157
      12     H     0.46897  0.46897  0.00000  0.06206
      13     C     2.98391  2.98391  0.00000  0.03218
      14     H     0.45003  0.45003  0.00000  0.09994
      15     H     0.46838  0.46838  0.00000  0.06325
      16     O     4.18646  4.18646  0.00000 -0.37293
      17     H     0.45011  0.45011  0.00000  0.09978
      18     H     0.46824  0.46824  0.00000  0.06353

   Total alpha = 28.00000, Total beta = 28.00000, Total charge = -0.00000
