                              Psi4 1.0.54 Driver

  ==> Input File <==

--------------------------------------------------------------------------
set {
	reference rhf
	basis cc-pvtz
}

set_num_threads( 4 )
memory 2 gb

molecule MOL {
0 1

H	 -2.123894	 -0.667238	 -0.609809
O	 -2.041679	 -0.058866	 0.103463
C	 -0.959304	 0.780994	 -0.094939
C	 0.354905	 0.037902	 -0.006215
H	 -0.985899	 1.279578	 -1.057596
H	 -0.969809	 1.529522	 0.682889
F	 0.460166	 -0.854561	 -0.974834
F	 1.363232	 0.876062	 -0.126055
F	 0.495274	 -0.599843	 1.131128

	symmetry c1
}
set optking {
	frozen_dihedral = ("
		7 4 3 5
	")
}

ee,wfn = optimize('scf', return_wfn=True)
oeprop( wfn, 'DIPOLE', 'QUADRUPOLE', 'MULLIKEN_CHARGES')
f=open( 'psi4out.xyz', 'w' )
f.write( "9  " )
f.write( str(ee) + "\n" )
f.write( MOL.save_string_xyz() )
f.close()
--------------------------------------------------------------------------

    Molecular point group: c1
  Charge       = 0
  Multiplicity = 1
  Basis Set: CC-PVTZ
  Basis Set:
  @DF-RHF Final Energy:  -450.84711804037715
    Total Energy =                       -450.8471180403772678
    Molecular point group: c1
  Basis Set: CC-PVTZ
  Basis Set:
  Basis Set: CC-PVTZ
  Basis Set:
  @DF-RHF Final Energy:  -450.84713598031811
    Total Energy =                       -450.8471359803181713
  Basis Set: CC-PVTZ
  Basis Set:
  Basis Set: CC-PVTZ
  Basis Set:
  @DF-RHF Final Energy:  -450.84714097715602
    Total Energy =                       -450.8471409771560161
  Basis Set: CC-PVTZ
  Basis Set:
  Charge       = 0
  Multiplicity = 1
  Basis Set: CC-PVTZ
  Basis Set:

    Orbital Energies (a.u.)
    -----------------------

    Doubly Occupied:

       1A    -26.339267     2A    -26.338801     3A    -26.335915
       4A    -20.583682     5A    -11.493407     6A    -11.310147
       7A     -1.747545     8A     -1.644140     9A     -1.643068
      10A     -1.407031    11A     -1.050461    12A     -0.929647
      13A     -0.837901    14A     -0.835808    15A     -0.810686
      16A     -0.732828    17A     -0.718492    18A     -0.703583
      19A     -0.671313    20A     -0.665630    21A     -0.649084
      22A     -0.633017    23A     -0.618667    24A     -0.534598
      25A     -0.484650

  @DF-RHF Final Energy:  -450.84714129448173

   => Energetics <=

    Nuclear Repulsion Energy =            277.6651817836219607
    One-Electron Energy =               -1177.5859123157420072
    Two-Electron Energy =                 449.0735892376385436
    DFT Exchange-Correlation Energy =       0.0000000000000000
    Empirical Dispersion Energy =           0.0000000000000000
    PCM Polarization Energy =               0.0000000000000000
    EFP Energy =                            0.0000000000000000
    Total Energy =                       -450.8471412944815029
    Molecular point group: c1
  Basis Set: CC-PVTZ
  Basis Set:

  -Total Gradient:
     Atom            X                  Y                   Z
    ------   -----------------  -----------------  -----------------
       1        0.000002787022    -0.000009350263     0.000006655772
       2       -0.000015525482     0.000003787696     0.000006987580
       3        0.000908945308     0.001730480294     0.000484840124
       4       -0.000802503407    -0.001284716250     0.000798225491
       5       -0.000603386479    -0.001165100460    -0.000618351765
       6       -0.000001142483    -0.000035922516     0.000007067975
       7        0.000539880304     0.000853091085    -0.000731307359
       8       -0.000064645329    -0.000075369705    -0.000003129146
       9        0.000035590549    -0.000016899879     0.000049011328

  **** Optimization is complete! (in 4 steps) ****
    Final optimized geometry and variables:
    Molecular point group: c1

    Geometry (in Angstrom), charge = 0, multiplicity = 1:

    H           -2.124458338296    -0.661887992866    -0.645326778704
    O           -2.042695200707    -0.075824714781     0.086378370612
    C           -0.964059695253     0.775403950289    -0.088365711499
    C            0.353891717265     0.038785955106    -0.001230827312
    H           -0.988240326274     1.280193498019    -1.047712577408
    H           -0.987960172106     1.512520375033     0.699590428249
    F            0.466698397192    -0.845793486534    -0.976536013987
    F            1.356347352379     0.885025213800    -0.119219408549
    F            0.499649330023    -0.602698486055     1.132325153804

  Mulliken Charges: (a.u.)
   Center  Symbol    Alpha    Beta     Spin     Total
       1     H     0.38689  0.38689  0.00000  0.22622
       2     O     4.19246  4.19246  0.00000 -0.38493
       3     C     2.99066  2.99066  0.00000  0.01868
       4     C     2.68469  2.68469  0.00000  0.63061
       5     H     0.46147  0.46147  0.00000  0.07706
       6     H     0.44697  0.44697  0.00000  0.10607
       7     F     4.61754  4.61754  0.00000 -0.23509
       8     F     4.61260  4.61260  0.00000 -0.22520
       9     F     4.60671  4.60671  0.00000 -0.21343

   Total alpha = 25.00000, Total beta = 25.00000, Total charge =  0.00000

*** Psi4 exiting successfully. Buy a developer a beer!
