  ==> Input File <==

--------------------------------------------------------------------------
set {
	reference rhf
	basis cc-pvtz
}

set_num_threads( 4 )
memory 2 gb

molecule MOL {
0 1

O	 2.426299	 2.037216	 -0.324930
C	 1.481941	 2.268606	 -1.006660
C	 0.229639	 1.416297	 -0.972889
C	 1.467938	 3.440533	 -1.961970
C	 0.288398	 0.247429	 0.000314
H	 -0.606112	 2.071653	 -0.738163
H	 0.044884	 1.065613	 -1.985752
C	 -0.993089	 -0.581367	 -0.000217
H	 0.482737	 0.624787	 0.997784
H	 1.134431	 -0.382071	 -0.250868
C	 -2.258482	 0.271340	 0.000669
H	 -1.002280	 -1.233920	 -0.870484
H	 -1.002061	 -1.235367	 0.868958
C	 -3.544441	 -0.550271	 -0.000253
H	 -2.250545	 0.925250	 -0.867923
H	 -2.250598	 0.923423	 0.870642
C	 -4.804551	 0.308747	 0.000556
H	 -3.553737	 -1.201524	 -0.870151
H	 -3.553831	 -1.203282	 0.868313
H	 -4.842050	 0.949078	 -0.874436
H	 -5.698404	 -0.304480	 -0.000254
H	 -4.842277	 0.947103	 0.876982
H	 0.650029	 4.110375	 -1.720343
H	 2.404206	 3.973558	 -1.901328
H	 1.310634	 3.093338	 -2.977230

	symmetry c1
}
set optking {
	frozen_dihedral = ("
		9 5 8 12
	")
}

ee = optimize('scf')
oeprop('DIPOLE', 'QUADRUPOLE', 'MULLIKEN_CHARGES')
f=open( 'psi4out.xyz', 'w' )
f.write( "25  " )
f.write( str(ee) + "\n" )
f.write( MOL.save_string_xyz() )
f.close()
--------------------------------------------------------------------------

    Molecular point group: c1
  Charge       = 0
  Multiplicity = 1
  Basis Set: CC-PVTZ
  Basis Set:
  @DF-RHF Final Energy:  -387.26890707138978
    Total Energy =                       -387.2689070713895489
    Molecular point group: c1
  Basis Set: CC-PVTZ
  Basis Set:
  Basis Set: CC-PVTZ
  Basis Set:
  @DF-RHF Final Energy:  -387.27022411691348
    Total Energy =                       -387.2702241169132549
  Basis Set: CC-PVTZ
  Basis Set:
  Basis Set: CC-PVTZ
  Basis Set:
  @DF-RHF Final Energy:  -387.27144694039606
    Total Energy =                       -387.2714469403961175
  Basis Set: CC-PVTZ
  Basis Set:
  Basis Set: CC-PVTZ
  Basis Set:
  @DF-RHF Final Energy:  -387.27104794134260
    Total Energy =                       -387.2710479413432267
  Basis Set: CC-PVTZ
  Basis Set:
  Basis Set: CC-PVTZ
  Basis Set:
  @DF-RHF Final Energy:  -387.27152594435182
    Total Energy =                       -387.2715259443513105
  Basis Set: CC-PVTZ
  Basis Set:
  Basis Set: CC-PVTZ
  Basis Set:
  @DF-RHF Final Energy:  -387.27158361340599
    Total Energy =                       -387.2715836134063920
  Basis Set: CC-PVTZ
  Basis Set:
  Charge       = 0
  Multiplicity = 1
  Basis Set: CC-PVTZ
  Basis Set:

    Orbital Energies (a.u.)
    -----------------------

    Doubly Occupied:

       1A    -20.538776     2A    -11.320418     3A    -11.229735
       4A    -11.226465     5A    -11.215724     6A    -11.215363
       7A    -11.214883     8A    -11.214499     9A    -11.208950
      10A     -1.398878    11A     -1.095847    12A     -1.057091
      13A     -1.015490    14A     -0.969012    15A     -0.900339
      16A     -0.817245    17A     -0.787516    18A     -0.730867
      19A     -0.660104    20A     -0.654360    21A     -0.636587
      22A     -0.624155    23A     -0.597875    24A     -0.582752
      25A     -0.568848    26A     -0.564383    27A     -0.544702
      28A     -0.529817    29A     -0.518328    30A     -0.495653
      31A     -0.491352    32A     -0.476885    33A     -0.460476
      34A     -0.460017    35A     -0.448501    36A     -0.402897

  @DF-RHF Final Energy:  -387.27158404081905

   => Energetics <=

    Nuclear Repulsion Energy =            445.8451041270653263
    One-Electron Energy =               -1408.4837948323745422
    Two-Electron Energy =                 575.3671066644903931
    DFT Exchange-Correlation Energy =       0.0000000000000000
    Empirical Dispersion Energy =           0.0000000000000000
    PCM Polarization Energy =               0.0000000000000000
    EFP Energy =                            0.0000000000000000
    Total Energy =                       -387.2715840408188797
    Molecular point group: c1
  Basis Set: CC-PVTZ
  Basis Set:

  -Total Gradient:
     Atom            X                  Y                   Z
    ------   -----------------  -----------------  -----------------
       1        0.000012199728     0.000000751095    -0.000009078096
       2       -0.000017241507     0.000004748041     0.000023005059
       3        0.000000971359     0.000009213580     0.000018671382
       4       -0.000000822655     0.000000755336     0.000000841440
       5       -0.002223518865     0.003371111000    -0.000514473800
       6        0.000005903185     0.000007977260    -0.000002109066
       7       -0.000004744805    -0.000009283783     0.000007181701
       8       -0.001663854731     0.002755020738    -0.002395283474
       9        0.002121630883    -0.003239724801     0.000805947465
      10       -0.000001369807    -0.000015751126    -0.000009119313
      11        0.000016155535    -0.000006480852    -0.000032244199
      12        0.001760224695    -0.002851533115     0.002062238909
      13       -0.000015515139     0.000007248552     0.000013770293
      14        0.000009684712    -0.000004578897     0.000041554661
      15       -0.000005606094    -0.000010756027     0.000010007693
      16        0.000015467164    -0.000002961124    -0.000004294013
      17       -0.000002956281    -0.000002920276    -0.000026996316
      18       -0.000010892650     0.000003357015     0.000009638123
      19        0.000000116144    -0.000006794170     0.000007362801
      20       -0.000001754032     0.000010542428     0.000005352478
      21       -0.000005238665     0.000000692030    -0.000008905856
      22        0.000003912422    -0.000013000855    -0.000000599786
      23        0.000002310149    -0.000004924779    -0.000001620702
      24        0.000002129747    -0.000000023548    -0.000001141408
      25        0.000002809508    -0.000002683723     0.000000294023

  **** Optimization is complete! (in 7 steps) ****
    Final optimized geometry and variables:
    Molecular point group: c1

    Geometry (in Angstrom), charge = 0, multiplicity = 1:

    O            3.141304550554     0.960769003838     0.165443361943
    C            2.234369804202     1.271509818460    -0.535037876124
    C            0.907981658560     0.537647620613    -0.522784867389
    C            2.343625498836     2.434972555261    -1.494900247491
    C            0.853910086249    -0.629374528646     0.452929845722
    H            0.137940926082     1.272717470457    -0.309256816281
    H            0.712429979108     0.199652517587    -1.538453497020
    C           -0.422656999605    -1.473801017569     0.385033257786
    H            1.009248846219    -0.275778716963     1.466073532652
    H            1.700157481872    -1.276919610618     0.255841255560
    C           -1.740174629687    -0.705596230783     0.444349863188
    H           -0.394458002687    -2.103682065328    -0.501146860619
    H           -0.393331554766    -2.167991267122     1.220698148632
    C           -2.958768551599    -1.620026808698     0.539569823949
    H           -1.845822609824    -0.074090824295    -0.433002265105
    H           -1.728146902282    -0.036777364877     1.302694173732
    C           -4.279167647519    -0.858180738897     0.581089438150
    H           -2.962443040413    -2.300650281361    -0.307552025485
    H           -2.872896480549    -2.240363127989     1.427200355585
    H           -4.412104839489    -0.255126463439    -0.311112207096
    H           -5.122031064170    -1.536269062517     0.649368737067
    H           -4.320329206386    -0.192869688437     1.437176125428
    H            1.586643062492     3.178046059571    -1.269497480275
    H            3.323559321233     2.880654933151    -1.420244113567
    H            2.172184353093     2.098374506692    -2.511436605652

  Mulliken Charges: (a.u.)
   Center  Symbol    Alpha    Beta     Spin     Total
       1     O     4.17007  4.17007  0.00000 -0.34015
       2     C     2.86206  2.86206  0.00000  0.27588
       3     C     3.11634  3.11634  0.00000 -0.23268
       4     C     3.15102  3.15102  0.00000 -0.30205
       5     C     3.09265  3.09265  0.00000 -0.18530
       6     H     0.44211  0.44211  0.00000  0.11578
       7     H     0.44433  0.44433  0.00000  0.11135
       8     C     3.10033  3.10033  0.00000 -0.20065
       9     H     0.44478  0.44478  0.00000  0.11045
      10     H     0.44110  0.44110  0.00000  0.11780
      11     C     3.09160  3.09160  0.00000 -0.18320
      12     H     0.45181  0.45181  0.00000  0.09637
      13     H     0.44802  0.44802  0.00000  0.10395
      14     C     3.08458  3.08458  0.00000 -0.16917
      15     H     0.45410  0.45410  0.00000  0.09180
      16     H     0.45316  0.45316  0.00000  0.09369
      17     C     3.14982  3.14982  0.00000 -0.29964
      18     H     0.45445  0.45445  0.00000  0.09109
      19     H     0.45257  0.45257  0.00000  0.09486
      20     H     0.45604  0.45604  0.00000  0.08792
      21     H     0.44780  0.44780  0.00000  0.10441
      22     H     0.45491  0.45491  0.00000  0.09018
      23     H     0.45059  0.45059  0.00000  0.09881
      24     H     0.43515  0.43515  0.00000  0.12970
      25     H     0.45061  0.45061  0.00000  0.09878

   Total alpha = 36.00000, Total beta = 36.00000, Total charge = -0.00000
