  ==> Input File <==

--------------------------------------------------------------------------
set {
	reference rhf
	basis 6-31G*
}

set_num_threads( 1 )
memory 2 gb

molecule MOL {
0 1

H	 -2.394686	 -2.405655	 -2.352791
O	 -2.415330	 -1.786392	 -1.637256
C	 -1.106530	 -1.388107	 -1.319446
C	 -1.177863	 -0.397191	 -0.171080
H	 -0.503241	 -2.248423	 -1.032732
H	 -0.626717	 -0.926095	 -2.181226
C	 0.198102	 0.111031	 0.262842
H	 -1.680137	 -0.877513	 0.664228
H	 -1.806062	 0.435113	 -0.476223
C	 1.331804	 -0.827780	 -0.158768
H	 0.361943	 1.100838	 -0.156218
H	 0.217265	 0.229072	 1.345532
C	 2.723619	 -0.410569	 0.329459
H	 1.342964	 -0.912588	 -1.244120
H	 1.116806	 -1.824343	 0.220779
C	 3.243875	 0.895854	 -0.272975
H	 3.424222	 -1.207124	 0.091250
H	 2.714788	 -0.329854	 1.414619
H	 3.251977	 0.848779	 -1.358681
H	 2.637085	 1.747371	 0.016682
H	 4.259473	 1.094070	 0.055697

	symmetry c1
}
set optking {
	frozen_dihedral = ("
		2 3 4 8,
		4 7 10 14,
		16 13 10 14,
		1 2 3 5
	")
}

ee = energy('scf')
oeprop('DIPOLE', 'QUADRUPOLE', 'MULLIKEN_CHARGES')
f=open( 'psi4out.xyz', 'w' )
f.write( "21  " )
f.write( str(ee) + "\n" )
f.write( MOL.save_string_xyz() )
f.close()
--------------------------------------------------------------------------

    Molecular point group: c1

    Geometry (in Angstrom), charge = 0, multiplicity = 1:

       Center              X                  Y                   Z               Mass
    ------------   -----------------  -----------------  -----------------  -----------------
           H         -2.750548375250    -1.836708567523    -1.890718534510     1.007825032070
           O         -2.771192375250    -1.217445567523    -1.175183534510    15.994914619560
           C         -1.462392375250    -0.819160567523    -0.857373534510    12.000000000000
           C         -1.533725375250     0.171755432477     0.290992465490    12.000000000000
           H         -0.859103375250    -1.679476567523    -0.570659534510     1.007825032070
           H         -0.982579375250    -0.357148567523    -1.719153534510     1.007825032070
           C         -0.157760375250     0.679977432477     0.724914465490    12.000000000000
           H         -2.035999375250    -0.308566567523     1.126300465490     1.007825032070
           H         -2.161924375250     1.004059432477    -0.014150534510     1.007825032070
           C          0.975941624750    -0.258833567523     0.303304465490    12.000000000000
           H          0.006080624750     1.669784432477     0.305854465490     1.007825032070
           H         -0.138597375250     0.798018432477     1.807604465490     1.007825032070
           C          2.367756624750     0.158377432477     0.791531465490    12.000000000000
           H          0.987101624750    -0.343641567523    -0.782047534510     1.007825032070
           H          0.760943624750    -1.255396567523     0.682851465490     1.007825032070
           C          2.888012624750     1.464800432477     0.189097465490    12.000000000000
           H          3.068359624750    -0.638177567523     0.553322465490     1.007825032070
           H          2.358925624750     0.239092432477     1.876691465490     1.007825032070
           H          2.896114624750     1.417725432477    -0.896608534510     1.007825032070
           H          2.281222624750     2.316317432477     0.478754465490     1.007825032070
           H          3.903610624750     1.663016432477     0.517769465490     1.007825032070

  Charge       = 0
  Multiplicity = 1
  Basis Set: 6-31G*
  Basis Set:

    Orbital Energies (a.u.)
    -----------------------

    Doubly Occupied:

       1A    -20.550128     2A    -11.264923     3A    -11.216440
       4A    -11.215603     5A    -11.214554     6A    -11.209496
       7A    -11.209229     8A     -1.357161     9A     -1.090673
      10A     -1.032197    11A     -0.947338    12A     -0.888873
      13A     -0.818184    14A     -0.760389    15A     -0.695900
      16A     -0.663206    17A     -0.617752    18A     -0.606441
      19A     -0.593813    20A     -0.565078    21A     -0.543486
      22A     -0.522179    23A     -0.514273    24A     -0.493338
      25A     -0.480336    26A     -0.461085    27A     -0.450316
      28A     -0.442941    29A     -0.425426

  @DF-RHF Final Energy:  -310.20150595416163

   => Energetics <=

    Nuclear Repulsion Energy =            320.2511047544851976
    One-Electron Energy =               -1055.2040873107509924
    Two-Electron Energy =                 424.7514766021046171
    DFT Exchange-Correlation Energy =       0.0000000000000000
    Empirical Dispersion Energy =           0.0000000000000000
    PCM Polarization Energy =               0.0000000000000000
    EFP Energy =                            0.0000000000000000
    Total Energy =                       -310.2015059541612345

  Mulliken Charges: (a.u.)
   Center  Symbol    Alpha    Beta     Spin     Total
       1     H     0.28163  0.28163  0.00000  0.43675
       2     O     4.37455  4.37455  0.00000 -0.74910
       3     C     2.99333  2.99333  0.00000  0.01334
       4     C     3.16159  3.16159  0.00000 -0.32319
       5     H     0.42892  0.42892  0.00000  0.14215
       6     H     0.43217  0.43217  0.00000  0.13565
       7     C     3.15992  3.15992  0.00000 -0.31984
       8     H     0.41355  0.41355  0.00000  0.17289
       9     H     0.41220  0.41220  0.00000  0.17560
      10     C     3.16611  3.16611  0.00000 -0.33222
      11     H     0.41851  0.41851  0.00000  0.16298
      12     H     0.41906  0.41906  0.00000  0.16187
      13     C     3.14939  3.14939  0.00000 -0.29878
      14     H     0.42231  0.42231  0.00000  0.15537
      15     H     0.41964  0.41964  0.00000  0.16071
      16     C     3.24138  3.24138  0.00000 -0.48275
      17     H     0.42151  0.42151  0.00000  0.15699
      18     H     0.42294  0.42294  0.00000  0.15411
      19     H     0.42286  0.42286  0.00000  0.15427
      20     H     0.41946  0.41946  0.00000  0.16109
      21     H     0.41895  0.41895  0.00000  0.16210

   Total alpha = 29.00000, Total beta = 29.00000, Total charge =  0.00000
