                              Psi4 1.0.54 Driver

  ==> Input File <==

--------------------------------------------------------------------------
set {
	reference rhf
	basis cc-pvtz
}

set_num_threads( 4 )
memory 2 gb

molecule MOL {
0 1

H	 -2.266619	 1.169943	 0.000098
O	 -1.438073	 1.611259	 0.000041
C	 -0.408657	 0.734701	 0.000005
C	 0.205775	 0.492906	 1.214673
C	 0.022803	 0.098918	 -1.158328
H	 -0.156464	 1.003120	 2.085532
C	 1.262393	 -0.389758	 1.288367
C	 1.086453	 -0.782813	 -1.054756
C	 -0.648777	 0.363849	 -2.483090
H	 1.734503	 -0.572503	 2.234779
C	 1.709730	 -1.034130	 0.151220
H	 1.431814	 -1.282209	 -1.940926
H	 -0.580083	 1.410064	 -2.767754
H	 -0.183990	 -0.214009	 -3.268897
H	 -1.700917	 0.093824	 -2.462778
H	 2.531121	 -1.722035	 0.200958

	symmetry c1
}
set optking {
	frozen_dihedral = ("
		4 3 2 1
	")
}

ee,wfn = optimize('scf', return_wfn=True)
oeprop( wfn, 'DIPOLE', 'QUADRUPOLE', 'MULLIKEN_CHARGES')
f=open( 'psi4out.xyz', 'w' )
f.write( "16  " )
f.write( str(ee) + "\n" )
f.write( MOL.save_string_xyz() )
f.close()
--------------------------------------------------------------------------

    Molecular point group: c1
  Charge       = 0
  Multiplicity = 1
  Basis Set: CC-PVTZ
  Basis Set:
  @DF-RHF Final Energy:  -344.71528569662303
    Total Energy =                       -344.7152856966233685
    Molecular point group: c1
  Basis Set: CC-PVTZ
  Basis Set:
  Basis Set: CC-PVTZ
  Basis Set:
  @DF-RHF Final Energy:  -344.71611828177913
    Total Energy =                       -344.7161182817791314
  Basis Set: CC-PVTZ
  Basis Set:
  Basis Set: CC-PVTZ
  Basis Set:
  @DF-RHF Final Energy:  -344.71618609729524
    Total Energy =                       -344.7161860972951786
  Basis Set: CC-PVTZ
  Basis Set:
  Basis Set: CC-PVTZ
  Basis Set:
  @DF-RHF Final Energy:  -344.71619740394698
    Total Energy =                       -344.7161974039472057
  Basis Set: CC-PVTZ
  Basis Set:
  Basis Set: CC-PVTZ
  Basis Set:
  @DF-RHF Final Energy:  -344.71620086378687
    Total Energy =                       -344.7162008637869235
  Basis Set: CC-PVTZ
  Basis Set:
  Charge       = 0
  Multiplicity = 1
  Basis Set: CC-PVTZ
  Basis Set:

    Orbital Energies (a.u.)
    -----------------------

    Doubly Occupied:

       1A    -20.569933     2A    -11.282588     3A    -11.233885
       4A    -11.226989     5A    -11.226371     6A    -11.222949
       7A    -11.222493     8A    -11.219916     9A     -1.396211
      10A     -1.153645    11A     -1.048590    12A     -1.007133
      13A     -0.936333    14A     -0.831573    15A     -0.810802
      16A     -0.730127    17A     -0.671388    18A     -0.658383
      19A     -0.625568    20A     -0.594435    21A     -0.573790
      22A     -0.569148    23A     -0.547391    24A     -0.522122
      25A     -0.503024    26A     -0.488083    27A     -0.466448
      28A     -0.333624    29A     -0.322381

  @DF-RHF Final Energy:  -344.71620157910678

   => Energetics <=

    Nuclear Repulsion Energy =            350.4684547445994554
    One-Electron Energy =               -1162.3786712721580443
    Two-Electron Energy =                 467.1940149484514677
    DFT Exchange-Correlation Energy =       0.0000000000000000
    Empirical Dispersion Energy =           0.0000000000000000
    PCM Polarization Energy =               0.0000000000000000
    EFP Energy =                            0.0000000000000000
    Total Energy =                       -344.7162015791070644
    Molecular point group: c1
  Basis Set: CC-PVTZ
  Basis Set:

  -Total Gradient:
     Atom            X                  Y                   Z
    ------   -----------------  -----------------  -----------------
       1        0.000007383896     0.000034125189     0.000672140252
       2       -0.000217205519    -0.000153031811    -0.000785788129
       3        0.000559336103     0.000442337306     0.000063702338
       4       -0.000419109893    -0.000270723548     0.000102865653
       5        0.000055595655    -0.000034981766    -0.000045282674
       6        0.000007815741    -0.000010682859    -0.000014768733
       7        0.000069395329    -0.000066505252    -0.000045360143
       8       -0.000091257806     0.000076077663    -0.000053982657
       9       -0.000000906864    -0.000033669020     0.000033749434
      10        0.000004937322    -0.000003823686     0.000008261325
      11        0.000018434378     0.000010968457     0.000094992206
      12        0.000003024322    -0.000007320123    -0.000007073668
      13        0.000011794388     0.000016062317    -0.000005178341
      14        0.000001630280    -0.000001770683    -0.000016308291
      15       -0.000002420133     0.000001943597     0.000001604689
      16       -0.000008447202     0.000000994220    -0.000003573259

  **** Optimization is complete! (in 6 steps) ****
    Final optimized geometry and variables:
    Molecular point group: c1

    Geometry (in Angstrom), charge = 0, multiplicity = 1:

    H           -2.416374570037     1.023618812104     0.238708276602
    O           -1.581025289122     1.457421089179     0.233068118783
    C           -0.560826142344     0.545118240924     0.291085467063
    C            0.055576370856     0.310801981541     1.501919268882
    C           -0.134441300015    -0.090262606494    -0.868682415190
    H           -0.297209229779     0.832228717318     2.370481622146
    C            1.115336252875    -0.573450441718     1.580050754774
    C            0.926892336933    -0.973799549674    -0.767392181397
    C           -0.809743954951     0.185386867032    -2.186895153733
    H            1.594221485595    -0.752103316559     2.523626443491
    C            1.550969456709    -1.219647370015     0.442192203398
    H            1.273910858184    -1.475377699316    -1.651427057044
    H           -0.822061212969     1.246060685539    -2.402527513541
    H           -0.298459318770    -0.323643221779    -2.992502825579
    H           -1.840838657097    -0.152887668026    -2.183622957676
    H            2.373410286698    -1.907177481048     0.490249033439

  Mulliken Charges: (a.u.)
   Center  Symbol    Alpha    Beta     Spin     Total
       1     H     0.38990  0.38990  0.00000  0.22019
       2     O     4.18874  4.18874  0.00000 -0.37748
       3     C     2.88578  2.88578  0.00000  0.22844
       4     C     3.10640  3.10640  0.00000 -0.21281
       5     C     2.99503  2.99503  0.00000  0.00994
       6     H     0.41790  0.41790  0.00000  0.16420
       7     C     3.07694  3.07694  0.00000 -0.15388
       8     C     3.09432  3.09432  0.00000 -0.18864
       9     C     3.14786  3.14786  0.00000 -0.29573
      10     H     0.42204  0.42204  0.00000  0.15593
      11     C     3.07912  3.07912  0.00000 -0.15824
      12     H     0.42454  0.42454  0.00000  0.15093
      13     H     0.44049  0.44049  0.00000  0.11902
      14     H     0.45128  0.45128  0.00000  0.09744
      15     H     0.45566  0.45566  0.00000  0.08867
      16     H     0.42399  0.42399  0.00000  0.15202

   Total alpha = 29.00000, Total beta = 29.00000, Total charge = -0.00000

*** Psi4 exiting successfully. Buy a developer a beer!
