                              Psi4 1.0.54 Driver

  ==> Input File <==

--------------------------------------------------------------------------
set {
	reference rhf
	basis cc-pvtz
}

set_num_threads( 4 )
memory 2 gb

molecule MOL {
0 1

O	 -3.531797	 -0.149601	 0.760088
C	 -2.664672	 0.129869	 0.003507
C	 -2.788460	 1.194865	 -1.052308
O	 -1.481217	 -0.452708	 0.001092
H	 -3.023428	 2.133377	 -0.568504
H	 -1.884672	 1.294907	 -1.631790
H	 -3.617040	 0.942115	 -1.700108
C	 -0.332055	 0.384012	 -0.000250
C	 0.892252	 -0.506059	 -0.000295
H	 -0.360822	 1.020205	 -0.874146
H	 -0.359817	 1.021310	 0.872861
C	 2.188199	 0.299473	 -0.001416
H	 0.857046	 -1.152781	 -0.871031
H	 0.857910	 -1.151798	 0.871202
C	 3.437151	 -0.577593	 -0.000991
H	 2.209565	 0.950707	 -0.871712
H	 2.210062	 0.952234	 0.867721
C	 4.732399	 0.226982	 -0.000914
H	 3.417321	 -1.229122	 -0.869998
H	 3.416993	 -1.228707	 0.868337
H	 4.797903	 0.863451	 -0.876963
H	 5.598517	 -0.424436	 -0.000420
H	 4.797415	 0.864118	 0.874691

	symmetry c1
}
set optking {
	frozen_dihedral = ("
		1 2 4 8
	")
}

ee,wfn = optimize('scf', return_wfn=True)
oeprop( wfn, 'DIPOLE', 'QUADRUPOLE', 'MULLIKEN_CHARGES')
f=open( 'psi4out.xyz', 'w' )
f.write( "23  " )
f.write( str(ee) + "\n" )
f.write( MOL.save_string_xyz() )
f.close()
--------------------------------------------------------------------------

    Molecular point group: c1
  Charge       = 0
  Multiplicity = 1
  Basis Set: CC-PVTZ
  Basis Set:
  @DF-RHF Final Energy:  -423.11023347140144
    Total Energy =                       -423.1102334714015569
    Molecular point group: c1
  Basis Set: CC-PVTZ
  Basis Set:
  Basis Set: CC-PVTZ
  Basis Set:
  @DF-RHF Final Energy:  -423.00189644536420
    Total Energy =                       -423.0018964453639683
  Basis Set: CC-PVTZ
  Basis Set:
  Basis Set: CC-PVTZ
  Basis Set:
  @DF-RHF Final Energy:  -423.09389451206374
    Total Energy =                       -423.0938945120639119
  Basis Set: CC-PVTZ
  Basis Set:
  Basis Set: CC-PVTZ
  Basis Set:
  @DF-RHF Final Energy:  -423.11379903040000
    Total Energy =                       -423.1137990304002869
  Basis Set: CC-PVTZ
  Basis Set:
  @DF-RHF Final Energy:  -423.06263386647498
    Total Energy =                       -423.0626338664746982
  @DF-RHF Final Energy:  -423.11195108213792
    Total Energy =                       -423.1119510821380345
  @DF-RHF Final Energy:  -423.11612561373983
    Total Energy =                       -423.1161256137398823
  @DF-RHF Final Energy:  -423.11656694399551
    Total Energy =                       -423.1165669439956218
  @DF-RHF Final Energy:  -423.11684416552680
    Total Energy =                       -423.1168441655264587
  @DF-RHF Final Energy:  -422.97809552827914
    Total Energy =                       -422.9780955282786863
  @DF-RHF Final Energy:  -422.68354110335497
    Total Energy =                       -422.6835411033551964
  @DF-RHF Final Energy:  -422.63575428118668
    Total Energy =                       -422.6357542811866779
  @DF-RHF Final Energy:  -422.88790376028095
    Total Energy =                       -422.8879037602812332
  @DF-RHF Final Energy:  -423.00603999467427
    Total Energy =                       -423.0060399946743246
  @DF-RHF Final Energy:  -423.10416442821696
    Total Energy =                       -423.1041644282167908
  @DF-RHF Final Energy:  -423.11453332247919
    Total Energy =                       -423.1145333224794740
  @DF-RHF Final Energy:  -423.10706715225541
    Total Energy =                       -423.1070671522552402
  @DF-RHF Final Energy:  -423.11604856877722
    Total Energy =                       -423.1160485687771597
  @DF-RHF Final Energy:  -423.11657025011192
    Total Energy =                       -423.1165702501120904
  @DF-RHF Final Energy:  -423.11675782950658
    Total Energy =                       -423.1167578295060139
  @DF-RHF Final Energy:  -423.11689294992897
    Total Energy =                       -423.1168929499286833
  @DF-RHF Final Energy:  -423.11700243028002
    Total Energy =                       -423.1170024302803085
  @DF-RHF Final Energy:  -423.11712012629408
    Total Energy =                       -423.1171201262941395
  @DF-RHF Final Energy:  -423.11728724936097
    Total Energy =                       -423.1172872493610839
  @DF-RHF Final Energy:  -423.11741267191189
    Total Energy =                       -423.1174126719110973
  @DF-RHF Final Energy:  -423.11764874239128
    Total Energy =                       -423.1176487423915660
  @DF-RHF Final Energy:  -423.11775164111947
    Total Energy =                       -423.1177516411194119
  @DF-RHF Final Energy:  -423.11780634269394
    Total Energy =                       -423.1178063426935978
  @DF-RHF Final Energy:  -423.11793865427171
    Total Energy =                       -423.1179386542713701
  @DF-RHF Final Energy:  -423.11798762887912
    Total Energy =                       -423.1179876288788364
  @DF-RHF Final Energy:  -423.11802398923561
    Total Energy =                       -423.1180239892354393
  @DF-RHF Final Energy:  -423.11805557071369
    Total Energy =                       -423.1180555707136364
  Basis Set: CC-PVTZ
  Basis Set:
  @DF-RHF Final Energy:  -423.11807017605372
    Total Energy =                       -423.1180701760539478
  Basis Set: CC-PVTZ
  Basis Set:
  Basis Set: CC-PVTZ
  Basis Set:
  @DF-RHF Final Energy:  -423.11808720383743
    Total Energy =                       -423.1180872038377174
  Basis Set: CC-PVTZ
  Basis Set:
  Basis Set: CC-PVTZ
  Basis Set:
  @DF-RHF Final Energy:  -423.11809450257749
    Total Energy =                       -423.1180945025772644
  Basis Set: CC-PVTZ
  Basis Set:
  Charge       = 0
  Multiplicity = 1
  Basis Set: CC-PVTZ
  Basis Set:

    Orbital Energies (a.u.)
    -----------------------

    Doubly Occupied:

       1A    -20.582609     2A    -20.536589     3A    -11.368432
       4A    -11.293174     5A    -11.237939     6A    -11.226181
       7A    -11.225563     8A    -11.222241     9A    -11.213556
      10A     -1.461728    11A     -1.368903    12A     -1.097524
      13A     -1.036674    14A     -1.013405    15A     -0.940697
      16A     -0.846514    17A     -0.806841    18A     -0.778151
      19A     -0.700517    20A     -0.693076    21A     -0.661557
      22A     -0.651213    23A     -0.618373    24A     -0.594484
      25A     -0.581607    26A     -0.577170    27A     -0.568476
      28A     -0.545175    29A     -0.523473    30A     -0.502752
      31A     -0.493534    32A     -0.482004    33A     -0.475075
      34A     -0.474565    35A     -0.453770    36A     -0.435108

  @DF-RHF Final Energy:  -423.11809610943862

   => Energetics <=

    Nuclear Repulsion Energy =            450.2649398003512715
    One-Electron Energy =               -1468.1887748372030273
    Two-Electron Energy =                 594.8057389274127900
    DFT Exchange-Correlation Energy =       0.0000000000000000
    Empirical Dispersion Energy =           0.0000000000000000
    PCM Polarization Energy =               0.0000000000000000
    EFP Energy =                            0.0000000000000000
    Total Energy =                       -423.1180961094389659
    Molecular point group: c1
  Basis Set: CC-PVTZ
  Basis Set:

  -Total Gradient:
     Atom            X                  Y                   Z
    ------   -----------------  -----------------  -----------------
       1        0.001811915334    -0.000805834130     0.003359278231
       2       -0.003145490063     0.000116796495    -0.003490716109
       3       -0.000020154833     0.000041342919    -0.000113266213
       4        0.002274058178     0.002595789602    -0.002248993952
       5        0.000016108514    -0.000029560946     0.000054134623
       6        0.000009778795    -0.000006961594    -0.000016521589
       7        0.000002704554     0.000035284669     0.000031724578
       8       -0.001044963836    -0.001934708991     0.002413370915
       9       -0.000005123736    -0.000012196416     0.000002712527
      10        0.000040031594     0.000011418672     0.000000265868
      11        0.000039473730    -0.000005207232     0.000017535468
      12        0.000028972149     0.000013329177     0.000000433327
      13       -0.000000438465     0.000001218936    -0.000011500125
      14       -0.000011715484    -0.000009825961     0.000003346237
      15       -0.000017940899    -0.000003635419    -0.000000052330
      16        0.000008377748     0.000010649969    -0.000003051596
      17       -0.000000123078    -0.000003754823     0.000000249956
      18        0.000026908057     0.000002908239    -0.000003837183
      19       -0.000001355272     0.000004468567    -0.000009722278
      20       -0.000008715646    -0.000014885716     0.000001787315
      21       -0.000000409893     0.000009191050     0.000000152688
      22       -0.000003227952    -0.000013750392    -0.000001227905
      23        0.000001330503    -0.000002076670     0.000013897548

  **** Optimization is complete! (in 36 steps) ****
    Final optimized geometry and variables:
    Molecular point group: c1

    Geometry (in Angstrom), charge = 0, multiplicity = 1:

    O           -3.095343709557     1.534704043360     0.987989293254
    C           -2.051733947061     1.709059021591     0.472698884812
    C           -1.380108088933     3.057644969770     0.402033319003
    O           -1.404728494626     0.691942881424    -0.109699280140
    H           -0.535337260432     3.089552189503     1.079793726160
    H           -1.014004192065     3.249130865785    -0.598209697113
    H           -2.088664920574     3.815683963407     0.693070829116
    C           -0.044411846827     0.447818031340     0.191968270053
    C            0.347321794745    -0.868373236268    -0.446046744554
    H            0.576774393999     1.251244234269    -0.188814702126
    H            0.082758757483     0.400391067342     1.268623358621
    C            1.806188387557    -1.229618218563    -0.183155421619
    H            0.165209065767    -0.801728915216    -1.513514817869
    H           -0.306351496621    -1.644513354245    -0.064284904702
    C            2.215133108833    -2.555810708838    -0.818263466142
    H            2.451363346654    -0.439791676904    -0.561068771382
    H            1.980879886649    -1.279592761566     0.889035121398
    C            3.672384997664    -2.919654907875    -0.555610694277
    H            2.042501039694    -2.507569791297    -1.889633167635
    H            1.572124380780    -3.345876724407    -0.441407062555
    H            4.342548661406    -2.163983183428    -0.951829305509
    H            3.929415527481    -3.864795772437    -1.019316120038
    H            3.868207480408    -3.009217172465     0.507722508105

  Mulliken Charges: (a.u.)
   Center  Symbol    Alpha    Beta     Spin     Total
       1     O     4.17221  4.17221  0.00000 -0.34443
       2     C     2.81635  2.81635  0.00000  0.36731
       3     C     3.16398  3.16398  0.00000 -0.32797
       4     O     4.14547  4.14547  0.00000 -0.29094
       5     H     0.44771  0.44771  0.00000  0.10457
       6     H     0.44270  0.44270  0.00000  0.11459
       7     H     0.42903  0.42903  0.00000  0.14194
       8     C     2.98307  2.98307  0.00000  0.03386
       9     C     3.08321  3.08321  0.00000 -0.16643
      10     H     0.46124  0.46124  0.00000  0.07753
      11     H     0.45897  0.45897  0.00000  0.08207
      12     C     3.09934  3.09934  0.00000 -0.19869
      13     H     0.44797  0.44797  0.00000  0.10406
      14     H     0.44409  0.44409  0.00000  0.11182
      15     C     3.08587  3.08587  0.00000 -0.17174
      16     H     0.45478  0.45478  0.00000  0.09044
      17     H     0.45345  0.45345  0.00000  0.09311
      18     C     3.14945  3.14945  0.00000 -0.29889
      19     H     0.45269  0.45269  0.00000  0.09461
      20     H     0.45177  0.45177  0.00000  0.09647
      21     H     0.45516  0.45516  0.00000  0.08969
      22     H     0.44688  0.44688  0.00000  0.10625
      23     H     0.45462  0.45462  0.00000  0.09077

   Total alpha = 36.00000, Total beta = 36.00000, Total charge = -0.00000

*** Psi4 exiting successfully. Buy a developer a beer!
