  ==> Input File <==

--------------------------------------------------------------------------
set {
	reference rhf
	basis 6-31G*
}

set_num_threads( 4 )
memory 2 gb

molecule MOL {
0 1

O	 1.912047	 0.151830	 -0.887916
C	 1.122059	 0.121804	 -0.000188
C	 -0.170150	 -0.657997	 -0.000612
O	 1.280322	 0.789089	 1.135884
C	 -1.412532	 0.227344	 -0.000452
H	 -0.153702	 -1.313099	 -0.867402
H	 -0.153924	 -1.313811	 0.865644
C	 -2.706999	 -0.587347	 -0.000541
H	 -1.388000	 0.879466	 -0.868000
H	 -1.387972	 0.879138	 0.867341
C	 -3.956778	 0.291888	 0.000910
H	 -2.726114	 -1.239230	 -0.871609
H	 -2.725217	 -1.240844	 0.869333
H	 -3.985213	 0.933254	 -0.875158
H	 -4.860123	 -0.309979	 0.000519
H	 -3.984618	 0.931166	 0.878514
C	 2.457560	 1.565052	 1.266770
H	 3.335263	 0.938831	 1.196260
H	 2.402268	 2.022962	 2.242070
H	 2.499942	 2.323798	 0.498645

	symmetry c1
}
set optking {
	frozen_dihedral = ("
		1 2 3 6
	")
}

ee = optimize('scf')
oeprop('DIPOLE', 'QUADRUPOLE', 'MULLIKEN_CHARGES')
f=open( 'psi4out.xyz', 'w' )
f.write( "20  " )
f.write( str(ee) + "\n" )
f.write( MOL.save_string_xyz() )
f.close()
--------------------------------------------------------------------------

    Molecular point group: c1
  Charge       = 0
  Multiplicity = 1
  Basis Set: 6-31G*
  Basis Set:
  @DF-RHF Final Energy:  -383.94000906674404
    Total Energy =                       -383.9400090667437553
    Molecular point group: c1
  Basis Set: 6-31G*
  Basis Set:
  Basis Set: 6-31G*
  Basis Set:
  @DF-RHF Final Energy:  -383.94026219050937
    Total Energy =                       -383.9402621905096566
  Basis Set: 6-31G*
  Basis Set:
  Basis Set: 6-31G*
  Basis Set:
  @DF-RHF Final Energy:  -383.93932263915349
    Total Energy =                       -383.9393226391534881
  Basis Set: 6-31G*
  Basis Set:
  Basis Set: 6-31G*
  Basis Set:
  @DF-RHF Final Energy:  -383.94036171559708
    Total Energy =                       -383.9403617155969641
  Basis Set: 6-31G*
  Basis Set:
  Basis Set: 6-31G*
  Basis Set:
  @DF-RHF Final Energy:  -383.94036788093467
    Total Energy =                       -383.9403678809344456
  Basis Set: 6-31G*
  Basis Set:
  Charge       = 0
  Multiplicity = 1
  Basis Set: 6-31G*
  Basis Set:

    Orbital Energies (a.u.)
    -----------------------

    Doubly Occupied:

       1A    -20.604135     2A    -20.543705     3A    -11.370892
       4A    -11.280795     5A    -11.234166     6A    -11.229122
       7A    -11.224242     8A    -11.214451     9A     -1.468663
      10A     -1.361316    11A     -1.092893    12A     -1.025221
      13A     -0.966771    14A     -0.890899    15A     -0.807262
      16A     -0.773842    17A     -0.693620    18A     -0.680091
      19A     -0.673286    20A     -0.647399    21A     -0.597122
      22A     -0.591885    23A     -0.576165    24A     -0.551789
      25A     -0.533190    26A     -0.520350    27A     -0.511241
      28A     -0.485025    29A     -0.480964    30A     -0.475321
      31A     -0.454121    32A     -0.429074

  @DF-RHF Final Energy:  -383.94036836991245

   => Energetics <=

    Nuclear Repulsion Energy =            383.4623809342673439
    One-Electron Energy =               -1282.8274655546797476
    Two-Electron Energy =                 515.4247162505000688
    DFT Exchange-Correlation Energy =       0.0000000000000000
    Empirical Dispersion Energy =           0.0000000000000000
    PCM Polarization Energy =               0.0000000000000000
    EFP Energy =                            0.0000000000000000
    Total Energy =                       -383.9403683699123349
    Molecular point group: c1
  Basis Set: 6-31G*
  Basis Set:

  -Total Gradient:
     Atom            X                  Y                   Z
    ------   -----------------  -----------------  -----------------
       1        0.000035171835    -0.000049582536     0.000068456926
       2       -0.000040769639     0.000086160543    -0.000115169986
       3        0.000033359945    -0.000049239980     0.000051987799
       4        0.000007630389     0.000013801632     0.000001978342
       5        0.000010403418    -0.000013827210     0.000050133547
       6       -0.000029468864     0.000029043162    -0.000020489399
       7       -0.000001589805    -0.000003782518    -0.000019918399
       8       -0.000007227575     0.000003793990    -0.000024632599
       9        0.000006558767    -0.000018369219     0.000015404693
      10       -0.000010661331     0.000008695916     0.000004616624
      11       -0.000005871263    -0.000001993061     0.000003434215
      12        0.000002619530    -0.000008934901    -0.000006371703
      13        0.000005338205     0.000010251988    -0.000006980701
      14       -0.000005563512    -0.000002986877    -0.000003396238
      15       -0.000005199020     0.000002161119     0.000005095142
      16        0.000004700583     0.000004051508    -0.000004744482
      17       -0.000005428732    -0.000016584287     0.000001283476
      18        0.000004216852     0.000002655568     0.000000898416
      19        0.000002997723     0.000003175412     0.000000416964
      20       -0.000001217509     0.000001509749    -0.000002002637

  **** Optimization is complete! (in 6 steps) ****
    Final optimized geometry and variables:
    Molecular point group: c1

    Geometry (in Angstrom), charge = 0, multiplicity = 1:

    O            2.041610924102    -0.093748371030    -1.096639918531
    C            1.274309419927    -0.143539423858    -0.189722082011
    C           -0.008043496270    -0.937246669905    -0.182389718086
    O            1.452913907322     0.517003623869     0.947895743970
    C           -1.251620210134    -0.036898263297    -0.179645827661
    H            0.002740087380    -1.571319624934    -1.059411633442
    H           -0.012736397082    -1.570008967391     0.699676251313
    C           -2.550643731844    -0.843459478971    -0.211785815774
    H           -1.215932539444     0.624216056771    -1.042573365638
    H           -1.235057363582     0.595586039904     0.702217917416
    C           -3.795473698825     0.042749798782    -0.213323863050
    H           -2.558730324717    -1.480184144156    -1.093420084946
    H           -2.581629250446    -1.509214796829     0.647955361616
    H           -3.810513366690     0.695997342166    -1.080953075513
    H           -4.701258639975    -0.554856901912    -0.233528063688
    H           -3.831747576972     0.669394127953     0.673125067025
    C            2.617314042286     1.316076717105     1.050741549452
    H            3.504788116580     0.708114557122     0.949942313880
    H            2.581281350967     1.765906477075     2.030719814388
    H            2.621990053897     2.080690967072     0.287319534884

  Mulliken Charges: (a.u.)
   Center  Symbol    Alpha    Beta     Spin     Total
       1     O     4.28502  4.28502  0.00000 -0.57004
       2     C     2.61591  2.61591  0.00000  0.76818
       3     C     3.19573  3.19573  0.00000 -0.39147
       4     O     4.30276  4.30276  0.00000 -0.60552
       5     C     3.16379  3.16379  0.00000 -0.32758
       6     H     0.39903  0.39903  0.00000  0.20194
       7     H     0.40451  0.40451  0.00000  0.19097
       8     C     3.15308  3.15308  0.00000 -0.30617
       9     H     0.41402  0.41402  0.00000  0.17196
      10     H     0.40875  0.40875  0.00000  0.18249
      11     C     3.24017  3.24017  0.00000 -0.48034
      12     H     0.41986  0.41986  0.00000  0.16029
      13     H     0.42093  0.42093  0.00000  0.15813
      14     H     0.41987  0.41987  0.00000  0.16026
      15     H     0.41738  0.41738  0.00000  0.16524
      16     H     0.42031  0.42031  0.00000  0.15937
      17     C     3.09229  3.09229  0.00000 -0.18458
      18     H     0.40866  0.40866  0.00000  0.18269
      19     H     0.40887  0.40887  0.00000  0.18225
      20     H     0.40903  0.40903  0.00000  0.18194

   Total alpha = 32.00000, Total beta = 32.00000, Total charge =  0.00000
