  ==> Input File <==

--------------------------------------------------------------------------
set {
	reference rhf
	basis 6-31G*
}

set_num_threads( 4 )
memory 2 gb

molecule MOL {
0 1

H	 -3.538910	 -0.568819	 -0.465438
O	 -2.707301	 -0.219861	 -0.752547
C	 -2.026376	 0.340750	 0.341611
C	 -0.673256	 0.843270	 -0.132153
H	 -2.598109	 1.166494	 0.761379
H	 -1.893022	 -0.400050	 1.129066
C	 0.486613	 -0.083066	 0.235839
H	 -0.715586	 0.970948	 -1.210718
H	 -0.508072	 1.829858	 0.297090
C	 1.840406	 0.433480	 -0.254303
H	 0.300215	 -1.068318	 -0.178947
H	 0.519509	 -0.203625	 1.318070
C	 3.000220	 -0.489290	 0.118523
H	 1.809207	 0.553576	 -1.335192
H	 2.021860	 1.424500	 0.157276
H	 2.864959	 -1.479103	 -0.307933
H	 3.946603	 -0.099227	 -0.243630
H	 3.080049	 -0.602997	 1.196117

	symmetry c1
}
set optking {
	frozen_dihedral = ("
		2 3 4 8
	")
}

ee = optimize('scf')
oeprop('DIPOLE', 'QUADRUPOLE', 'MULLIKEN_CHARGES')
f=open( 'psi4out.xyz', 'w' )
f.write( "18  " )
f.write( str(ee) + "\n" )
f.write( MOL.save_string_xyz() )
f.close()
--------------------------------------------------------------------------

    Molecular point group: c1
  Charge       = 0
  Multiplicity = 1
  Basis Set: 6-31G*
  Basis Set:
  @DF-RHF Final Energy:  -271.17492841777994
    Total Energy =                       -271.1749284177799950
    Molecular point group: c1
  Basis Set: 6-31G*
  Basis Set:
  Basis Set: 6-31G*
  Basis Set:
  @DF-RHF Final Energy:  -271.17529488969581
    Total Energy =                       -271.1752948896959197
  Basis Set: 6-31G*
  Basis Set:
  Basis Set: 6-31G*
  Basis Set:
  @DF-RHF Final Energy:  -271.17537484372065
    Total Energy =                       -271.1753748437207037
  Basis Set: 6-31G*
  Basis Set:
  Basis Set: 6-31G*
  Basis Set:
  @DF-RHF Final Energy:  -271.17537285005710
    Total Energy =                       -271.1753728500571583
  Basis Set: 6-31G*
  Basis Set:
  Basis Set: 6-31G*
  Basis Set:
  @DF-RHF Final Energy:  -271.17538212908278
    Total Energy =                       -271.1753821290827204
  Basis Set: 6-31G*
  Basis Set:
  Charge       = 0
  Multiplicity = 1
  Basis Set: 6-31G*
  Basis Set:

    Orbital Energies (a.u.)
    -----------------------

    Doubly Occupied:

       1A    -20.551822     2A    -11.267545     3A    -11.212938
       4A    -11.211676     5A    -11.210872     6A    -11.206711
       7A     -1.357868     8A     -1.076802     9A     -1.008153
      10A     -0.912439    11A     -0.819737    12A     -0.788547
      13A     -0.702996    14A     -0.638373    15A     -0.629716
      16A     -0.578259    17A     -0.570900    18A     -0.561194
      19A     -0.525022    20A     -0.497340    21A     -0.489785
      22A     -0.468292    23A     -0.461983    24A     -0.453083
      25A     -0.424874

  @DF-RHF Final Energy:  -271.17538221156104

   => Energetics <=

    Nuclear Repulsion Energy =            246.9107938000491345
    One-Electron Energy =                -856.9185026975405890
    Two-Electron Energy =                 338.8323266859304113
    DFT Exchange-Correlation Energy =       0.0000000000000000
    Empirical Dispersion Energy =           0.0000000000000000
    PCM Polarization Energy =               0.0000000000000000
    EFP Energy =                            0.0000000000000000
    Total Energy =                       -271.1753822115611001
    Molecular point group: c1
  Basis Set: 6-31G*
  Basis Set:

  -Total Gradient:
     Atom            X                  Y                   Z
    ------   -----------------  -----------------  -----------------
       1        0.000001606384     0.000001399170    -0.000000109145
       2       -0.001393382778     0.002932546055    -0.000730083871
       3        0.002086585427    -0.004622624746     0.000860990011
       4       -0.002112004138     0.005688986090     0.000333441830
       5       -0.000005702015    -0.000005473263    -0.000007150938
       6       -0.000004540449     0.000000751063     0.000002068429
       7       -0.000008049981    -0.000003733908    -0.000018574283
       8        0.001430790667    -0.004008031411    -0.000450365887
       9        0.000001926000     0.000004679990    -0.000003021973
      10        0.000008247011     0.000009924064     0.000016745310
      11        0.000008330003    -0.000002060302     0.000002346205
      12       -0.000008447111     0.000010138783    -0.000003747075
      13       -0.000001768084    -0.000009255138    -0.000012442890
      14       -0.000002840874     0.000005474654     0.000003761648
      15       -0.000002972366     0.000000679097     0.000006735557
      16        0.000000434419    -0.000005807097     0.000005740756
      17       -0.000000878099    -0.000003528544    -0.000005605599
      18        0.000002665980     0.000005935441    -0.000000728086

  **** Optimization is complete! (in 6 steps) ****
    Final optimized geometry and variables:
    Molecular point group: c1

    Geometry (in Angstrom), charge = 0, multiplicity = 1:

    H           -3.414625352760    -0.754777130050    -0.430657588046
    O           -2.594864243716    -0.362184284634    -0.695618186816
    C           -1.968714111984     0.220483851624     0.421953731889
    C           -0.603405241081     0.756813847624    -0.014193197511
    H           -2.586718047200     1.028803888933     0.807477424647
    H           -1.855371121356    -0.508999829882     1.221474806425
    C            0.554633712086    -0.180276478472     0.341577011259
    H           -0.634151389778     0.869420819511    -1.092788342233
    H           -0.428179532661     1.737088008636     0.419824765689
    C            1.906606955382     0.309574101779    -0.178129896510
    H            0.346140059755    -1.167422198109    -0.066224500848
    H            0.608122927938    -0.298708058396     1.422997156367
    C            3.060053514350    -0.626062787979     0.182163596635
    H            1.856269891625     0.420789008192    -1.259006967429
    H            2.108610330187     1.301570642745     0.221248120267
    H            2.902737665217    -1.618426701101    -0.230837923349
    H            4.004320763562    -0.253583301437    -0.202924043486
    H            3.159902955605    -0.729246287390     1.259120155930

  Mulliken Charges: (a.u.)
   Center  Symbol    Alpha    Beta     Spin     Total
       1     H     0.28172  0.28172  0.00000  0.43657
       2     O     4.37111  4.37111  0.00000 -0.74222
       3     C     2.99690  2.99690  0.00000  0.00620
       4     C     3.16323  3.16323  0.00000 -0.32645
       5     H     0.42994  0.42994  0.00000  0.14012
       6     H     0.43028  0.43028  0.00000  0.13945
       7     C     3.15659  3.15659  0.00000 -0.31318
       8     H     0.40523  0.40523  0.00000  0.18954
       9     H     0.42151  0.42151  0.00000  0.15697
      10     C     3.15207  3.15207  0.00000 -0.30415
      11     H     0.41722  0.41722  0.00000  0.16556
      12     H     0.42643  0.42643  0.00000  0.14714
      13     C     3.23918  3.23918  0.00000 -0.47836
      14     H     0.42122  0.42122  0.00000  0.15757
      15     H     0.42406  0.42406  0.00000  0.15188
      16     H     0.42118  0.42118  0.00000  0.15764
      17     H     0.41955  0.41955  0.00000  0.16089
      18     H     0.42258  0.42258  0.00000  0.15484

   Total alpha = 25.00000, Total beta = 25.00000, Total charge = -0.00000
