  ==> Input File <==

--------------------------------------------------------------------------
set {
	reference rhf
	basis 6-31G*
}

set_num_threads( 4 )
memory 2 gb

molecule MOL {
0 1

O	 0.452467	 -4.284100	 -3.079800
C	 0.575286	 -3.143350	 -3.408495
C	 0.447421	 -2.022262	 -2.392071
C	 0.894278	 -2.758361	 -4.835870
C	 1.737992	 -1.878569	 -1.569319
H	 -0.376905	 -2.269294	 -1.731946
H	 0.215478	 -1.083016	 -2.886082
C	 1.631333	 -0.777471	 -0.511575
H	 1.951141	 -2.834753	 -1.104923
H	 2.572860	 -1.658232	 -2.232790
C	 2.915987	 -0.544314	 0.291766
H	 0.818460	 -1.015390	 0.172062
H	 1.355072	 0.153923	 -1.001506
C	 3.373361	 0.914346	 0.347591
H	 3.708709	 -1.142521	 -0.150311
H	 2.780642	 -0.921148	 1.303579
H	 3.506512	 1.320010	 -0.651625
H	 4.322697	 0.999599	 0.867103
H	 2.660624	 1.545032	 0.868198
H	 0.054474	 -2.218012	 -5.264842
H	 1.088879	 -3.644559	 -5.423721
H	 1.753745	 -2.095189	 -4.872271

	symmetry c1
}
set optking {
	frozen_dihedral = ("
		12 8 11 15
	")
}

ee = optimize('scf')
oeprop('DIPOLE', 'QUADRUPOLE', 'MULLIKEN_CHARGES')
f=open( 'psi4out.xyz', 'w' )
f.write( "22  " )
f.write( str(ee) + "\n" )
f.write( MOL.save_string_xyz() )
f.close()
--------------------------------------------------------------------------

    Molecular point group: c1
  Charge       = 0
  Multiplicity = 1
  Basis Set: 6-31G*
  Basis Set:
  @DF-RHF Final Energy:  -348.09411859089846
    Total Energy =                       -348.0941185908984608
    Molecular point group: c1
  Basis Set: 6-31G*
  Basis Set:
  Basis Set: 6-31G*
  Basis Set:
  @DF-RHF Final Energy:  -348.09458900096945
    Total Energy =                       -348.0945890009695063
  Basis Set: 6-31G*
  Basis Set:
  Basis Set: 6-31G*
  Basis Set:
  @DF-RHF Final Energy:  -348.09266190379145
    Total Energy =                       -348.0926619037915088
  Basis Set: 6-31G*
  Basis Set:
  Basis Set: 6-31G*
  Basis Set:
  @DF-RHF Final Energy:  -348.09471450428686
    Total Energy =                       -348.0947145042866850
  Basis Set: 6-31G*
  Basis Set:
  @DF-RHF Final Energy:  -348.09422648460384
    Total Energy =                       -348.0942264846040644
  @DF-RHF Final Energy:  -348.09451416804859
    Total Energy =                       -348.0945141680488177
  Basis Set: 6-31G*
  Basis Set:
  @DF-RHF Final Energy:  -348.09474874900951
    Total Energy =                       -348.0947487490094545
  Basis Set: 6-31G*
  Basis Set:
  Basis Set: 6-31G*
  Basis Set:
  @DF-RHF Final Energy:  -348.09471818983275
    Total Energy =                       -348.0947181898329745
  Basis Set: 6-31G*
  Basis Set:
  Basis Set: 6-31G*
  Basis Set:
  @DF-RHF Final Energy:  -348.09475593257241
    Total Energy =                       -348.0947559325728093
  Basis Set: 6-31G*
  Basis Set:
  Charge       = 0
  Multiplicity = 1
  Basis Set: 6-31G*
  Basis Set:

    Orbital Energies (a.u.)
    -----------------------

    Doubly Occupied:

       1A    -20.547293     2A    -11.324457     3A    -11.230267
       4A    -11.228933     5A    -11.228160     6A    -11.222172
       7A    -11.220216     8A    -11.213469     9A     -1.393038
      10A     -1.094595    11A     -1.044441    12A     -1.000762
      13A     -0.938821    14A     -0.846766    15A     -0.798566
      16A     -0.732628    17A     -0.662162    18A     -0.646868
      19A     -0.627823    20A     -0.611468    21A     -0.594491
      22A     -0.586985    23A     -0.559650    24A     -0.547294
      25A     -0.537611    26A     -0.510668    27A     -0.498784
      28A     -0.489656    29A     -0.474041    30A     -0.463742
      31A     -0.458192    32A     -0.395927

  @DF-RHF Final Energy:  -348.09475624124065

   => Energetics <=

    Nuclear Repulsion Energy =            369.0692258831805361
    One-Electron Energy =               -1202.8680722633059759
    Two-Electron Energy =                 485.7040901388850216
    DFT Exchange-Correlation Energy =       0.0000000000000000
    Empirical Dispersion Energy =           0.0000000000000000
    PCM Polarization Energy =               0.0000000000000000
    EFP Energy =                            0.0000000000000000
    Total Energy =                       -348.0947562412404750
    Molecular point group: c1
  Basis Set: 6-31G*
  Basis Set:

  -Total Gradient:
     Atom            X                  Y                   Z
    ------   -----------------  -----------------  -----------------
       1        0.000050951404    -0.000042815048     0.000037164413
       2       -0.000037160474     0.000028978218    -0.000055359924
       3        0.000083631897     0.000041351093     0.000068056562
       4       -0.000008867715    -0.000028210601    -0.000029291937
       5       -0.000062527229     0.000009952358     0.000044743549
       6       -0.000010431632     0.000008381250     0.000028379127
       7        0.000003201905     0.000017326805     0.000028784629
       8       -0.000843680502     0.002574079275     0.000594374606
       9       -0.000042894919    -0.000003912912    -0.000022173277
      10        0.000022774898    -0.000004712170     0.000012407644
      11        0.001020608097     0.001753010067    -0.001922049297
      12        0.000462119832    -0.002454618110    -0.000280328062
      13       -0.000079528717    -0.000008555597    -0.000030050340
      14       -0.000016971868    -0.000022065745     0.000064144924
      15       -0.000593359216    -0.001917476706     0.001485289920
      16        0.000042892657     0.000042405269    -0.000019016691
      17        0.000007360984    -0.000029519171    -0.000001506355
      18       -0.000001733589    -0.000000467503     0.000019759521
      19       -0.000001139246     0.000020276033    -0.000015059378
      20        0.000004326763     0.000021846582    -0.000033171488
      21        0.000007771852     0.000006434705     0.000000406469
      22       -0.000007345181    -0.000011688083     0.000024495390

  **** Optimization is complete! (in 10 steps) ****
    Final optimized geometry and variables:
    Molecular point group: c1

    Geometry (in Angstrom), charge = 0, multiplicity = 1:

    O           -1.050563592158    -2.492970710538    -1.164208270938
    C           -0.943133383006    -1.352946073806    -1.500439003365
    C           -1.080727286577    -0.226651911686    -0.491054876407
    C           -0.640434544919    -0.972784395100    -2.932941838827
    C            0.223319514908    -0.035253592000     0.298349800337
    H           -1.881766840320    -0.491429534614     0.190438461535
    H           -1.351811457848     0.700595202640    -0.988266878383
    C            0.120816801444     1.076921281904     1.345206504603
    H            0.475901314708    -0.974138398837     0.781910235237
    H            1.038744790588     0.191941000851    -0.386275783154
    C            1.415476042873     1.252921847349     2.168942943334
    H           -0.707967904034     0.841832512349     2.007629032541
    H           -0.134518336990     2.009328643180     0.847122091663
    C            1.871686374919     2.706245617032     2.289556771119
    H            2.212535918806     0.654840696929     1.734458610508
    H            1.266280381546     0.846037281362     3.165238040282
    H            2.087682837196     3.130587887887     1.312921028817
    H            2.770134462803     2.788196629692     2.893345007583
    H            1.104089883169     3.319834047442     2.752708623439
    H           -1.492998369798    -0.451737100632    -3.360615232378
    H           -0.433223313092    -1.859832554219    -3.515131062472
    H            0.206177971120    -0.294109750000    -2.980375246305

  Mulliken Charges: (a.u.)
   Center  Symbol    Alpha    Beta     Spin     Total
       1     O     4.26220  4.26220  0.00000 -0.52441
       2     C     2.73712  2.73712  0.00000  0.52576
       3     C     3.20069  3.20069  0.00000 -0.40137
       4     C     3.28952  3.28952  0.00000 -0.57903
       5     C     3.16448  3.16448  0.00000 -0.32895
       6     H     0.40118  0.40118  0.00000  0.19765
       7     H     0.41689  0.41689  0.00000  0.16622
       8     C     3.15396  3.15396  0.00000 -0.30793
       9     H     0.40569  0.40569  0.00000  0.18863
      10     H     0.42068  0.42068  0.00000  0.15864
      11     C     3.15611  3.15611  0.00000 -0.31223
      12     H     0.41779  0.41779  0.00000  0.16443
      13     H     0.42079  0.42079  0.00000  0.15843
      14     C     3.24002  3.24002  0.00000 -0.48003
      15     H     0.41900  0.41900  0.00000  0.16200
      16     H     0.41819  0.41819  0.00000  0.16363
      17     H     0.42234  0.42234  0.00000  0.15532
      18     H     0.41895  0.41895  0.00000  0.16210
      19     H     0.42067  0.42067  0.00000  0.15865
      20     H     0.40683  0.40683  0.00000  0.18634
      21     H     0.39707  0.39707  0.00000  0.20586
      22     H     0.40984  0.40984  0.00000  0.18031

   Total alpha = 32.00000, Total beta = 32.00000, Total charge =  0.00000
