  ==> Input File <==

--------------------------------------------------------------------------
set {
	reference rhf
	basis 6-31G*
}

set_num_threads( 4 )
memory 2 gb

molecule MOL {
0 1

O	 -0.988096	 -1.408613	 0.050699
C	 -0.676749	 -0.249230	 -0.009274
C	 -1.746085	 0.827156	 -0.009539
N	 0.623947	 0.147590	 -0.102813
H	 -1.701500	 1.431508	 -0.908902
H	 -2.703425	 0.330732	 0.036390
H	 -1.647323	 1.487769	 0.845106
C	 1.614383	 -0.816228	 -0.540954
C	 1.153945	 1.339917	 0.521451
H	 2.340374	 -0.323678	 -1.178409
H	 1.129713	 -1.602626	 -1.092873
H	 2.141440	 -1.253204	 0.304436
H	 1.961398	 1.729436	 -0.087100
H	 0.405292	 2.111829	 0.602712
H	 1.550489	 1.136599	 1.514541

	symmetry c1
}
set optking {
	frozen_dihedral = ("
		8 4 2 3
	")
}

ee = optimize('scf')
oeprop('DIPOLE', 'QUADRUPOLE', 'MULLIKEN_CHARGES')
f=open( 'psi4out.xyz', 'w' )
f.write( "15  " )
f.write( str(ee) + "\n" )
f.write( MOL.save_string_xyz() )
f.close()
--------------------------------------------------------------------------

    Molecular point group: c1
  Charge       = 0
  Multiplicity = 1
  Basis Set: 6-31G*
  Basis Set:
  @DF-RHF Final Energy:  -286.02368521353748
    Total Energy =                       -286.0236852135373056
    Molecular point group: c1
  Basis Set: 6-31G*
  Basis Set:
  Basis Set: 6-31G*
  Basis Set:
  @DF-RHF Final Energy:  -286.02418834333798
    Total Energy =                       -286.0241883433382100
  Basis Set: 6-31G*
  Basis Set:
  Basis Set: 6-31G*
  Basis Set:
  @DF-RHF Final Energy:  -286.02531173138664
    Total Energy =                       -286.0253117313866369
  Basis Set: 6-31G*
  Basis Set:
  Basis Set: 6-31G*
  Basis Set:
  @DF-RHF Final Energy:  -286.02579855659445
    Total Energy =                       -286.0257985565943954
  Basis Set: 6-31G*
  Basis Set:
  @DF-RHF Final Energy:  -286.02605646188658
    Total Energy =                       -286.0260564618864692
  @DF-RHF Final Energy:  -286.02645287543351
    Total Energy =                       -286.0264528754340176
  @DF-RHF Final Energy:  -286.02675920903022
    Total Energy =                       -286.0267592090303310
  @DF-RHF Final Energy:  -286.02752890265106
    Total Energy =                       -286.0275289026511700
  @DF-RHF Final Energy:  -286.02808657696983
    Total Energy =                       -286.0280865769695993
  @DF-RHF Final Energy:  -286.02830791805525
    Total Energy =                       -286.0283079180552477
  @DF-RHF Final Energy:  -286.02845875969001
    Total Energy =                       -286.0284587596900110
  @DF-RHF Final Energy:  -286.02850828575379
    Total Energy =                       -286.0285082857537873
  Basis Set: 6-31G*
  Basis Set:
  @DF-RHF Final Energy:  -286.02853065566080
    Total Energy =                       -286.0285306556607452
  Basis Set: 6-31G*
  Basis Set:
  Basis Set: 6-31G*
  Basis Set:
  @DF-RHF Final Energy:  -286.02853909511828
    Total Energy =                       -286.0285390951181625
  Basis Set: 6-31G*
  Basis Set:
  Basis Set: 6-31G*
  Basis Set:
  @DF-RHF Final Energy:  -286.02854227844819
    Total Energy =                       -286.0285422784482989
  Basis Set: 6-31G*
  Basis Set:
  Charge       = 0
  Multiplicity = 1
  Basis Set: 6-31G*
  Basis Set:

    Orbital Energies (a.u.)
    -----------------------

    Doubly Occupied:

       1A    -20.516623     2A    -15.582998     3A    -11.342325
       4A    -11.265502     5A    -11.248498     6A    -11.229075
       7A     -1.385971     8A     -1.243704     9A     -1.014404
      10A     -0.971306    11A     -0.918679    12A     -0.737467
      13A     -0.681586    14A     -0.659627    15A     -0.650922
      16A     -0.588550    17A     -0.575514    18A     -0.569178
      19A     -0.562361    20A     -0.547547    21A     -0.528947
      22A     -0.504197    23A     -0.411760    24A     -0.367839

  @DF-RHF Final Energy:  -286.02854268938410

   => Energetics <=

    Nuclear Repulsion Energy =            252.5888944299147738
    One-Electron Energy =                -889.0257154632890888
    Two-Electron Energy =                 350.4082783439899913
    DFT Exchange-Correlation Energy =       0.0000000000000000
    Empirical Dispersion Energy =           0.0000000000000000
    PCM Polarization Energy =               0.0000000000000000
    EFP Energy =                            0.0000000000000000
    Total Energy =                       -286.0285426893843805
    Molecular point group: c1
  Basis Set: 6-31G*
  Basis Set:

  -Total Gradient:
     Atom            X                  Y                   Z
    ------   -----------------  -----------------  -----------------
       1        0.000039905483     0.000018318150     0.000010008039
       2       -0.000853969429    -0.000422278540     0.003842254482
       3        0.000682404280     0.001014475373    -0.003629111972
       4       -0.000197480404    -0.002823107805     0.002969677316
       5        0.000003991222    -0.000006422930     0.000016829959
       6       -0.000004233501     0.000008519219     0.000018353366
       7       -0.000005231019    -0.000005198855     0.000014175386
       8        0.000350015842     0.002261090384    -0.003202776677
       9        0.000004092326    -0.000006809098    -0.000031253941
      10        0.000000004847    -0.000005480279    -0.000002488535
      11        0.000003695212    -0.000008278300    -0.000003017882
      12       -0.000003879232    -0.000006029820    -0.000008245861
      13        0.000004700786     0.000013447075     0.000000334059
      14       -0.000009655336    -0.000006465641     0.000007146612
      15       -0.000014361077    -0.000025778931    -0.000001884351

  **** Optimization is complete! (in 16 steps) ****
    Final optimized geometry and variables:
    Molecular point group: c1

    Geometry (in Angstrom), charge = 0, multiplicity = 1:

    O           -1.045068177769    -1.290259129089    -0.473365996906
    C           -0.685673945293    -0.215534305430    -0.076299984795
    C           -1.680156614946     0.923014740547     0.049932520468
    N            0.619612891815     0.039461937338     0.243186299945
    H           -1.387205506915     1.766796745953    -0.565292424973
    H           -2.639266981329     0.554158848450    -0.280423120229
    H           -1.770120473156     1.270789059769     1.073400427322
    C            1.633882179875    -0.859868263837    -0.275899719448
    C            1.098750870871     1.367179649862     0.565375733167
    H            2.029221256190    -0.499035371266    -1.223484354093
    H            1.206562099799    -1.836590864315    -0.422723702361
    H            2.452194316506    -0.931865400227     0.431306281019
    H            1.318477422326     1.957769427898    -0.323071987239
    H            0.387353826782     1.906604316845     1.171678932531
    H            2.012201443407     1.276105853174     1.139567777442

  Mulliken Charges: (a.u.)
   Center  Symbol    Alpha    Beta     Spin     Total
       1     O     4.30176  4.30176  0.00000 -0.60352
       2     C     2.62491  2.62491  0.00000  0.75018
       3     C     3.29851  3.29851  0.00000 -0.59703
       4     N     3.82053  3.82053  0.00000 -0.64106
       5     H     0.40774  0.40774  0.00000  0.18452
       6     H     0.39053  0.39053  0.00000  0.21895
       7     H     0.40603  0.40603  0.00000  0.18794
       8     C     3.14821  3.14821  0.00000 -0.29642
       9     C     3.14355  3.14355  0.00000 -0.28710
      10     H     0.42114  0.42114  0.00000  0.15772
      11     H     0.38433  0.38433  0.00000  0.23134
      12     H     0.41724  0.41724  0.00000  0.16552
      13     H     0.41893  0.41893  0.00000  0.16215
      14     H     0.40789  0.40789  0.00000  0.18421
      15     H     0.40870  0.40870  0.00000  0.18260

   Total alpha = 24.00000, Total beta = 24.00000, Total charge = -0.00000
