  ==> Input File <==

--------------------------------------------------------------------------
set {
	reference rhf
	basis cc-pvtz
}

set_num_threads( 4 )
memory 2 gb

molecule MOL {
0 1

H	 3.083659	 -1.378387	 0.000000
O	 2.179005	 -1.633391	 0.000000
C	 1.366950	 -0.558201	 0.000000
C	 1.240568	 0.274396	 1.101586
C	 0.646412	 -0.297160	 -1.147477
H	 1.802612	 0.069568	 1.994659
C	 0.395330	 1.364446	 1.053442
H	 0.741836	 -0.938309	 -1.999924
C	 -0.198384	 0.797422	 -1.187149
H	 0.305615	 2.001612	 1.911810
C	 -0.328985	 1.632541	 -0.090635
C	 -0.980106	 1.089637	 -2.417149
H	 -0.987038	 2.479431	 -0.131032
O	 -0.944478	 0.444160	 -3.407861
H	 -1.619675	 1.975307	 -2.352806

	symmetry c1
}
set optking {
	frozen_dihedral = ("
		4 3 2 1
	")
}

ee = optimize('scf')
oeprop('DIPOLE', 'QUADRUPOLE', 'MULLIKEN_CHARGES')
f=open( 'psi4out.xyz', 'w' )
f.write( "15  " )
f.write( str(ee) + "\n" )
f.write( MOL.save_string_xyz() )
f.close()
--------------------------------------------------------------------------

    Molecular point group: c1
  Charge       = 0
  Multiplicity = 1
  Basis Set: CC-PVTZ
  Basis Set:
  @DF-RHF Final Energy:  -418.43497922936905
    Total Energy =                       -418.4349792293687642
    Molecular point group: c1
  Basis Set: CC-PVTZ
  Basis Set:
  Basis Set: CC-PVTZ
  Basis Set:
  @DF-RHF Final Energy:  -418.43551481873237
    Total Energy =                       -418.4355148187322584
  Basis Set: CC-PVTZ
  Basis Set:
  Basis Set: CC-PVTZ
  Basis Set:
  @DF-RHF Final Energy:  -418.43513991741548
    Total Energy =                       -418.4351399174154267
  Basis Set: CC-PVTZ
  Basis Set:
  Basis Set: CC-PVTZ
  Basis Set:
  @DF-RHF Final Energy:  -418.43563282394371
    Total Energy =                       -418.4356328239434788
  Basis Set: CC-PVTZ
  Basis Set:
  Basis Set: CC-PVTZ
  Basis Set:
  @DF-RHF Final Energy:  -418.43563965570809
    Total Energy =                       -418.4356396557080870
  Basis Set: CC-PVTZ
  Basis Set:
  Charge       = 0
  Multiplicity = 1
  Basis Set: CC-PVTZ
  Basis Set:

    Orbital Energies (a.u.)
    -----------------------

    Doubly Occupied:

       1A    -20.583468     2A    -20.554798     3A    -11.328498
       4A    -11.304035     5A    -11.250818     6A    -11.249963
       7A    -11.248881     8A    -11.247806     9A    -11.241226
      10A     -1.411935    11A     -1.410482    12A     -1.175160
      13A     -1.052546    14A     -1.030535    15A     -0.900515
      16A     -0.849627    17A     -0.808027    18A     -0.743933
      19A     -0.702336    20A     -0.688020    21A     -0.652486
      22A     -0.640487    23A     -0.622865    24A     -0.610664
      25A     -0.562007    26A     -0.549610    27A     -0.538093
      28A     -0.505518    29A     -0.492544    30A     -0.427151
      31A     -0.357295    32A     -0.344703

  @DF-RHF Final Energy:  -418.43564105387628

   => Energetics <=

    Nuclear Repulsion Energy =            403.5759639646979053
    One-Electron Energy =               -1369.8511431287138294
    Two-Electron Energy =                 547.8395381101400972
    DFT Exchange-Correlation Energy =       0.0000000000000000
    Empirical Dispersion Energy =           0.0000000000000000
    PCM Polarization Energy =               0.0000000000000000
    EFP Energy =                            0.0000000000000000
    Total Energy =                       -418.4356410538758837
    Molecular point group: c1
  Basis Set: CC-PVTZ
  Basis Set:

  -Total Gradient:
     Atom            X                  Y                   Z
    ------   -----------------  -----------------  -----------------
       1        0.000041459879     0.000019091900    -0.001264654454
       2       -0.000404285633    -0.000391056266     0.001692123925
       3        0.001080602282     0.001031938421    -0.000582200201
       4       -0.000641091200    -0.000701546083     0.000239426405
       5       -0.000047031722     0.000001775891    -0.000065568715
       6        0.000001605398    -0.000010454475     0.000006411766
       7       -0.000117051342     0.000148170455    -0.000127646868
       8       -0.000007585861    -0.000002782215     0.000007562185
       9        0.000062290083    -0.000108646499    -0.000088077704
      10        0.000006554644    -0.000013187894    -0.000008400213
      11        0.000044895903     0.000002695772     0.000193648443
      12       -0.000007482994     0.000022220333     0.000016760773
      13       -0.000016651143     0.000000106160    -0.000023786025
      14        0.000006042313     0.000000726775     0.000009110541
      15       -0.000002270608     0.000000947722    -0.000004709859

  **** Optimization is complete! (in 6 steps) ****
    Final optimized geometry and variables:
    Molecular point group: c1

    Geometry (in Angstrom), charge = 0, multiplicity = 1:

    H            2.688355599105    -1.705653796415     0.782101525354
    O            1.780536093765    -1.951034601151     0.744638589274
    C            0.980392161482    -0.848394574057     0.697624593684
    C            0.848454586319    -0.026904097751     1.807879397535
    C            0.253421105409    -0.592763350012    -0.441168793068
    H            1.405363353947    -0.254973744022     2.696654236495
    C            0.002747252769     1.061075194618     1.767712920211
    H            0.344196240272    -1.234196867289    -1.294196586482
    C           -0.604512308725     0.497763850565    -0.475815384822
    H           -0.093082594199     1.694227864106     2.628236352514
    C           -0.728264501480     1.325770373184     0.623550534257
    C           -1.395082534755     0.788058934007    -1.698518079828
    H           -1.392917199127     2.168435962301     0.590163966054
    O           -1.355358161651     0.150037851945    -2.694177293367
    H           -2.045561502816     1.665416049454    -1.624999289829

  Mulliken Charges: (a.u.)
   Center  Symbol    Alpha    Beta     Spin     Total
       1     H     0.38655  0.38655  0.00000  0.22690
       2     O     4.18602  4.18602  0.00000 -0.37204
       3     C     2.86168  2.86168  0.00000  0.27664
       4     C     3.10893  3.10893  0.00000 -0.21786
       5     C     3.11731  3.11731  0.00000 -0.23462
       6     H     0.41642  0.41642  0.00000  0.16717
       7     C     3.06693  3.06693  0.00000 -0.13385
       8     H     0.40189  0.40189  0.00000  0.19623
       9     C     2.97866  2.97866  0.00000  0.04268
      10     H     0.41885  0.41885  0.00000  0.16229
      11     C     3.09873  3.09873  0.00000 -0.19745
      12     C     2.90899  2.90899  0.00000  0.18201
      13     H     0.42240  0.42240  0.00000  0.15521
      14     O     4.17006  4.17006  0.00000 -0.34011
      15     H     0.45659  0.45659  0.00000  0.08681

   Total alpha = 32.00000, Total beta = 32.00000, Total charge = -0.00000
