  ==> Input File <==

--------------------------------------------------------------------------
set {
	reference rhf
	basis 6-31G*
}

set_num_threads( 4 )
memory 2 gb

molecule MOL {
0 1

H	 -2.420312	 -0.621442	 -1.194283
O	 -2.338207	 -0.306295	 -0.305278
C	 -1.181144	 0.477469	 -0.187348
C	 0.069345	 -0.383836	 -0.177301
H	 -1.111943	 1.213075	 -0.983873
H	 -1.258296	 1.012497	 0.748730
O	 1.171513	 0.459272	 -0.058250
H	 0.130127	 -0.966738	 -1.098448
H	 0.021316	 -1.087940	 0.651260
C	 2.397842	 -0.198080	 -0.002151
H	 2.508049	 -0.905315	 -0.822092
H	 3.173794	 0.550865	 -0.078850
H	 2.517602	 -0.735921	 0.936026

	symmetry c1
}
set optking {
	frozen_dihedral = ("
		4 7 10 13
	")
}

ee = optimize('scf')
oeprop('DIPOLE', 'QUADRUPOLE', 'MULLIKEN_CHARGES')
f=open( 'psi4out.xyz', 'w' )
f.write( "13  " )
f.write( str(ee) + "\n" )
f.write( MOL.save_string_xyz() )
f.close()
--------------------------------------------------------------------------

    Molecular point group: c1
  Charge       = 0
  Multiplicity = 1
  Basis Set: 6-31G*
  Basis Set:
  @DF-RHF Final Energy:  -267.95040131994710
    Total Energy =                       -267.9504013199473320
    Molecular point group: c1
  Basis Set: 6-31G*
  Basis Set:
  Basis Set: 6-31G*
  Basis Set:
  @DF-RHF Final Energy:  -267.95041120827227
    Total Energy =                       -267.9504112082723282
  Basis Set: 6-31G*
  Basis Set:
  Basis Set: 6-31G*
  Basis Set:
  @DF-RHF Final Energy:  -267.95041221515010
    Total Energy =                       -267.9504122151503225
  Basis Set: 6-31G*
  Basis Set:
  Charge       = 0
  Multiplicity = 1
  Basis Set: 6-31G*
  Basis Set:

    Orbital Energies (a.u.)
    -----------------------

    Doubly Occupied:

       1A    -20.562270     2A    -20.560167     3A    -11.270919
       4A    -11.270264     5A    -11.268984     6A     -1.388536
       7A     -1.365146     8A     -1.018579     9A     -0.913397
      10A     -0.841865    11A     -0.709387    12A     -0.674197
      13A     -0.660616    14A     -0.636674    15A     -0.596562
      16A     -0.568840    17A     -0.546127    18A     -0.488958
      19A     -0.482098    20A     -0.438461    21A     -0.421969

  @DF-RHF Final Energy:  -267.95041226834735

   => Energetics <=

    Nuclear Repulsion Energy =            190.2057125760255474
    One-Electron Energy =                -742.9442197801124621
    Two-Electron Energy =                 284.7880949357394229
    DFT Exchange-Correlation Energy =       0.0000000000000000
    Empirical Dispersion Energy =           0.0000000000000000
    PCM Polarization Energy =               0.0000000000000000
    EFP Energy =                            0.0000000000000000
    Total Energy =                       -267.9504122683474634
    Molecular point group: c1
  Basis Set: 6-31G*
  Basis Set:

  -Total Gradient:
     Atom            X                  Y                   Z
    ------   -----------------  -----------------  -----------------
       1       -0.000007970839    -0.000006354438    -0.000002159921
       2        0.000003238883    -0.000001276620    -0.000017771237
       3        0.000002434214     0.000004325214     0.000018183383
       4        0.000092405374     0.000055130925    -0.001123977653
       5       -0.000006675927     0.000001716548    -0.000002869453
       6        0.000011906464     0.000001886615    -0.000000562228
       7        0.000055868634     0.000240395648     0.001767017980
       8        0.000001124760     0.000001851380    -0.000000777225
       9       -0.000002729068    -0.000001472391     0.000000719544
      10       -0.000742380617    -0.001469360027    -0.001223314037
      11       -0.000007341622     0.000006896091     0.000001951683
      12        0.000008271136     0.000003319473     0.000000912899
      13        0.000591848609     0.001162941582     0.000582646264

  **** Optimization is complete! (in 4 steps) ****
    Final optimized geometry and variables:
    Molecular point group: c1

    Geometry (in Angstrom), charge = 0, multiplicity = 1:

    H           -2.426765491970    -0.613736877628    -1.035176339384
    O           -2.344055040970    -0.299611108936    -0.145867274305
    C           -1.185819614754     0.482500344632    -0.027068296904
    C            0.063799344112    -0.380112975115    -0.017367278998
    H           -1.115244595278     1.217990752474    -0.823535368449
    H           -1.262480808140     1.017612475201     0.908972116365
    O            1.167252509199     0.462612807036     0.097492865823
    H            0.123593933592    -0.964229501079    -0.937517247690
    H            0.015287174679    -1.082634507467     0.812549898472
    C            2.394284927385    -0.194205835823     0.155846683301
    H            2.510731532677    -0.898067939930    -0.665438102697
    H            3.169187283817     0.556908126119     0.084769607361
    H            2.513763826224    -0.727531015663     1.096559433803

  Mulliken Charges: (a.u.)
   Center  Symbol    Alpha    Beta     Spin     Total
       1     H     0.28126  0.28126  0.00000  0.43748
       2     O     4.37088  4.37088  0.00000 -0.74176
       3     C     3.00468  3.00468  0.00000 -0.00936
       4     C     2.99660  2.99660  0.00000  0.00679
       5     H     0.42228  0.42228  0.00000  0.15544
       6     H     0.40842  0.40842  0.00000  0.18315
       7     O     4.30777  4.30777  0.00000 -0.61554
       8     H     0.43728  0.43728  0.00000  0.12545
       9     H     0.42350  0.42350  0.00000  0.15301
      10     C     3.07980  3.07980  0.00000 -0.15960
      11     H     0.42963  0.42963  0.00000  0.14074
      12     H     0.41120  0.41120  0.00000  0.17760
      13     H     0.42671  0.42671  0.00000  0.14658

   Total alpha = 21.00000, Total beta = 21.00000, Total charge = -0.00000
