  ==> Input File <==

--------------------------------------------------------------------------
set {
	reference rhf
	basis 6-31G*
}

set_num_threads( 1 )
memory 2 gb

molecule MOL {
0 1

H	 -1.836216	 1.387520	 -0.000064
C	 -1.301823	 0.443321	 -0.000031
O	 -0.003969	 0.658512	 0.000451
O	 -1.829879	 -0.616434	 -0.000857
C	 0.539226	 1.390376	 1.098859
C	 2.031437	 1.505247	 0.874292
H	 0.310151	 0.864448	 2.015507
H	 0.063254	 2.360391	 1.141486
H	 2.490036	 0.524218	 0.826307
H	 2.485086	 2.057079	 1.690943
H	 2.242114	 2.027384	 -0.051923

	symmetry c1
}
set optking {
	frozen_dihedral = ("
		7 5 3 2
	")
}

ee = energy('scf')
oeprop('DIPOLE', 'QUADRUPOLE', 'MULLIKEN_CHARGES')
f=open( 'psi4out.xyz', 'w' )
f.write( "11  " )
f.write( str(ee) + "\n" )
f.write( MOL.save_string_xyz() )
f.close()
--------------------------------------------------------------------------

    Molecular point group: c1

    Geometry (in Angstrom), charge = 0, multiplicity = 1:

       Center              X                  Y                   Z               Mass
    ------------   -----------------  -----------------  -----------------  -----------------
           H         -1.724018944849     0.711726734339    -0.396315655237     1.007825032070
           C         -1.189625944849    -0.232472265661    -0.396282655237    12.000000000000
           O          0.108228055151    -0.017281265661    -0.395800655237    15.994914619560
           O         -1.717681944849    -1.292227265661    -0.397108655237    15.994914619560
           C          0.651423055151     0.714582734339     0.702607344763    12.000000000000
           C          2.143634055151     0.829453734339     0.478040344763    12.000000000000
           H          0.422348055151     0.188654734339     1.619255344763     1.007825032070
           H          0.175451055151     1.684597734339     0.745234344763     1.007825032070
           H          2.602233055151    -0.151575265661     0.430055344763     1.007825032070
           H          2.597283055151     1.381285734339     1.294691344763     1.007825032070
           H          2.354311055151     1.351590734339    -0.448174655237     1.007825032070

  Charge       = 0
  Multiplicity = 1
  Basis Set: 6-31G*
  Basis Set:

    Orbital Energies (a.u.)
    -----------------------

    Doubly Occupied:

       1A    -20.599601     2A    -20.565175     3A    -11.379547
       4A    -11.308065     5A    -11.233580     6A     -1.470535
       7A     -1.379386     8A     -1.055834     9A     -0.890992
      10A     -0.840534    11A     -0.741382    12A     -0.690715
      13A     -0.659029    14A     -0.627206    15A     -0.566373
      16A     -0.550422    17A     -0.537062    18A     -0.505686
      19A     -0.465201    20A     -0.451873

  @DF-RHF Final Energy:  -266.81068444293720

   => Energetics <=

    Nuclear Repulsion Energy =            176.6424703599592476
    One-Electron Energy =                -713.8699656624182808
    Two-Electron Energy =                 270.4168108595216040
    DFT Exchange-Correlation Energy =       0.0000000000000000
    Empirical Dispersion Energy =           0.0000000000000000
    PCM Polarization Energy =               0.0000000000000000
    EFP Energy =                            0.0000000000000000
    Total Energy =                       -266.8106844429374291

  Mulliken Charges: (a.u.)
   Center  Symbol    Alpha    Beta     Spin     Total
       1     H     0.43307  0.43307  0.00000  0.13386
       2     C     2.72731  2.72731  0.00000  0.54539
       3     O     4.29264  4.29264  0.00000 -0.58528
       4     O     4.23651  4.23651  0.00000 -0.47302
       5     C     3.00715  3.00715  0.00000 -0.01430
       6     C     3.24726  3.24726  0.00000 -0.49453
       7     H     0.41010  0.41010  0.00000  0.17981
       8     H     0.41879  0.41879  0.00000  0.16243
       9     H     0.40394  0.40394  0.00000  0.19211
      10     H     0.41551  0.41551  0.00000  0.16898
      11     H     0.40773  0.40773  0.00000  0.18454

   Total alpha = 20.00000, Total beta = 20.00000, Total charge = -0.00000
