  ==> Input File <==

--------------------------------------------------------------------------
set {
	reference rhf
	basis cc-pvtz
}

set_num_threads( 4 )
memory 2 gb

molecule MOL {
0 1

H	 -2.048862	 -0.743928	 -1.962382
C	 -1.441888	 -0.457058	 -1.129782
C	 -1.947529	 0.372767	 -0.078652
C	 -0.174359	 -0.866976	 -1.038288
H	 -2.962988	 0.719295	 -0.122458
C	 -1.167438	 0.716599	 0.950820
H	 0.275436	 -1.490115	 -1.785631
N	 0.640204	 -0.530428	 -0.000115
H	 -1.511601	 1.335101	 1.753919
C	 0.214013	 0.267704	 1.047347
C	 2.006991	 -1.033007	 -0.000020
O	 0.945449	 0.554998	 1.955481
H	 2.182444	 -1.636914	 -0.880881
H	 2.678769	 -0.195442	 -0.002236
H	 2.183828	 -1.633244	 0.883082

	symmetry c1
}
set optking {
	frozen_dihedral = ("
		10 8 11 13
	")
}

ee = optimize('scf')
oeprop('DIPOLE', 'QUADRUPOLE', 'MULLIKEN_CHARGES')
f=open( 'psi4out.xyz', 'w' )
f.write( "15  " )
f.write( str(ee) + "\n" )
f.write( MOL.save_string_xyz() )
f.close()
--------------------------------------------------------------------------

    Molecular point group: c1
  Charge       = 0
  Multiplicity = 1
  Basis Set: CC-PVTZ
  Basis Set:
  @DF-RHF Final Energy:  -360.72276725708770
    Total Energy =                       -360.7227672570875256
    Molecular point group: c1
  Basis Set: CC-PVTZ
  Basis Set:
  Basis Set: CC-PVTZ
  Basis Set:
  @DF-RHF Final Energy:  -360.72356717956501
    Total Energy =                       -360.7235671795650660
  Basis Set: CC-PVTZ
  Basis Set:
  Basis Set: CC-PVTZ
  Basis Set:
  @DF-RHF Final Energy:  -360.72365626385925
    Total Energy =                       -360.7236562638594251
  Basis Set: CC-PVTZ
  Basis Set:
  Basis Set: CC-PVTZ
  Basis Set:
  @DF-RHF Final Energy:  -360.72364530113248
    Total Energy =                       -360.7236453011324784
  Basis Set: CC-PVTZ
  Basis Set:
  Charge       = 0
  Multiplicity = 1
  Basis Set: CC-PVTZ
  Basis Set:

    Orbital Energies (a.u.)
    -----------------------

    Doubly Occupied:

       1A    -20.502022     2A    -15.617933     3A    -11.337445
       4A    -11.294768     5A    -11.266210     6A    -11.258175
       7A    -11.229367     8A    -11.227724     9A     -1.391454
      10A     -1.285944    11A     -1.118842    12A     -1.029397
      13A     -0.972660    14A     -0.876702    15A     -0.839027
      16A     -0.719735    17A     -0.701922    18A     -0.664093
      19A     -0.653470    20A     -0.626424    21A     -0.611950
      22A     -0.575247    23A     -0.551572    24A     -0.551323
      25A     -0.531608    26A     -0.485050    27A     -0.420402
      28A     -0.410817    29A     -0.309949

  @DF-RHF Final Energy:  -360.72366089529345

   => Energetics <=

    Nuclear Repulsion Energy =            358.9314450814940187
    One-Electron Energy =               -1201.1877472599328485
    Two-Electron Energy =                 481.5326412831453808
    DFT Exchange-Correlation Energy =       0.0000000000000000
    Empirical Dispersion Energy =           0.0000000000000000
    PCM Polarization Energy =               0.0000000000000000
    EFP Energy =                            0.0000000000000000
    Total Energy =                       -360.7236608952933921
    Molecular point group: c1
  Basis Set: CC-PVTZ
  Basis Set:

  -Total Gradient:
     Atom            X                  Y                   Z
    ------   -----------------  -----------------  -----------------
       1       -0.000022734192     0.000016457667    -0.000015992409
       2        0.000178609050    -0.000025805070    -0.000006257327
       3       -0.000030995294     0.000066063239     0.000129306791
       4       -0.000255975208    -0.000050906999    -0.000042314847
       5       -0.000001568786    -0.000021339814    -0.000036080957
       6       -0.000158586794     0.000059389468    -0.000049166898
       7        0.000055619744     0.000019174077     0.000017573586
       8        0.000111906984     0.000156999749     0.000209312498
       9        0.000018976114    -0.000003815419    -0.000002548080
      10        0.000069158451    -0.000233299860    -0.000194564467
      11       -0.000047446715    -0.000037243927    -0.000052701506
      12        0.000034208848     0.000048194297     0.000044856325
      13        0.000040495613    -0.000015357519    -0.000024764773
      14        0.000001437435    -0.000003210927     0.000014514151
      15        0.000006894750     0.000024701039     0.000008827922

  **** Optimization is complete! (in 5 steps) ****
    Final optimized geometry and variables:
    Molecular point group: c1

    Geometry (in Angstrom), charge = 0, multiplicity = 1:

    H           -2.023537059129    -0.601234157741    -2.191531916034
    C           -1.408279604933    -0.319461154286    -1.363290608424
    C           -1.901815000262     0.508891986645    -0.306895051453
    C           -0.140499730888    -0.737167183797    -1.286045230981
    H           -2.916475940696     0.858710744769    -0.343208327994
    C           -1.113451352473     0.848825036220     0.719137679079
    H            0.297119356315    -1.359328240199    -2.040054200141
    N            0.679250621973    -0.404530585674    -0.253700754172
    H           -1.449304259208     1.466785083926     1.526266918841
    C            0.263891345446     0.391797365914     0.797282125232
    C            2.052865859105    -0.880901554726    -0.210105269805
    O            1.021782407271     0.661254058262     1.689443784877
    H            2.243247180286    -1.485792675407    -1.083220925965
    H            2.736902702134    -0.045912655873    -0.191422494773
    H            2.215952647894    -1.468451816365     0.680750620229

  Mulliken Charges: (a.u.)
   Center  Symbol    Alpha    Beta     Spin     Total
       1     H     0.41405  0.41405  0.00000  0.17190
       2     C     3.10727  3.10727  0.00000 -0.21454
       3     C     3.05899  3.05899  0.00000 -0.11797
       4     C     3.03974  3.03974  0.00000 -0.07949
       5     H     0.41844  0.41844  0.00000  0.16313
       6     C     3.11842  3.11842  0.00000 -0.23685
       7     H     0.41842  0.41842  0.00000  0.16316
       8     N     3.50816  3.50816  0.00000 -0.01633
       9     H     0.40941  0.40941  0.00000  0.18117
      10     C     2.84579  2.84579  0.00000  0.30842
      11     C     3.09125  3.09125  0.00000 -0.18250
      12     O     4.23545  4.23545  0.00000 -0.47091
      13     H     0.45543  0.45543  0.00000  0.08915
      14     H     0.43959  0.43959  0.00000  0.12082
      15     H     0.43958  0.43958  0.00000  0.12083

   Total alpha = 29.00000, Total beta = 29.00000, Total charge = -0.00000
