                              Psi4 1.0.54 Driver

  ==> Input File <==

--------------------------------------------------------------------------
set {
	reference rhf
	basis cc-pvtz
}

set_num_threads( 4 )
memory 2 gb

molecule MOL {
0 1

H	 -2.149496	 -2.244167	 0.000000
O	 -2.454378	 -1.354528	 0.000000
C	 -1.430628	 -0.482077	 0.000000
C	 -1.730415	 0.855492	 -0.213794
C	 -0.123287	 -0.871155	 0.201737
H	 -2.752871	 1.137705	 -0.368606
C	 -0.722486	 1.792392	 -0.224252
H	 0.122761	 -1.902499	 0.368287
C	 0.881814	 0.086560	 0.188161
H	 -0.962758	 2.824407	 -0.390233
C	 0.595441	 1.420202	 -0.023572
C	 2.246875	 -0.329367	 0.400102
H	 1.381823	 2.147196	 -0.031199
N	 3.313205	 -0.658069	 0.566171

	symmetry c1
}
set optking {
	frozen_dihedral = ("
		5 3 2 1
	")
}

ee,wfn = optimize('scf', return_wfn=True)
oeprop( wfn, 'DIPOLE', 'QUADRUPOLE', 'MULLIKEN_CHARGES')
f=open( 'psi4out.xyz', 'w' )
f.write( "14  " )
f.write( str(ee) + "\n" )
f.write( MOL.save_string_xyz() )
f.close()
--------------------------------------------------------------------------

    Molecular point group: c1
  Charge       = 0
  Multiplicity = 1
  Basis Set: CC-PVTZ
  Basis Set:
  @DF-RHF Final Energy:  -397.43283415410900
    Total Energy =                       -397.4328341541088321
    Molecular point group: c1
  Basis Set: CC-PVTZ
  Basis Set:
  Basis Set: CC-PVTZ
  Basis Set:
  @DF-RHF Final Energy:  -397.43283919226860
    Total Energy =                       -397.4328391922686023
  Basis Set: CC-PVTZ
  Basis Set:
  Charge       = 0
  Multiplicity = 1
  Basis Set: CC-PVTZ
  Basis Set:

    Orbital Energies (a.u.)
    -----------------------

    Doubly Occupied:

       1A    -20.606841     2A    -15.565772     3A    -11.324927
       4A    -11.293016     5A    -11.269221     6A    -11.261067
       7A    -11.260337     8A    -11.256034     9A    -11.251878
      10A     -1.439134    11A     -1.238730    12A     -1.187010
      13A     -1.067077    14A     -1.042592    15A     -0.899861
      16A     -0.871942    17A     -0.783081    18A     -0.731026
      19A     -0.702646    20A     -0.669050    21A     -0.629511
      22A     -0.622399    23A     -0.596205    24A     -0.566338
      25A     -0.553887    26A     -0.545675    27A     -0.529784
      28A     -0.479987    29A     -0.479568    30A     -0.368205
      31A     -0.342020

  @DF-RHF Final Energy:  -397.43285343001236

   => Energetics <=

    Nuclear Repulsion Energy =            380.5391367140072703
    One-Electron Energy =               -1293.0743378963502437
    Two-Electron Energy =                 515.1023477523306155
    DFT Exchange-Correlation Energy =       0.0000000000000000
    Empirical Dispersion Energy =           0.0000000000000000
    PCM Polarization Energy =               0.0000000000000000
    EFP Energy =                            0.0000000000000000
    Total Energy =                       -397.4328534300123010
    Molecular point group: c1
  Basis Set: CC-PVTZ
  Basis Set:

  -Total Gradient:
     Atom            X                  Y                   Z
    ------   -----------------  -----------------  -----------------
       1        0.000016107127    -0.000056933965    -0.000912225007
       2       -0.000077330838     0.000119951947     0.001516582359
       3        0.000220359700    -0.000266002756    -0.001261642193
       4        0.000041531629     0.000131084611    -0.000013339164
       5       -0.000195488618     0.000071711934     0.000685741811
       6       -0.000003518926    -0.000008791132     0.000002266314
       7       -0.000116991430    -0.000024842310    -0.000026474402
       8        0.000009512714     0.000004050324     0.000004061466
       9        0.000028508178     0.000117964773    -0.000051254880
      10        0.000005182181     0.000003034850    -0.000003541155
      11        0.000075390251    -0.000078828339     0.000072972542
      12       -0.000012455830    -0.000028866039    -0.000019212246
      13       -0.000002594587     0.000004187283    -0.000005836363
      14        0.000011788445     0.000012278818     0.000011900917

  **** Optimization is complete! (in 3 steps) ****
    Final optimized geometry and variables:
    Molecular point group: c1

    Geometry (in Angstrom), charge = 0, multiplicity = 1:

    H           -2.144011096796    -2.250706263115    -0.083205420067
    O           -2.448864654499    -1.361009118096    -0.093819041458
    C           -1.424466644905    -0.488999949311    -0.103443426140
    C           -1.724589677391     0.849000106826    -0.312384742791
    C           -0.117705340236    -0.877492419538     0.103753884403
    H           -2.746843679582     1.131343011767    -0.468475933993
    C           -0.717173602174     1.786761940228    -0.316807492814
    H            0.127216675639    -1.908409056557     0.274491572004
    C            0.887241351108     0.080001802960     0.091188651900
    H           -0.957701281945     2.819226048719    -0.479597356929
    C            0.600513059478     1.414317389162    -0.116818898981
    C            2.252117927748    -0.335859542197     0.304092542757
    H            1.386706298557     2.141587627092    -0.122021530303
    N            3.318320526707    -0.664975045664     0.470707125512

  Mulliken Charges: (a.u.)
   Center  Symbol    Alpha    Beta     Spin     Total
       1     H     0.38472  0.38472  0.00000  0.23057
       2     O     4.16903  4.16903  0.00000 -0.33806
       3     C     2.84188  2.84188  0.00000  0.31624
       4     C     3.10626  3.10626  0.00000 -0.21253
       5     C     3.14547  3.14547  0.00000 -0.29094
       6     H     0.41393  0.41393  0.00000  0.17213
       7     C     3.05032  3.05032  0.00000 -0.10064
       8     H     0.42278  0.42278  0.00000  0.15445
       9     C     2.92890  2.92890  0.00000  0.14221
      10     H     0.41675  0.41675  0.00000  0.16650
      11     C     3.10524  3.10524  0.00000 -0.21047
      12     C     3.02569  3.02569  0.00000 -0.05137
      13     H     0.41437  0.41437  0.00000  0.17127
      14     N     3.57467  3.57467  0.00000 -0.14935

   Total alpha = 31.00000, Total beta = 31.00000, Total charge = -0.00000

*** Psi4 exiting successfully. Buy a developer a beer!
