  ==> Input File <==

--------------------------------------------------------------------------
set {
	reference rhf
	basis 6-31G*
}

set_num_threads( 4 )
memory 2 gb

molecule MOL {
0 1

H	 0.262299	 1.943835	 0.629132
C	 0.134848	 0.933374	 1.003386
N	 -0.528168	 0.128977	 -0.000000
H	 -0.481386	 0.986381	 1.893601
H	 1.120854	 0.558295	 1.290395
C	 0.248044	 -0.037491	 -1.209632
H	 -0.756206	 -0.767367	 0.381567
H	 0.998722	 0.743888	 -1.266824
H	 -0.398417	 0.061950	 -2.074060
H	 0.763621	 -0.999315	 -1.275517

	symmetry c1
}
set optking {
	frozen_dihedral = ("
		2 3 6 8
	")
}

ee = optimize('scf')
oeprop('DIPOLE', 'QUADRUPOLE', 'MULLIKEN_CHARGES')
f=open( 'psi4out.xyz', 'w' )
f.write( "10  " )
f.write( str(ee) + "\n" )
f.write( MOL.save_string_xyz() )
f.close()
--------------------------------------------------------------------------

    Molecular point group: c1
  Charge       = 0
  Multiplicity = 1
  Basis Set: 6-31G*
  Basis Set:
  @DF-RHF Final Energy:  -134.23391066374080
    Total Energy =                       -134.2339106637407440
    Molecular point group: c1
  Basis Set: 6-31G*
  Basis Set:
  Basis Set: 6-31G*
  Basis Set:
  @DF-RHF Final Energy:  -134.23434017898222
    Total Energy =                       -134.2343401789821655
  Basis Set: 6-31G*
  Basis Set:
  Basis Set: 6-31G*
  Basis Set:
  @DF-RHF Final Energy:  -134.23443687754616
    Total Energy =                       -134.2344368775461021
  Basis Set: 6-31G*
  Basis Set:
  Basis Set: 6-31G*
  Basis Set:
  @DF-RHF Final Energy:  -134.23444224100592
    Total Energy =                       -134.2344422410059792
  Basis Set: 6-31G*
  Basis Set:
  Charge       = 0
  Multiplicity = 1
  Basis Set: 6-31G*
  Basis Set:

    Orbital Energies (a.u.)
    -----------------------

    Doubly Occupied:

       1A    -15.534147     2A    -11.236156     3A    -11.235662
       4A     -1.194474     5A     -0.947632     6A     -0.854755
       7A     -0.660233     8A     -0.608079     9A     -0.588816
      10A     -0.543427    11A     -0.512218    12A     -0.507594
      13A     -0.353847

  @DF-RHF Final Energy:  -134.23444282588332

   => Energetics <=

    Nuclear Repulsion Energy =             84.4140923688509019
    One-Electron Energy =                -347.7429926857744249
    Two-Electron Energy =                 129.0944574910402878
    DFT Exchange-Correlation Energy =       0.0000000000000000
    Empirical Dispersion Energy =           0.0000000000000000
    PCM Polarization Energy =               0.0000000000000000
    EFP Energy =                            0.0000000000000000
    Total Energy =                       -134.2344428258832352
    Molecular point group: c1
  Basis Set: 6-31G*
  Basis Set:

  -Total Gradient:
     Atom            X                  Y                   Z
    ------   -----------------  -----------------  -----------------
       1        0.000009611623     0.000010744806     0.000013947039
       2       -0.001077245646     0.002103304470    -0.000961273796
       3        0.002059414890    -0.003470770245     0.001769466938
       4        0.000011736946     0.000000875066    -0.000003365170
       5       -0.000009296679    -0.000000830754     0.000003262763
       6       -0.003139771616     0.003285246377    -0.002437082190
       7       -0.000012346525    -0.000021511277    -0.000000108127
       8        0.002134121277    -0.001891290646     0.001566072305
       9        0.000010017254    -0.000001856057     0.000036714223
      10        0.000013758476    -0.000013911739     0.000012366015

  **** Optimization is complete! (in 5 steps) ****
    Final optimized geometry and variables:
    Molecular point group: c1

    Geometry (in Angstrom), charge = 0, multiplicity = 1:

    H            0.289578731594     1.610181460360     0.719839996456
    C            0.163856968858     0.596094001871     1.083102493951
    N           -0.485064230989    -0.203323464023     0.068004605297
    H           -0.467131241900     0.639598669360     1.963658659743
    H            1.146453093311     0.226573380566     1.389067771365
    C            0.265044812950    -0.372052644111    -1.164407685163
    H           -0.764488664373    -1.087463306031     0.438393793932
    H            1.016808173582     0.404562560450    -1.250270732722
    H           -0.388078061635    -0.314949300077    -2.028690903592
    H            0.799650259314    -1.321078102639    -1.208791408186

  Mulliken Charges: (a.u.)
   Center  Symbol    Alpha    Beta     Spin     Total
       1     H     0.41783  0.41783  0.00000  0.16434
       2     C     3.14207  3.14207  0.00000 -0.28414
       3     N     3.84640  3.84640  0.00000 -0.69281
       4     H     0.41805  0.41805  0.00000  0.16391
       5     H     0.43535  0.43535  0.00000  0.12929
       6     C     3.14317  3.14317  0.00000 -0.28634
       7     H     0.33072  0.33072  0.00000  0.33856
       8     H     0.42054  0.42054  0.00000  0.15892
       9     H     0.41598  0.41598  0.00000  0.16804
      10     H     0.42989  0.42989  0.00000  0.14023

   Total alpha = 13.00000, Total beta = 13.00000, Total charge =  0.00000
