                              Psi4 1.0.54 Driver

  ==> Input File <==

--------------------------------------------------------------------------
set {
	reference rhf
	basis cc-pvtz
}

set_num_threads( 4 )
memory 2 gb

molecule MOL {
0 1

O	 0.218938	 1.039514	 -0.662366
C	 0.029490	 0.077183	 0.000078
C	 -1.232113	 -0.748027	 0.000015
O	 0.922671	 -0.408686	 0.845886
C	 -2.501422	 0.088592	 -0.000052
H	 -1.188777	 -1.400384	 -0.865133
H	 -1.188857	 -1.400312	 0.865225
H	 -2.548170	 0.725504	 -0.873205
H	 -3.371613	 -0.556398	 -0.000040
H	 -2.548215	 0.725571	 0.873047
C	 2.157685	 0.271151	 0.946899
H	 2.667916	 0.278186	 -0.004863
H	 2.737422	 -0.271195	 1.676002
H	 2.006591	 1.289436	 1.273257

	symmetry c1
}
set optking {
	frozen_dihedral = ("
		4 2 3 6
	")
}

ee,wfn = optimize('scf', return_wfn=True)
oeprop( wfn, 'DIPOLE', 'QUADRUPOLE', 'MULLIKEN_CHARGES')
f=open( 'psi4out.xyz', 'w' )
f.write( "14  " )
f.write( str(ee) + "\n" )
f.write( MOL.save_string_xyz() )
f.close()
--------------------------------------------------------------------------

    Molecular point group: c1
  Charge       = 0
  Multiplicity = 1
  Basis Set: CC-PVTZ
  Basis Set:
  @DF-RHF Final Energy:  -305.98602037833029
    Total Energy =                       -305.9860203783304087
    Molecular point group: c1
  Basis Set: CC-PVTZ
  Basis Set:
  Basis Set: CC-PVTZ
  Basis Set:
  @DF-RHF Final Energy:  -305.98595683515560
    Total Energy =                       -305.9859568351559460
  Basis Set: CC-PVTZ
  Basis Set:
  Basis Set: CC-PVTZ
  Basis Set:
  @DF-RHF Final Energy:  -305.98632625493838
    Total Energy =                       -305.9863262549382625
  Basis Set: CC-PVTZ
  Basis Set:
  Basis Set: CC-PVTZ
  Basis Set:
  @DF-RHF Final Energy:  -305.98627051299684
    Total Energy =                       -305.9862705129967253
  Basis Set: CC-PVTZ
  Basis Set:
  Basis Set: CC-PVTZ
  Basis Set:
  @DF-RHF Final Energy:  -305.98652262085517
    Total Energy =                       -305.9865226208549416
  Basis Set: CC-PVTZ
  Basis Set:
  Charge       = 0
  Multiplicity = 1
  Basis Set: CC-PVTZ
  Basis Set:

    Orbital Energies (a.u.)
    -----------------------

    Doubly Occupied:

       1A    -20.599277     2A    -20.532895     3A    -11.365234
       4A    -11.279288     5A    -11.236498     6A    -11.218170
       7A     -1.473672     8A     -1.366032     9A     -1.065244
      10A     -0.981276    11A     -0.879925    12A     -0.773208
      13A     -0.701807    14A     -0.685033    15A     -0.675671
      16A     -0.620450    17A     -0.603435    18A     -0.556195
      19A     -0.539599    20A     -0.519259    21A     -0.514515
      22A     -0.498253    23A     -0.460750    24A     -0.440883

  @DF-RHF Final Energy:  -305.98652324044485

   => Energetics <=

    Nuclear Repulsion Energy =            247.6116027713191841
    One-Electron Energy =                -908.0231129102655814
    Two-Electron Energy =                 354.4249868985016292
    DFT Exchange-Correlation Energy =       0.0000000000000000
    Empirical Dispersion Energy =           0.0000000000000000
    PCM Polarization Energy =               0.0000000000000000
    EFP Energy =                            0.0000000000000000
    Total Energy =                       -305.9865232404447397
    Molecular point group: c1
  Basis Set: CC-PVTZ
  Basis Set:

  -Total Gradient:
     Atom            X                  Y                   Z
    ------   -----------------  -----------------  -----------------
       1        0.000035229436    -0.000019531470     0.000027467180
       2        0.000318074951    -0.000395611965    -0.001074063761
       3        0.000537543265    -0.000722999062     0.000856449622
       4       -0.000336427994     0.000439079648     0.000708908964
       5        0.000020658044    -0.000004160965    -0.000011179731
       6       -0.000555387724     0.000737845353    -0.000498225615
       7       -0.000000214055    -0.000023272508     0.000007620281
       8       -0.000007945864     0.000011438034    -0.000010416051
       9        0.000002517650    -0.000010395878     0.000001347173
      10        0.000011762800    -0.000007209536     0.000002977355
      11       -0.000014117504    -0.000016379531    -0.000014407752
      12       -0.000007412022    -0.000004559403    -0.000006978589
      13        0.000006704961     0.000000954511     0.000004633112
      14       -0.000010985940     0.000014802773     0.000005867809

  **** Optimization is complete! (in 6 steps) ****
    Final optimized geometry and variables:
    Molecular point group: c1

    Geometry (in Angstrom), charge = 0, multiplicity = 1:

    O            0.140986856905     1.034794455526    -0.775915163082
    C            0.058495103759     0.022188156140    -0.167295715580
    C           -1.146707514247    -0.885750704938    -0.180676293838
    O            1.032110861433    -0.446451461145     0.593024529380
    C           -2.459387085125    -0.110123480042    -0.148297409554
    H           -1.084326446759    -1.456061669302    -1.102372773749
    H           -1.076121179667    -1.585759200484     0.639058083840
    H           -2.513578473030     0.587173929904    -0.972052142906
    H           -3.297060892641    -0.792910563533    -0.216654506662
    H           -2.558596157548     0.451000930701     0.773366377401
    C            2.229861275766     0.303133510598     0.645717958443
    H            2.670329803531     0.386511858002    -0.336702156422
    H            2.889548517190    -0.236597391822     1.305480316633
    H            2.041975976537     1.293365793857     1.033025722666

  Mulliken Charges: (a.u.)
   Center  Symbol    Alpha    Beta     Spin     Total
       1     O     4.20166  4.20166  0.00000 -0.40331
       2     C     2.80636  2.80636  0.00000  0.38727
       3     C     3.08782  3.08782  0.00000 -0.17564
       4     O     4.14391  4.14391  0.00000 -0.28782
       5     C     3.14310  3.14310  0.00000 -0.28620
       6     H     0.44632  0.44632  0.00000  0.10737
       7     H     0.43825  0.43825  0.00000  0.12351
       8     H     0.44175  0.44175  0.00000  0.11649
       9     H     0.44984  0.44984  0.00000  0.10032
      10     H     0.45337  0.45337  0.00000  0.09325
      11     C     3.03404  3.03404  0.00000 -0.06807
      12     H     0.45437  0.45437  0.00000  0.09126
      13     H     0.44520  0.44520  0.00000  0.10961
      14     H     0.45402  0.45402  0.00000  0.09196

   Total alpha = 24.00000, Total beta = 24.00000, Total charge = -0.00000

*** Psi4 exiting successfully. Buy a developer a beer!
