                              Psi4 1.0.54 Driver

  ==> Input File <==

--------------------------------------------------------------------------
set {
	reference rhf
	basis cc-pvtz
}

set_num_threads( 4 )
memory 2 gb

molecule MOL {
0 1

O	 -1.278239	 1.034789	 -0.784693
C	 -1.204115	 0.062668	 -0.112312
C	 -2.386398	 -0.667698	 0.460323
O	 -0.068058	 -0.518372	 0.226882
H	 -2.382952	 -1.693172	 0.114333
H	 -3.296656	 -0.175702	 0.158400
H	 -2.312537	 -0.685191	 1.540100
C	 1.169069	 0.037277	 -0.230911
C	 2.157421	 -1.110733	 -0.279371
C	 1.605356	 1.157676	 0.695894
H	 1.008693	 0.430570	 -1.223225
H	 1.807401	 -1.889067	 -0.945278
H	 3.117253	 -0.759050	 -0.638193
H	 2.296000	 -1.540108	 0.705702
H	 2.548170	 1.571424	 0.357643
H	 0.872914	 1.952670	 0.708631
H	 1.738279	 0.785551	 1.705417

	symmetry c1
}
set optking {
	frozen_dihedral = ("
		8 4 2 1
	")
}

ee,wfn = optimize('scf', return_wfn=True)
oeprop( wfn, 'DIPOLE', 'QUADRUPOLE', 'MULLIKEN_CHARGES')
f=open( 'psi4out.xyz', 'w' )
f.write( "17  " )
f.write( str(ee) + "\n" )
f.write( MOL.save_string_xyz() )
f.close()
--------------------------------------------------------------------------

    Molecular point group: c1
  Charge       = 0
  Multiplicity = 1
  Basis Set: CC-PVTZ
  Basis Set:
  @DF-RHF Final Energy:  -345.04339657881354
    Total Energy =                       -345.0433965788135993
    Molecular point group: c1
  Basis Set: CC-PVTZ
  Basis Set:
  Charge       = 0
  Multiplicity = 1
  Basis Set: CC-PVTZ
  Basis Set:

    Orbital Energies (a.u.)
    -----------------------

    Doubly Occupied:

       1A    -20.591281     2A    -20.531478     3A    -11.366756
       4A    -11.288127     5A    -11.230548     6A    -11.217719
       7A    -11.214068     8A     -1.468506     9A     -1.364487
      10A     -1.079643    11A     -1.005644    12A     -0.948765
      13A     -0.850024    14A     -0.767203    15A     -0.694749
      16A     -0.673059    17A     -0.662054    18A     -0.614177
      19A     -0.587058    20A     -0.579027    21A     -0.564022
      22A     -0.550865    23A     -0.538282    24A     -0.521732
      25A     -0.504062    26A     -0.483155    27A     -0.450421
      28A     -0.439076

  @DF-RHF Final Energy:  -345.04339661591172

   => Energetics <=

    Nuclear Repulsion Energy =            323.6339718278038049
    One-Electron Energy =               -1111.7827601802700883
    Two-Electron Energy =                 443.1053917365543384
    DFT Exchange-Correlation Energy =       0.0000000000000000
    Empirical Dispersion Energy =           0.0000000000000000
    PCM Polarization Energy =               0.0000000000000000
    EFP Energy =                            0.0000000000000000
    Total Energy =                       -345.0433966159118881
    Molecular point group: c1
  Basis Set: CC-PVTZ
  Basis Set:

  -Total Gradient:
     Atom            X                  Y                   Z
    ------   -----------------  -----------------  -----------------
       1        0.000010124058     0.000024156688     0.000024305871
       2        0.000002546624    -0.000043312731    -0.000058435730
       3        0.000001979252     0.000010288338     0.000015324912
       4        0.000009626518     0.000001467873     0.000016339311
       5        0.000003243916     0.000002028562    -0.000000350217
       6        0.000003622222     0.000001280531     0.000001233403
       7       -0.000004367199    -0.000001532636     0.000003363127
       8        0.000017297954     0.000021227273    -0.000006928424
       9       -0.000011682648    -0.000009381473     0.000003151639
      10       -0.000027656898     0.000005285077    -0.000003364281
      11       -0.000009070358    -0.000004096322    -0.000001530361
      12        0.000001970454    -0.000004064292    -0.000000060760
      13       -0.000006654671     0.000002180133     0.000000994115
      14        0.000002442732    -0.000001996135     0.000000694505
      15       -0.000001883606    -0.000004334351    -0.000000900024
      16        0.000004904215    -0.000000799047     0.000002492331
      17        0.000003557434     0.000001602508     0.000003670586

  **** Optimization is complete! (in 2 steps) ****
    Final optimized geometry and variables:
    Molecular point group: c1

    Geometry (in Angstrom), charge = 0, multiplicity = 1:

    O           -1.278573558654     1.034127772050    -0.785592234502
    C           -1.204142495429     0.062310882783    -0.112808059960
    C           -2.386167953650    -0.668185998098     0.460178572307
    O           -0.067913355848    -0.518035863877     0.227062102646
    H           -2.382426433177    -1.693816583949     0.114663366217
    H           -3.296547311531    -0.176612018860     0.158011398910
    H           -2.312347040248    -0.685186458299     1.539962130514
    C            1.169200420854     0.037843947054    -0.230325580215
    C            2.157649361651    -1.110110108746    -0.278574407721
    C            1.604945900928     1.158170715308     0.696896850129
    H            1.008966811488     0.431175533176    -1.222632429050
    H            1.807938323719    -1.888503462537    -0.944580740776
    H            3.117478211821    -0.758254962994    -0.637168703952
    H            2.296099190391    -1.539493407235     0.706514339346
    H            2.547657148310     1.572298366615     0.358898427483
    H            0.872260825334     1.952953664000     0.709716719597
    H            1.737809861361     0.785886627436     1.706366388101

  Mulliken Charges: (a.u.)
   Center  Symbol    Alpha    Beta     Spin     Total
       1     O     4.19950  4.19950  0.00000 -0.39900
       2     C     2.80574  2.80574  0.00000  0.38851
       3     C     3.13914  3.13914  0.00000 -0.27828
       4     O     4.16400  4.16400  0.00000 -0.32800
       5     H     0.44594  0.44594  0.00000  0.10813
       6     H     0.43842  0.43842  0.00000  0.12316
       7     H     0.44619  0.44619  0.00000  0.10763
       8     C     2.93097  2.93097  0.00000  0.13807
       9     C     3.13794  3.13794  0.00000 -0.27587
      10     C     3.15393  3.15393  0.00000 -0.30786
      11     H     0.44215  0.44215  0.00000  0.11570
      12     H     0.44705  0.44705  0.00000  0.10590
      13     H     0.45418  0.45418  0.00000  0.09164
      14     H     0.45250  0.45250  0.00000  0.09500
      15     H     0.45007  0.45007  0.00000  0.09986
      16     H     0.43869  0.43869  0.00000  0.12263
      17     H     0.45361  0.45361  0.00000  0.09279

   Total alpha = 28.00000, Total beta = 28.00000, Total charge = -0.00000

*** Psi4 exiting successfully. Buy a developer a beer!
