                              Psi4 1.0.54 Driver

  ==> Input File <==

--------------------------------------------------------------------------
set {
	reference rhf
	basis cc-pvtz
}

set_num_threads( 4 )
memory 2 gb

molecule MOL {
0 1

O	 1.163874	 0.496634	 0.957851
C	 0.576499	 0.134701	 -0.003900
C	 -0.765656	 -0.550508	 -0.002152
O	 1.039429	 0.281344	 -1.234414
C	 -1.945526	 0.411052	 0.000603
H	 -0.794329	 -1.203792	 -0.868145
H	 -0.791555	 -1.205429	 0.862701
C	 -3.282915	 -0.321280	 0.002596
H	 -1.880300	 1.059126	 -0.864925
H	 -1.877207	 1.057892	 0.866807
H	 -3.388495	 -0.952755	 -0.873419
H	 -4.107811	 0.380864	 0.004116
H	 -3.385717	 -0.953283	 0.878571
C	 2.297731	 0.907681	 -1.384042
H	 2.273422	 1.911373	 -0.986465
H	 2.493483	 0.931490	 -2.443666
H	 3.066355	 0.345257	 -0.875183

	symmetry c1
}
set optking {
	frozen_dihedral = ("
		1 2 3 6
	")
}

ee,wfn = optimize('scf', return_wfn=True)
oeprop( wfn, 'DIPOLE', 'QUADRUPOLE', 'MULLIKEN_CHARGES')
f=open( 'psi4out.xyz', 'w' )
f.write( "17  " )
f.write( str(ee) + "\n" )
f.write( MOL.save_string_xyz() )
f.close()
--------------------------------------------------------------------------

    Molecular point group: c1
  Charge       = 0
  Multiplicity = 1
  Basis Set: CC-PVTZ
  Basis Set:
  @DF-RHF Final Energy:  -345.03335919004229
    Total Energy =                       -345.0333591900420629
    Molecular point group: c1
  Basis Set: CC-PVTZ
  Basis Set:
  Basis Set: CC-PVTZ
  Basis Set:
  @DF-RHF Final Energy:  -344.89580724920933
    Total Energy =                       -344.8958072492090423
  Basis Set: CC-PVTZ
  Basis Set:
  Basis Set: CC-PVTZ
  Basis Set:
  @DF-RHF Final Energy:  -345.00403217655446
    Total Energy =                       -345.0040321765542330
  Basis Set: CC-PVTZ
  Basis Set:
  Basis Set: CC-PVTZ
  Basis Set:
  @DF-RHF Final Energy:  -345.03321728000935
    Total Energy =                       -345.0332172800094668
  Basis Set: CC-PVTZ
  Basis Set:
  @DF-RHF Final Energy:  -345.03091356074418
    Total Energy =                       -345.0309135607441249
  Basis Set: CC-PVTZ
  Basis Set:
  @DF-RHF Final Energy:  -345.03405325487716
    Total Energy =                       -345.0340532548769943
  Basis Set: CC-PVTZ
  Basis Set:
  Basis Set: CC-PVTZ
  Basis Set:
  @DF-RHF Final Energy:  -345.03417039126191
    Total Energy =                       -345.0341703912615685
  Basis Set: CC-PVTZ
  Basis Set:
  Basis Set: CC-PVTZ
  Basis Set:
  @DF-RHF Final Energy:  -345.03418576554094
    Total Energy =                       -345.0341857655411673
  Basis Set: CC-PVTZ
  Basis Set:
  Charge       = 0
  Multiplicity = 1
  Basis Set: CC-PVTZ
  Basis Set:

    Orbital Energies (a.u.)
    -----------------------

    Doubly Occupied:

       1A    -20.597950     2A    -20.532142     3A    -11.363632
       4A    -11.278626     5A    -11.232543     6A    -11.230513
       7A    -11.216796     8A     -1.472170     9A     -1.364703
      10A     -1.085333    11A     -1.000863    12A     -0.942418
      13A     -0.830554    14A     -0.775902    15A     -0.699958
      16A     -0.683171    17A     -0.676332    18A     -0.637869
      19A     -0.596731    20A     -0.583424    21A     -0.555024
      22A     -0.543216    23A     -0.527755    24A     -0.507970
      25A     -0.488427    26A     -0.485133    27A     -0.458069
      28A     -0.435811

  @DF-RHF Final Energy:  -345.03418684201165

   => Energetics <=

    Nuclear Repulsion Energy =            314.4039923051511778
    One-Electron Energy =               -1093.2702860857282303
    Two-Electron Energy =                 433.8321069385651185
    DFT Exchange-Correlation Energy =       0.0000000000000000
    Empirical Dispersion Energy =           0.0000000000000000
    PCM Polarization Energy =               0.0000000000000000
    EFP Energy =                            0.0000000000000000
    Total Energy =                       -345.0341868420119340
    Molecular point group: c1
  Basis Set: CC-PVTZ
  Basis Set:

  -Total Gradient:
     Atom            X                  Y                   Z
    ------   -----------------  -----------------  -----------------
       1       -0.000152234517     0.000256903333     0.000114879229
       2        0.000202846382    -0.000376530734    -0.000071039366
       3        0.000144394676    -0.000154451759     0.000040780753
       4        0.000048029431     0.000087105306    -0.000110830068
       5        0.000018740676    -0.000062194583    -0.000026054695
       6       -0.000155555016     0.000258174758    -0.000039423363
       7        0.000002794663     0.000010740966     0.000010189378
       8       -0.000005478886     0.000033440289     0.000038846318
       9        0.000004570911     0.000007218512    -0.000000416010
      10       -0.000013248483     0.000021504712     0.000019278073
      11       -0.000004663020     0.000002356991    -0.000005222686
      12       -0.000003102781    -0.000016683775    -0.000011537420
      13       -0.000006134021    -0.000008156447    -0.000001187487
      14       -0.000047980955    -0.000056163866     0.000020268542
      15        0.000011051629     0.000004109384     0.000004254191
      16       -0.000026515984    -0.000024656488     0.000012832652
      17       -0.000017514704     0.000017283403     0.000004381956

  **** Optimization is complete! (in 9 steps) ****
    Final optimized geometry and variables:
    Molecular point group: c1

    Geometry (in Angstrom), charge = 0, multiplicity = 1:

    O            1.466874263659    -0.233742697550     0.956058436594
    C            0.713722127319    -0.172335372426     0.044053896410
    C           -0.616623617492    -0.875627790377    -0.012096083490
    O            0.938654309262     0.561127692549    -1.033339015388
    C           -1.723537566108    -0.006108146546     0.596110462949
    H           -0.855756938222    -1.110794211326    -1.040875160006
    H           -0.520927297218    -1.796313676550     0.547027006679
    C           -3.078940368375    -0.702823866473     0.575561203573
    H           -1.785742545418     0.928194775137     0.048334128292
    H           -1.454866374543     0.243251469785     1.616489398200
    H           -3.382814224001    -0.939639736716    -0.438364509704
    H           -3.844191139331    -0.072376337970     1.012223715676
    H           -3.050887971616    -1.629178299314     1.138815398610
    C            2.136986580479     1.309808072500    -1.068360980558
    H            2.170320318963     2.014236485813    -0.250489801511
    H            2.133682614797     1.832797940409    -2.010862310470
    H            2.995113043300     0.657373688599    -1.006417841674

  Mulliken Charges: (a.u.)
   Center  Symbol    Alpha    Beta     Spin     Total
       1     O     4.20382  4.20382  0.00000 -0.40765
       2     C     2.80588  2.80588  0.00000  0.38824
       3     C     3.07803  3.07803  0.00000 -0.15606
       4     O     4.14946  4.14946  0.00000 -0.29893
       5     C     3.09261  3.09261  0.00000 -0.18522
       6     H     0.44442  0.44442  0.00000  0.11115
       7     H     0.44010  0.44010  0.00000  0.11979
       8     C     3.15128  3.15128  0.00000 -0.30256
       9     H     0.44801  0.44801  0.00000  0.10398
      10     H     0.44349  0.44349  0.00000  0.11302
      11     H     0.45424  0.45424  0.00000  0.09152
      12     H     0.44611  0.44611  0.00000  0.10778
      13     H     0.45290  0.45290  0.00000  0.09421
      14     C     3.03656  3.03656  0.00000 -0.07312
      15     H     0.45451  0.45451  0.00000  0.09098
      16     H     0.44548  0.44548  0.00000  0.10905
      17     H     0.45309  0.45309  0.00000  0.09382

   Total alpha = 28.00000, Total beta = 28.00000, Total charge = -0.00000

*** Psi4 exiting successfully. Buy a developer a beer!
