  ==> Input File <==

--------------------------------------------------------------------------
set {
	reference rhf
	basis 6-31G*
}

set_num_threads( 4 )
memory 2 gb

molecule MOL {
0 1

O	 0.625848	 1.349995	 -0.000749
C	 0.486307	 0.169203	 0.000779
C	 1.608116	 -0.841643	 0.000302
O	 -0.698257	 -0.426125	 0.001050
C	 2.990107	 -0.200498	 -0.000684
H	 1.468623	 -1.481519	 -0.865924
H	 1.469683	 -1.481289	 0.866878
H	 3.129736	 0.423364	 -0.875135
H	 3.757882	 -0.966877	 -0.001197
H	 3.130964	 0.423383	 0.873533
C	 -0.921260	 -1.446931	 0.968327
C	 -2.330372	 -1.962863	 0.767009
H	 -0.785323	 -1.031136	 1.957377
H	 -0.186094	 -2.228340	 0.832231
H	 -3.054276	 -1.167202	 0.901341
H	 -2.543375	 -2.746216	 1.487174
H	 -2.451861	 -2.371043	 -0.229929

	symmetry c1
}
set optking {
	frozen_dihedral = ("
		11 4 2 3
	")
}

ee = optimize('scf')
oeprop('DIPOLE', 'QUADRUPOLE', 'MULLIKEN_CHARGES')
f=open( 'psi4out.xyz', 'w' )
f.write( "17  " )
f.write( str(ee) + "\n" )
f.write( MOL.save_string_xyz() )
f.close()
--------------------------------------------------------------------------

    Molecular point group: c1
  Charge       = 0
  Multiplicity = 1
  Basis Set: 6-31G*
  Basis Set:
  @DF-RHF Final Energy:  -344.88648545301527
    Total Energy =                       -344.8864854530149842
    Molecular point group: c1
  Basis Set: 6-31G*
  Basis Set:
  Basis Set: 6-31G*
  Basis Set:
  @DF-RHF Final Energy:  -344.88855503262988
    Total Energy =                       -344.8885550326297107
  Basis Set: 6-31G*
  Basis Set:
  Basis Set: 6-31G*
  Basis Set:
  @DF-RHF Final Energy:  -344.89271675798005
    Total Energy =                       -344.8927167579799402
  Basis Set: 6-31G*
  Basis Set:
  Basis Set: 6-31G*
  Basis Set:
  @DF-RHF Final Energy:  -344.89352030172461
    Total Energy =                       -344.8935203017247204
  Basis Set: 6-31G*
  Basis Set:
  @DF-RHF Final Energy:  -344.89357724291227
    Total Energy =                       -344.8935772429122721
  Basis Set: 6-31G*
  Basis Set:
  @DF-RHF Final Energy:  -344.89364561622017
    Total Energy =                       -344.8936456162201125
  Basis Set: 6-31G*
  Basis Set:
  Basis Set: 6-31G*
  Basis Set:
  @DF-RHF Final Energy:  -344.89369512118549
    Total Energy =                       -344.8936951211856012
  Basis Set: 6-31G*
  Basis Set:
  Basis Set: 6-31G*
  Basis Set:
  @DF-RHF Final Energy:  -344.89369622355775
    Total Energy =                       -344.8936962235578676
  Basis Set: 6-31G*
  Basis Set:
  Charge       = 0
  Multiplicity = 1
  Basis Set: 6-31G*
  Basis Set:

    Orbital Energies (a.u.)
    -----------------------

    Doubly Occupied:

       1A    -20.590716     2A    -20.547854     3A    -11.373118
       4A    -11.299153     5A    -11.245023     6A    -11.226379
       7A    -11.219627     8A     -1.458762     9A     -1.366147
      10A     -1.063577    11A     -1.043178    12A     -0.901180
      13A     -0.875983    14A     -0.770499    15A     -0.703096
      16A     -0.689836    17A     -0.655049    18A     -0.637610
      19A     -0.599199    20A     -0.564501    21A     -0.560078
      22A     -0.537820    23A     -0.526855    24A     -0.517959
      25A     -0.509607    26A     -0.487875    27A     -0.449621
      28A     -0.432609

  @DF-RHF Final Energy:  -344.89369682918499

   => Energetics <=

    Nuclear Repulsion Energy =            314.8339498442603031
    One-Electron Energy =               -1093.7494722269470913
    Two-Electron Energy =                 434.0218255535018557
    DFT Exchange-Correlation Energy =       0.0000000000000000
    Empirical Dispersion Energy =           0.0000000000000000
    PCM Polarization Energy =               0.0000000000000000
    EFP Energy =                            0.0000000000000000
    Total Energy =                       -344.8936968291848757
    Molecular point group: c1
  Basis Set: 6-31G*
  Basis Set:

  -Total Gradient:
     Atom            X                  Y                   Z
    ------   -----------------  -----------------  -----------------
       1        0.000014490937    -0.000042724754     0.000001751956
       2       -0.000764852312     0.001183221024     0.005250201292
       3        0.000141423190     0.000042405512    -0.002786493507
       4        0.001841367691    -0.003257660657    -0.004434869312
       5       -0.000030713763    -0.000000441903     0.000007715586
       6       -0.000022768550    -0.000003896359    -0.000018026926
       7        0.000013483522    -0.000004455266    -0.000010487595
       8       -0.000008255895    -0.000004084431     0.000003902163
       9       -0.000003394797    -0.000002331974     0.000004892583
      10        0.000009736322     0.000009533592     0.000004014117
      11       -0.001184878192     0.002072141935     0.001948128566
      12        0.000008813395     0.000014913907     0.000013175050
      13       -0.000015055312     0.000017074226    -0.000011512738
      14       -0.000008351799    -0.000025915684     0.000023018693
      15       -0.000001785663     0.000000261787    -0.000001687838
      16        0.000000426243    -0.000001566842     0.000003053844
      17        0.000010314982     0.000003525891     0.000003224067

  **** Optimization is complete! (in 9 steps) ****
    Final optimized geometry and variables:
    Molecular point group: c1

    Geometry (in Angstrom), charge = 0, multiplicity = 1:

    O            0.341783048267     1.761307060488    -0.279595998543
    C            0.281375517480     0.583258462669    -0.197864374032
    C            1.498983537706    -0.318077676996    -0.151047986016
    O           -0.910253574521    -0.034598017407    -0.252218466851
    C            2.806668315990     0.447491625685    -0.315660040199
    H            1.378644413386    -1.064029857703    -0.931803760992
    H            1.499681607590    -0.864549903877     0.788380765586
    H            2.832406447419     0.973547738395    -1.261796856685
    H            3.646797911473    -0.237901163073    -0.280642991833
    H            2.928785961609     1.180805760053     0.471526114360
    C           -1.233508468569    -1.068750149443     0.662071321109
    C           -2.712737158511    -1.357255583946     0.514829925965
    H           -1.005537626111    -0.744758525940     1.672018878036
    H           -0.648908906133    -1.956767024765     0.448435632969
    H           -3.294353066231    -0.470650428424     0.735713320844
    H           -3.008237327072    -2.148601262560     1.196219417862
    H           -2.936918085971    -1.670854544199    -0.497980834983

  Mulliken Charges: (a.u.)
   Center  Symbol    Alpha    Beta     Spin     Total
       1     O     4.25779  4.25779  0.00000 -0.51558
       2     C     2.60758  2.60758  0.00000  0.78485
       3     C     3.22342  3.22342  0.00000 -0.44683
       4     O     4.31318  4.31318  0.00000 -0.62637
       5     C     3.23613  3.23613  0.00000 -0.47227
       6     H     0.40079  0.40079  0.00000  0.19842
       7     H     0.40579  0.40579  0.00000  0.18842
       8     H     0.40805  0.40805  0.00000  0.18390
       9     H     0.41881  0.41881  0.00000  0.16239
      10     H     0.40811  0.40811  0.00000  0.18378
      11     C     3.00460  3.00460  0.00000 -0.00919
      12     C     3.24530  3.24530  0.00000 -0.49060
      13     H     0.41759  0.41759  0.00000  0.16482
      14     H     0.42019  0.42019  0.00000  0.15962
      15     H     0.40574  0.40574  0.00000  0.18852
      16     H     0.41808  0.41808  0.00000  0.16385
      17     H     0.40886  0.40886  0.00000  0.18227

   Total alpha = 28.00000, Total beta = 28.00000, Total charge =  0.00000
