  ==> Input File <==

--------------------------------------------------------------------------
set {
	reference rhf
	basis 6-31G*
}

set_num_threads( 1 )
memory 2 gb

molecule MOL {
0 1

H	 -3.476332	 0.261371	 -1.904148
C	 -2.798559	 -0.416465	 -1.422668
C	 -2.076860	 -0.007332	 -0.404944
H	 -2.729635	 -1.422325	 -1.792000
O	 -1.180634	 -0.819263	 0.215062
H	 -2.136358	 0.993613	 -0.015376
C	 0.051604	 -1.018856	 -0.387932
C	 1.043764	 0.054862	 -0.001873
H	 -0.017620	 -1.041351	 -1.469781
H	 0.437898	 -1.966374	 -0.042284
F	 2.212596	 -0.199467	 -0.571921
F	 0.652529	 1.252447	 -0.405055
F	 1.230877	 0.110694	 1.300533

	symmetry c1
}
set optking {
	frozen_dihedral = ("
		11 8 7 9,
		3 5 7 9,
		6 3 2 1
	")
}

ee = energy('scf')
oeprop('DIPOLE', 'QUADRUPOLE', 'MULLIKEN_CHARGES')
f=open( 'psi4out.xyz', 'w' )
f.write( "13  " )
f.write( str(ee) + "\n" )
f.write( MOL.save_string_xyz() )
f.close()
--------------------------------------------------------------------------

    Molecular point group: c1

    Geometry (in Angstrom), charge = 0, multiplicity = 1:

       Center              X                  Y                   Z               Mass
    ------------   -----------------  -----------------  -----------------  -----------------
           H         -3.520676533732     0.347458133766    -1.727312041931     1.007825032070
           C         -2.842903533732    -0.330377866234    -1.245832041931    12.000000000000
           C         -2.121204533732     0.078755133766    -0.228108041931    12.000000000000
           H         -2.773979533732    -1.336237866234    -1.615164041931     1.007825032070
           O         -1.224978533732    -0.733175866234     0.391897958069    15.994914619560
           H         -2.180702533732     1.079700133766     0.161459958069     1.007825032070
           C          0.007259466268    -0.932768866234    -0.211096041931    12.000000000000
           C          0.999419466268     0.140949133766     0.174962958069    12.000000000000
           H         -0.061964533732    -0.955263866234    -1.292945041931     1.007825032070
           H          0.393553466268    -1.880286866234     0.134551958069     1.007825032070
           F          2.168251466268    -0.113379866234    -0.395085041931    18.998403224000
           F          0.608184466268     1.338534133766    -0.228219041931    18.998403224000
           F          1.186532466268     0.196781133766     1.477368958069    18.998403224000

  Charge       = 0
  Multiplicity = 1
  Basis Set: 6-31G*
  Basis Set:

    Orbital Energies (a.u.)
    -----------------------

    Doubly Occupied:

       1A    -26.342022     2A    -26.341988     3A    -26.338925
       4A    -20.598148     5A    -11.499994     6A    -11.313481
       7A    -11.296090     8A    -11.228091     9A     -1.739758
      10A     -1.637708    11A     -1.636601    12A     -1.431927
      13A     -1.079466    14A     -1.019678    15A     -0.926734
      16A     -0.835294    17A     -0.829106    18A     -0.827453
      19A     -0.764149    20A     -0.720892    21A     -0.713050
      22A     -0.702006    23A     -0.673167    24A     -0.657541
      25A     -0.651182    26A     -0.646801    27A     -0.641384
      28A     -0.592449    29A     -0.563988    30A     -0.529563
      31A     -0.466138    32A     -0.375157

  @DF-RHF Final Energy:  -527.53218203763504

   => Energetics <=

    Nuclear Repulsion Energy =            415.0772263646841225
    One-Electron Energy =               -1553.9789768206999270
    Two-Electron Energy =                 611.3695684183807089
    DFT Exchange-Correlation Energy =       0.0000000000000000
    Empirical Dispersion Energy =           0.0000000000000000
    PCM Polarization Energy =               0.0000000000000000
    EFP Energy =                            0.0000000000000000
    Total Energy =                       -527.5321820376351525

  Mulliken Charges: (a.u.)
   Center  Symbol    Alpha    Beta     Spin     Total
       1     H     0.40491  0.40491  0.00000  0.19018
       2     C     3.21844  3.21844  0.00000 -0.43688
       3     C     2.91340  2.91340  0.00000  0.17320
       4     H     0.40480  0.40480  0.00000  0.19039
       5     O     4.30827  4.30827  0.00000 -0.61654
       6     H     0.40044  0.40044  0.00000  0.19913
       7     C     3.05250  3.05250  0.00000 -0.10500
       8     C     2.45918  2.45918  0.00000  1.08165
       9     H     0.40468  0.40468  0.00000  0.19064
      10     H     0.39436  0.39436  0.00000  0.21128
      11     F     4.68313  4.68313  0.00000 -0.36627
      12     F     4.68032  4.68032  0.00000 -0.36065
      13     F     4.67556  4.67556  0.00000 -0.35112

   Total alpha = 32.00000, Total beta = 32.00000, Total charge =  0.00000
