                              Psi4 1.0.54 Driver

  ==> Input File <==

--------------------------------------------------------------------------
set {
	reference rhf
	basis cc-pvtz
}

set_num_threads( 4 )
memory 2 gb

molecule MOL {
0 1

H	 -1.744769	 -1.065681	 -3.807950
C	 -1.012198	 -0.958504	 -3.032083
C	 -1.023686	 -1.802696	 -1.930702
C	 -0.046106	 0.017296	 -3.111801
H	 -1.770123	 -2.570188	 -1.851193
C	 -0.086985	 -1.668898	 -0.934353
H	 -0.021138	 0.679859	 -3.956240
C	 0.907496	 0.166298	 -2.114378
H	 -0.087085	 -2.315900	 -0.079333
C	 0.887324	 -0.680037	 -1.021040
H	 1.646006	 0.935491	 -2.206062
O	 1.760432	 -0.625184	 0.000000
C	 2.773565	 0.334879	 0.000000
H	 2.728295	 0.960928	 -0.884150
H	 3.706387	 -0.206610	 0.000000
H	 2.728295	 0.960928	 0.884150

	symmetry c1
}
set optking {
	frozen_dihedral = ("
		10 12 13 14
	")
}

ee,wfn = optimize('scf', return_wfn=True)
oeprop( wfn, 'DIPOLE', 'QUADRUPOLE', 'MULLIKEN_CHARGES')
f=open( 'psi4out.xyz', 'w' )
f.write( "16  " )
f.write( str(ee) + "\n" )
f.write( MOL.save_string_xyz() )
f.close()
--------------------------------------------------------------------------

    Molecular point group: c1
  Charge       = 0
  Multiplicity = 1
  Basis Set: CC-PVTZ
  Basis Set:
  @DF-RHF Final Energy:  -344.69515239204594
    Total Energy =                       -344.6951523920458271
    Molecular point group: c1
  Basis Set: CC-PVTZ
  Basis Set:
  Basis Set: CC-PVTZ
  Basis Set:
  @DF-RHF Final Energy:  -344.69220670418605
    Total Energy =                       -344.6922067041859918
  Basis Set: CC-PVTZ
  Basis Set:
  Basis Set: CC-PVTZ
  Basis Set:
  @DF-RHF Final Energy:  -344.69761781485630
    Total Energy =                       -344.6976178148569261
  Basis Set: CC-PVTZ
  Basis Set:
  Basis Set: CC-PVTZ
  Basis Set:
  @DF-RHF Final Energy:  -344.69793426817313
    Total Energy =                       -344.6979342681731850
  Basis Set: CC-PVTZ
  Basis Set:
  Basis Set: CC-PVTZ
  Basis Set:
  @DF-RHF Final Energy:  -344.69794767825215
    Total Energy =                       -344.6979476782520351
  Basis Set: CC-PVTZ
  Basis Set:
  Basis Set: CC-PVTZ
  Basis Set:
  @DF-RHF Final Energy:  -344.69794969253962
    Total Energy =                       -344.6979496925395097
  Basis Set: CC-PVTZ
  Basis Set:
  Charge       = 0
  Multiplicity = 1
  Basis Set: CC-PVTZ
  Basis Set:

    Orbital Energies (a.u.)
    -----------------------

    Doubly Occupied:

       1A    -20.577966     2A    -11.296217     3A    -11.278799
       4A    -11.230703     5A    -11.229154     6A    -11.220995
       7A    -11.216203     8A    -11.215274     9A     -1.415770
      10A     -1.150344    11A     -1.026115    12A     -1.016568
      13A     -0.944615    14A     -0.833579    15A     -0.808266
      16A     -0.726996    17A     -0.666378    18A     -0.665918
      19A     -0.658169    20A     -0.620940    21A     -0.589445
      22A     -0.576858    23A     -0.531453    24A     -0.521609
      25A     -0.514040    26A     -0.475939    27A     -0.465547
      28A     -0.339072    29A     -0.307132

  @DF-RHF Final Energy:  -344.69795042452506

   => Energetics <=

    Nuclear Repulsion Energy =            347.7644242627898166
    One-Electron Energy =               -1156.6846181462578897
    Two-Electron Energy =                 464.2222434589431259
    DFT Exchange-Correlation Energy =       0.0000000000000000
    Empirical Dispersion Energy =           0.0000000000000000
    PCM Polarization Energy =               0.0000000000000000
    EFP Energy =                            0.0000000000000000
    Total Energy =                       -344.6979504245249473
    Molecular point group: c1
  Basis Set: CC-PVTZ
  Basis Set:

  -Total Gradient:
     Atom            X                  Y                   Z
    ------   -----------------  -----------------  -----------------
       1       -0.000001932931    -0.000001893617     0.000002546397
       2       -0.000000667517     0.000009232724    -0.000000862722
       3        0.000019737006    -0.000013169923     0.000002558782
       4       -0.000001221518    -0.000006632448    -0.000002325896
       5       -0.000003125106     0.000000663889     0.000000364870
       6       -0.000020553414    -0.000007201679    -0.000009065857
       7        0.000001685672     0.000000033230     0.000001647918
       8        0.000027424427    -0.000024097348    -0.000010779053
       9       -0.000003290905     0.000002750685     0.000001352387
      10       -0.000017834344     0.000053259704     0.000035992095
      11        0.000020817169    -0.000009545999    -0.000001612873
      12        0.000009605108     0.000018355731     0.000000917641
      13        0.000016926344    -0.000091973329    -0.000024614708
      14       -0.000056381954     0.000075550429    -0.000000637388
      15        0.000013323762    -0.000003351736    -0.000006681023
      16       -0.000004511792    -0.000001980312     0.000011199432

  **** Optimization is complete! (in 7 steps) ****
    Final optimized geometry and variables:
    Molecular point group: c1

    Geometry (in Angstrom), charge = 0, multiplicity = 1:

    H           -2.394460779152    -0.549250594290    -2.293382751931
    C           -1.645652098145    -0.402490085831    -1.539891833443
    C           -1.621898726925    -1.196191413314    -0.402828993428
    C           -0.690080315208     0.576451452768    -1.681828701132
    H           -2.357679197958    -1.966671512099    -0.270035611056
    C           -0.662799122624    -1.008957245072     0.563116243130
    H           -0.689767894590     1.202739173684    -2.553956838420
    C            0.285591663658     0.779153817592    -0.715904885724
    H           -0.636882354827    -1.617916062558     1.445171097972
    C            0.302415868526    -0.017084084896     0.415074235918
    H            1.006177920188     1.553472391741    -0.871349046626
    O            1.185123235921     0.068411080282     1.426727227626
    C            2.241632233212     0.985753502135     1.465508181063
    H            2.286459080633     1.626779457325     0.601267266829
    H            3.171003292060     0.436386699784     1.536300679188
    H            2.129019819033     1.602694234897     2.347134564298

  Mulliken Charges: (a.u.)
   Center  Symbol    Alpha    Beta     Spin     Total
       1     H     0.42458  0.42458  0.00000  0.15083
       2     C     3.10259  3.10259  0.00000 -0.20518
       3     C     3.05692  3.05692  0.00000 -0.11385
       4     C     3.05745  3.05745  0.00000 -0.11490
       5     H     0.42296  0.42296  0.00000  0.15408
       6     C     3.11445  3.11445  0.00000 -0.22890
       7     H     0.42385  0.42385  0.00000  0.15230
       8     C     3.14524  3.14524  0.00000 -0.29048
       9     H     0.42092  0.42092  0.00000  0.15816
      10     C     2.84889  2.84889  0.00000  0.30223
      11     H     0.42474  0.42474  0.00000  0.15052
      12     O     4.15557  4.15557  0.00000 -0.31113
      13     C     3.02902  3.02902  0.00000 -0.05804
      14     H     0.46521  0.46521  0.00000  0.06958
      15     H     0.45374  0.45374  0.00000  0.09251
      16     H     0.45386  0.45386  0.00000  0.09228

   Total alpha = 29.00000, Total beta = 29.00000, Total charge =  0.00000

*** Psi4 exiting successfully. Buy a developer a beer!
