  ==> Input File <==

--------------------------------------------------------------------------
set {
	reference rhf
	basis 6-31G*
}

set_num_threads( 4 )
memory 2 gb

molecule MOL {
0 1

O	 0.749854	 1.307668	 -0.000040
C	 0.576249	 0.131685	 -0.000108
C	 -0.766779	 -0.556801	 -0.000461
O	 1.568443	 -0.749345	 -0.000005
C	 -1.945214	 0.412366	 0.000161
H	 -0.796911	 -1.211249	 -0.867467
H	 -0.796854	 -1.212390	 0.865687
C	 -3.287791	 -0.317055	 0.000105
H	 -1.876087	 1.060580	 -0.866812
H	 -1.875822	 1.059691	 0.867761
H	 -3.394745	 -0.949193	 -0.877058
H	 -4.111778	 0.388953	 0.000015
H	 -3.394954	 -0.949187	 0.877259
C	 2.886820	 -0.232538	 0.000195
H	 3.059047	 0.369505	 -0.880387
H	 3.540187	 -1.091012	 -0.000056
H	 3.059078	 0.369022	 0.881083

	symmetry c1
}
set optking {
	frozen_dihedral = ("
		14 4 2 1
	")
}

ee = optimize('scf')
oeprop('DIPOLE', 'QUADRUPOLE', 'MULLIKEN_CHARGES')
f=open( 'psi4out.xyz', 'w' )
f.write( "17  " )
f.write( str(ee) + "\n" )
f.write( MOL.save_string_xyz() )
f.close()
--------------------------------------------------------------------------

    Molecular point group: c1
  Charge       = 0
  Multiplicity = 1
  Basis Set: 6-31G*
  Basis Set:
  @DF-RHF Final Energy:  -344.90686215360154
    Total Energy =                       -344.9068621536014234
    Molecular point group: c1
  Basis Set: 6-31G*
  Basis Set:
  Charge       = 0
  Multiplicity = 1
  Basis Set: 6-31G*
  Basis Set:

    Orbital Energies (a.u.)
    -----------------------

    Doubly Occupied:

       1A    -20.604048     2A    -20.545888     3A    -11.372709
       4A    -11.281149     5A    -11.236095     6A    -11.221993
       7A    -11.214591     8A     -1.469767     9A     -1.363233
      10A     -1.080638    11A     -1.001514    12A     -0.939819
      13A     -0.827287    14A     -0.767387    15A     -0.700411
      16A     -0.683619    17A     -0.672336    18A     -0.637047
      19A     -0.595215    20A     -0.574765    21A     -0.569023
      22A     -0.527398    23A     -0.521921    24A     -0.498743
      25A     -0.487116    26A     -0.478877    27A     -0.456368
      28A     -0.438275

  @DF-RHF Final Energy:  -344.90686215649214

   => Energetics <=

    Nuclear Repulsion Energy =            312.4744781217794980
    One-Electron Energy =               -1089.2282133051082837
    Two-Electron Energy =                 431.8468730268369882
    DFT Exchange-Correlation Energy =       0.0000000000000000
    Empirical Dispersion Energy =           0.0000000000000000
    PCM Polarization Energy =               0.0000000000000000
    EFP Energy =                            0.0000000000000000
    Total Energy =                       -344.9068621564917976
    Molecular point group: c1
  Basis Set: 6-31G*
  Basis Set:

  -Total Gradient:
     Atom            X                  Y                   Z
    ------   -----------------  -----------------  -----------------
       1        0.000005314543    -0.000003923480     0.000012284105
       2       -0.000005747247    -0.000005290782    -0.000038250951
       3       -0.000001491151     0.000000863538     0.000016348680
       4        0.000000301813     0.000011397461     0.000012207089
       5       -0.000002365179    -0.000002843558     0.000007621174
       6        0.000003342587     0.000001920075     0.000000605940
       7       -0.000002868255    -0.000001873701    -0.000001300239
       8       -0.000001286171     0.000002789375    -0.000004490967
       9       -0.000002256175    -0.000004089850    -0.000000163006
      10       -0.000001588313     0.000004087763    -0.000000430590
      11       -0.000003576604     0.000000438526    -0.000001585730
      12       -0.000001154475    -0.000000700857     0.000002283517
      13        0.000005191726     0.000001495658    -0.000003149012
      14        0.000001974661    -0.000006679681    -0.000007293849
      15        0.000002686820     0.000000858967     0.000003296790
      16        0.000006053848     0.000001281157     0.000001718780
      17       -0.000002532434     0.000000269387     0.000000298268

  **** Optimization is complete! (in 2 steps) ****
    Final optimized geometry and variables:
    Molecular point group: c1

    Geometry (in Angstrom), charge = 0, multiplicity = 1:

    O            0.749900732986     1.307625414952    -0.000231264931
    C            0.576257399921     0.131651397246    -0.000223250625
    C           -0.766820529906    -0.556799724599    -0.000208246925
    O            1.568483845703    -0.749353949653     0.000004940694
    C           -1.945275283982     0.412382086663     0.000319947496
    H           -0.797055752596    -1.211493455734    -0.867019379237
    H           -0.796788083091    -1.212152679737     0.866104211557
    C           -3.287853980647    -0.317005437816     0.000058543684
    H           -1.876094413518     1.060536364740    -0.866683856975
    H           -1.875974191257     1.059778085349     0.867890900948
    H           -3.395212520566    -0.948296916668    -0.877661615119
    H           -4.111841930371     0.388972567940     0.001045224416
    H           -3.394568383614    -0.949997089319     0.876625851490
    C            2.886875590313    -0.232523623976     0.000247060197
    H            3.059352889280     0.369117267541    -0.880531635734
    H            3.540356071796    -1.090951895732     0.000620080613
    H            3.058823730638     0.369468305996     0.880891582231

  Mulliken Charges: (a.u.)
   Center  Symbol    Alpha    Beta     Spin     Total
       1     O     4.28583  4.28583  0.00000 -0.57166
       2     C     2.60611  2.60611  0.00000  0.78778
       3     C     3.20602  3.20602  0.00000 -0.41205
       4     O     4.30699  4.30699  0.00000 -0.61398
       5     C     3.15192  3.15192  0.00000 -0.30384
       6     H     0.40095  0.40095  0.00000  0.19811
       7     H     0.40094  0.40094  0.00000  0.19811
       8     C     3.24277  3.24277  0.00000 -0.48555
       9     H     0.41089  0.41089  0.00000  0.17822
      10     H     0.41090  0.41090  0.00000  0.17819
      11     H     0.42134  0.42134  0.00000  0.15731
      12     H     0.41511  0.41511  0.00000  0.16978
      13     H     0.42135  0.42135  0.00000  0.15730
      14     C     3.09248  3.09248  0.00000 -0.18497
      15     H     0.40901  0.40901  0.00000  0.18198
      16     H     0.40837  0.40837  0.00000  0.18327
      17     H     0.40901  0.40901  0.00000  0.18199

   Total alpha = 28.00000, Total beta = 28.00000, Total charge = -0.00000
