                              Psi4 1.0.54 Driver

  ==> Input File <==

--------------------------------------------------------------------------
set {
	reference rhf
	basis cc-pvtz
}

set_num_threads( 4 )
memory 2 gb

molecule MOL {
0 1

O	 1.860244	 1.271363	 -0.223340
C	 1.704209	 0.119472	 -0.000093
C	 0.380337	 -0.600947	 -0.000234
O	 2.699372	 -0.704224	 0.285549
C	 -0.824290	 0.329213	 -0.000115
H	 0.371455	 -1.255476	 -0.865660
H	 0.371410	 -1.255787	 0.864952
C	 -2.146151	 -0.432825	 -0.000068
H	 -0.773936	 0.979158	 -0.866319
H	 -0.773838	 0.979034	 0.866186
C	 -3.366283	 0.483552	 0.000557
H	 -2.189286	 -1.084450	 -0.869996
H	 -2.188867	 -1.085083	 0.869399
C	 -4.687436	 -0.278003	 0.000108
H	 -3.325150	 1.134819	 -0.867957
H	 -3.325087	 1.133730	 0.869885
H	 -4.773783	 -0.912098	 -0.876078
H	 -5.531922	 0.401392	 0.000363
H	 -4.773901	 -0.912898	 0.875703
C	 4.003023	 -0.159585	 0.320000
H	 4.268119	 0.256075	 -0.640814
H	 4.660782	 -0.977312	 0.566011
H	 4.073320	 0.614098	 1.070124

	symmetry c1
}
set optking {
	frozen_dihedral = ("
		1 2 3 6
	")
}

ee,wfn = optimize('scf', return_wfn=True)
oeprop( wfn, 'DIPOLE', 'QUADRUPOLE', 'MULLIKEN_CHARGES')
f=open( 'psi4out.xyz', 'w' )
f.write( "23  " )
f.write( str(ee) + "\n" )
f.write( MOL.save_string_xyz() )
f.close()
--------------------------------------------------------------------------

    Molecular point group: c1
  Charge       = 0
  Multiplicity = 1
  Basis Set: CC-PVTZ
  Basis Set:
  @DF-RHF Final Energy:  -423.13089827631364
    Total Energy =                       -423.1308982763137010
    Molecular point group: c1
  Basis Set: CC-PVTZ
  Basis Set:
  Basis Set: CC-PVTZ
  Basis Set:
  @DF-RHF Final Energy:  -423.13037130362795
    Total Energy =                       -423.1303713036282943
  Basis Set: CC-PVTZ
  Basis Set:
  Basis Set: CC-PVTZ
  Basis Set:
  @DF-RHF Final Energy:  -423.13095710168199
    Total Energy =                       -423.1309571016815880
  Basis Set: CC-PVTZ
  Basis Set:
  Basis Set: CC-PVTZ
  Basis Set:
  @DF-RHF Final Energy:  -423.13098122968688
    Total Energy =                       -423.1309812296865402
  Basis Set: CC-PVTZ
  Basis Set:
  Charge       = 0
  Multiplicity = 1
  Basis Set: CC-PVTZ
  Basis Set:

    Orbital Energies (a.u.)
    -----------------------

    Doubly Occupied:

       1A    -20.596528     2A    -20.533843     3A    -11.364546
       4A    -11.278450     5A    -11.233729     6A    -11.217428
       7A    -11.215911     8A    -11.214583     9A    -11.207811
      10A     -1.472262    11A     -1.365669    12A     -1.094570
      13A     -1.044767    14A     -0.988020    15A     -0.932812
      16A     -0.844117    17A     -0.795630    18A     -0.769526
      19A     -0.698996    20A     -0.686771    21A     -0.675343
      22A     -0.653030    23A     -0.609813    24A     -0.600869
      25A     -0.573702    26A     -0.561827    27A     -0.555840
      28A     -0.525440    29A     -0.522651    30A     -0.508045
      31A     -0.484845    32A     -0.470432    33A     -0.467140
      34A     -0.463233    35A     -0.459397    36A     -0.438047

  @DF-RHF Final Energy:  -423.13098193459047

   => Energetics <=

    Nuclear Repulsion Energy =            452.9030156317862179
    One-Electron Energy =               -1473.8167559625385366
    Two-Electron Energy =                 597.7827583961618529
    DFT Exchange-Correlation Energy =       0.0000000000000000
    Empirical Dispersion Energy =           0.0000000000000000
    PCM Polarization Energy =               0.0000000000000000
    EFP Energy =                            0.0000000000000000
    Total Energy =                       -423.1309819345904089
    Molecular point group: c1
  Basis Set: CC-PVTZ
  Basis Set:

  -Total Gradient:
     Atom            X                  Y                   Z
    ------   -----------------  -----------------  -----------------
       1        0.000134896480    -0.000211825799    -0.000497402850
       2       -0.000186609253     0.000334250338     0.000718907416
       3        0.000241873972    -0.000474980345     0.000027486472
       4        0.000025777243     0.000030591670     0.000022689076
       5       -0.000017781001    -0.000001933656     0.000036641621
       6       -0.000205195232     0.000334544007    -0.000267473569
       7        0.000010250932     0.000015090920    -0.000009247235
       8        0.000001636778    -0.000002562220    -0.000003658254
       9        0.000006969007    -0.000006589767    -0.000000347077
      10        0.000000210303     0.000002125321    -0.000006706989
      11        0.000004264396    -0.000000422376     0.000002993151
      12       -0.000002545760    -0.000002169396    -0.000001361416
      13       -0.000001919206    -0.000003598762    -0.000001355559
      14       -0.000000341872     0.000000070078     0.000003340108
      15       -0.000000489368    -0.000000782102     0.000000149157
      16       -0.000001485060     0.000001487583    -0.000001452903
      17        0.000001442951     0.000000944311     0.000000791436
      18       -0.000001200425     0.000000718074     0.000000720051
      19        0.000000028933    -0.000000605541    -0.000000853762
      20        0.000017565472    -0.000025691682    -0.000043048756
      21       -0.000008135761     0.000008062873     0.000011251975
      22        0.000021461961     0.000004199423     0.000008644952
      23       -0.000040675492    -0.000000922949    -0.000000707044

  **** Optimization is complete! (in 5 steps) ****
    Final optimized geometry and variables:
    Molecular point group: c1

    Geometry (in Angstrom), charge = 0, multiplicity = 1:

    O            1.858895225808     1.274071676792    -0.181488195538
    C            1.704277915427     0.121287131357     0.038369499026
    C            0.383857792382    -0.605072643371     0.005329348415
    O            2.700360728871    -0.700592818236     0.325659966932
    C           -0.822447126668     0.321925531305    -0.054981276845
    H            0.411112047596    -1.256400035490    -0.863594458253
    H            0.340578123539    -1.258678429110     0.868514075183
    C           -2.140878798036    -0.443869901580    -0.111571654919
    H           -0.732660251611     0.968069010106    -0.919932988781
    H           -0.815001496907     0.975210313167     0.811123163546
    C           -3.362217434946     0.469050255844    -0.168923855193
    H           -2.142514886013    -1.097714885453    -0.980918131246
    H           -2.221314620822    -1.094045896964     0.756747033820
    C           -4.679907231744    -0.296277074344    -0.226821939907
    H           -3.283466971103     1.117919017836    -1.036589732125
    H           -3.362335514869     1.121782639678     0.699512114614
    H           -4.724938788723    -0.932743519548    -1.104378127958
    H           -5.525417150454     0.380704077133    -0.266351127685
    H           -4.803939421877    -0.929290027393     0.645626196867
    C            4.003885149792    -0.155215997114     0.352022214820
    H            4.264912906728     0.255905510070    -0.611897161783
    H            4.663222076219    -0.971251176994     0.599542903867
    H            4.076429466661     0.622279304710     1.097897320000

  Mulliken Charges: (a.u.)
   Center  Symbol    Alpha    Beta     Spin     Total
       1     O     4.19746  4.19746  0.00000 -0.39491
       2     C     2.80856  2.80856  0.00000  0.38289
       3     C     3.09900  3.09900  0.00000 -0.19800
       4     O     4.14611  4.14611  0.00000 -0.29221
       5     C     3.08431  3.08431  0.00000 -0.16863
       6     H     0.44191  0.44191  0.00000  0.11618
       7     H     0.43885  0.43885  0.00000  0.12231
       8     C     3.08938  3.08938  0.00000 -0.17876
       9     H     0.44362  0.44362  0.00000  0.11277
      10     H     0.44878  0.44878  0.00000  0.10244
      11     C     3.08399  3.08399  0.00000 -0.16797
      12     H     0.45558  0.45558  0.00000  0.08884
      13     H     0.45585  0.45585  0.00000  0.08831
      14     C     3.15039  3.15039  0.00000 -0.30079
      15     H     0.45304  0.45304  0.00000  0.09392
      16     H     0.45350  0.45350  0.00000  0.09299
      17     H     0.45525  0.45525  0.00000  0.08950
      18     H     0.44773  0.44773  0.00000  0.10455
      19     H     0.45537  0.45537  0.00000  0.08926
      20     C     3.03736  3.03736  0.00000 -0.07471
      21     H     0.45438  0.45438  0.00000  0.09123
      22     H     0.44527  0.44527  0.00000  0.10946
      23     H     0.45433  0.45433  0.00000  0.09134

   Total alpha = 36.00000, Total beta = 36.00000, Total charge = -0.00000

*** Psi4 exiting successfully. Buy a developer a beer!
