  ==> Input File <==

--------------------------------------------------------------------------
set {
	reference rhf
	basis cc-pvtz
}

set_num_threads( 4 )
memory 2 gb

molecule MOL {
0 1

H	 -3.144994	 -1.202467	 -0.018751
O	 -2.321472	 -0.864941	 -0.318626
C	 -2.021813	 0.336996	 0.342658
C	 -0.669613	 0.837286	 -0.127252
H	 -2.780861	 1.084746	 0.127159
H	 -2.006390	 0.184138	 1.420053
C	 0.490865	 -0.082543	 0.241244
H	 -0.708709	 0.967192	 -1.204587
H	 -0.507562	 1.822272	 0.303070
C	 1.839800	 0.429565	 -0.255472
H	 0.305636	 -1.070211	 -0.165276
H	 0.527397	 -0.195943	 1.322876
C	 2.882020	 0.539884	 0.852406
H	 2.210245	 -0.233726	 -1.032336
H	 1.708043	 1.401911	 -0.723311
H	 3.061829	 -0.424113	 1.316405
H	 3.828121	 0.903795	 0.468004
H	 2.556253	 1.223350	 1.629706

	symmetry c1
}
set optking {
	frozen_dihedral = ("
		14 10 7 11
	")
}

ee = optimize('scf')
oeprop('DIPOLE', 'QUADRUPOLE', 'MULLIKEN_CHARGES')
f=open( 'psi4out.xyz', 'w' )
f.write( "18  " )
f.write( str(ee) + "\n" )
f.write( MOL.save_string_xyz() )
f.close()
--------------------------------------------------------------------------

    Molecular point group: c1
  Charge       = 0
  Multiplicity = 1
  Basis Set: CC-PVTZ
  Basis Set:
  @DF-RHF Final Energy:  -271.28111832774823
    Total Energy =                       -271.2811183277483451
    Molecular point group: c1
  Basis Set: CC-PVTZ
  Basis Set:
  Basis Set: CC-PVTZ
  Basis Set:
  @DF-RHF Final Energy:  -271.28136331128565
    Total Energy =                       -271.2813633112854177
  Basis Set: CC-PVTZ
  Basis Set:
  Basis Set: CC-PVTZ
  Basis Set:
  @DF-RHF Final Energy:  -271.28143079326492
    Total Energy =                       -271.2814307932649172
  Basis Set: CC-PVTZ
  Basis Set:
  Charge       = 0
  Multiplicity = 1
  Basis Set: CC-PVTZ
  Basis Set:

    Orbital Energies (a.u.)
    -----------------------

    Doubly Occupied:

       1A    -20.546279     2A    -11.265744     3A    -11.210874
       4A    -11.208961     5A    -11.204753     6A    -11.203980
       7A     -1.364152     8A     -1.074386     9A     -1.009639
      10A     -0.914113    11A     -0.820506    12A     -0.784191
      13A     -0.708485    14A     -0.639441    15A     -0.621358
      16A     -0.594909    17A     -0.573932    18A     -0.553216
      19A     -0.522450    20A     -0.504307    21A     -0.493899
      22A     -0.466628    23A     -0.453596    24A     -0.448858
      25A     -0.430557

  @DF-RHF Final Energy:  -271.28143136033498

   => Energetics <=

    Nuclear Repulsion Energy =            249.2443803796594466
    One-Electron Energy =                -861.8131979771875422
    Two-Electron Energy =                 341.2873862371931182
    DFT Exchange-Correlation Energy =       0.0000000000000000
    Empirical Dispersion Energy =           0.0000000000000000
    PCM Polarization Energy =               0.0000000000000000
    EFP Energy =                            0.0000000000000000
    Total Energy =                       -271.2814313603349774
    Molecular point group: c1
  Basis Set: CC-PVTZ
  Basis Set:

  -Total Gradient:
     Atom            X                  Y                   Z
    ------   -----------------  -----------------  -----------------
       1       -0.000000465388     0.000001630545     0.000000136286
       2       -0.000010754175     0.000024563721     0.000019239633
       3       -0.000010141415    -0.000002157909    -0.000000518434
       4        0.000035233341    -0.000039925867     0.000018011750
       5       -0.000020850314    -0.000014257771    -0.000001000713
       6       -0.000010960466    -0.000010280084    -0.000006701069
       7        0.001125968358    -0.001057961989     0.001910656578
       8        0.000008350941     0.000005487179    -0.000001279226
       9        0.000004754039     0.000000776466    -0.000002275628
      10       -0.001140107010     0.001316288442    -0.001720589127
      11       -0.000774777703     0.000710552288    -0.001355383370
      12        0.000002475692    -0.000004996183     0.000005940405
      13       -0.000008259770     0.000007591948    -0.000039083770
      14        0.000799316868    -0.000943912704     0.001181845068
      15        0.000001364611     0.000004466283    -0.000005018334
      16       -0.000004843753     0.000003129991    -0.000000547390
      17        0.000011425036     0.000002516708    -0.000000540265
      18       -0.000007728896    -0.000003511064    -0.000002892396

  **** Optimization is complete! (in 4 steps) ****
    Final optimized geometry and variables:
    Molecular point group: c1

    Geometry (in Angstrom), charge = 0, multiplicity = 1:

    H           -3.128808567971    -1.385240941002    -0.149434546955
    O           -2.304662343147    -1.046497404438    -0.445923361005
    C           -2.012024043217     0.158665865496     0.212667214039
    C           -0.659560060821     0.662100537198    -0.252647850113
    H           -2.772791775216     0.903023323649    -0.008637194747
    H           -2.000868799065     0.009380831733     1.290657941397
    C            0.505111839506    -0.250626533504     0.127459055757
    H           -0.692212205345     0.785348446941    -1.331018364763
    H           -0.503023321279     1.650456995864     0.172365650626
    C            1.868388888111     0.264504550619    -0.377074571299
    H            0.307716837053    -1.235992739461    -0.273584900750
    H            0.529048178964    -0.353982083591     1.208692877133
    C            2.924068216868     0.360759810315     0.721518794786
    H            2.241987882653    -0.392729737783    -1.154708783655
    H            1.748211331872     1.241212287075    -0.834672161834
    H            3.098294170567    -0.606732295333     1.180720804503
    H            3.870420146840     0.716315335707     0.329292927995
    H            2.611538337734     1.044140433246     1.504624171989

  Mulliken Charges: (a.u.)
   Center  Symbol    Alpha    Beta     Spin     Total
       1     H     0.39569  0.39569  0.00000  0.20862
       2     O     4.19878  4.19878  0.00000 -0.39756
       3     C     2.97418  2.97418  0.00000  0.05164
       4     C     3.09139  3.09139  0.00000 -0.18277
       5     H     0.46547  0.46547  0.00000  0.06907
       6     H     0.47364  0.47364  0.00000  0.05272
       7     C     3.09351  3.09351  0.00000 -0.18702
       8     H     0.45122  0.45122  0.00000  0.09756
       9     H     0.45395  0.45395  0.00000  0.09210
      10     C     3.08714  3.08714  0.00000 -0.17428
      11     H     0.44131  0.44131  0.00000  0.11738
      12     H     0.45871  0.45871  0.00000  0.08258
      13     C     3.14775  3.14775  0.00000 -0.29550
      14     H     0.45026  0.45026  0.00000  0.09949
      15     H     0.45559  0.45559  0.00000  0.08882
      16     H     0.45435  0.45435  0.00000  0.09130
      17     H     0.45018  0.45018  0.00000  0.09964
      18     H     0.45689  0.45689  0.00000  0.08621

   Total alpha = 25.00000, Total beta = 25.00000, Total charge = -0.00000
