  ==> Input File <==

--------------------------------------------------------------------------
set {
	reference rhf
	basis 6-31G*
}

set_num_threads( 1 )
memory 2 gb

molecule MOL {
0 1

O	 1.507392	 1.886737	 0.451817
C	 0.698130	 1.867817	 1.322366
C	 -0.605121	 1.107168	 1.293758
O	 0.844003	 2.528621	 2.463941
C	 -0.823008	 0.326187	 0.001381
H	 -0.615863	 0.448886	 2.158203
H	 -1.403767	 1.825119	 1.459378
C	 -2.149452	 -0.435131	 -0.000098
H	 0.000292	 -0.366742	 -0.140796
H	 -0.789563	 1.010936	 -0.840230
C	 -3.368779	 0.488503	 -0.000883
H	 -2.193746	 -1.087250	 -0.871175
H	 -2.195311	 -1.087803	 0.870418
C	 -4.693822	 -0.272754	 -0.001129
H	 -3.325798	 1.139422	 -0.871284
H	 -3.326423	 1.139959	 0.869145
H	 -4.781274	 -0.907928	 -0.878124
H	 -5.538651	 0.408946	 -0.001420
H	 -4.781694	 -0.907783	 0.875984
C	 2.030517	 3.285138	 2.621489
H	 2.899411	 2.645253	 2.565820
H	 1.963028	 3.740126	 3.597351
H	 2.100375	 4.046065	 1.857541

	symmetry c1
}
set optking {
	frozen_dihedral = ("
		15 11 8 12,
		1 2 3 6,
		9 5 3 6,
		1 2 4 20
	")
}

ee = energy('scf')
oeprop('DIPOLE', 'QUADRUPOLE', 'MULLIKEN_CHARGES')
f=open( 'psi4out.xyz', 'w' )
f.write( "23  " )
f.write( str(ee) + "\n" )
f.write( MOL.save_string_xyz() )
f.close()
--------------------------------------------------------------------------

    Molecular point group: c1

    Geometry (in Angstrom), charge = 0, multiplicity = 1:

       Center              X                  Y                   Z               Mass
    ------------   -----------------  -----------------  -----------------  -----------------
           O          2.210616769115     0.663303910775    -0.472200181997    15.994914619560
           C          1.401354769115     0.644383910775     0.398348818003    12.000000000000
           C          0.098103769115    -0.116265089225     0.369740818003    12.000000000000
           O          1.547227769115     1.305187910775     1.539923818003    15.994914619560
           C         -0.119783230885    -0.897246089225    -0.922636181997    12.000000000000
           H          0.087361769115    -0.774547089225     1.234185818003     1.007825032070
           H         -0.700542230885     0.601685910775     0.535360818003     1.007825032070
           C         -1.446227230885    -1.658564089225    -0.924115181997    12.000000000000
           H          0.703516769115    -1.590175089225    -1.064813181997     1.007825032070
           H         -0.086338230885    -0.212497089225    -1.764247181997     1.007825032070
           C         -2.665554230885    -0.734930089225    -0.924900181997    12.000000000000
           H         -1.490521230885    -2.310683089225    -1.795192181997     1.007825032070
           H         -1.492086230885    -2.311236089225    -0.053599181997     1.007825032070
           C         -3.990597230885    -1.496187089225    -0.925146181997    12.000000000000
           H         -2.622573230885    -0.084011089225    -1.795301181997     1.007825032070
           H         -2.623198230885    -0.083474089225    -0.054872181997     1.007825032070
           H         -4.078049230885    -2.131361089225    -1.802141181997     1.007825032070
           H         -4.835426230885    -0.814487089225    -0.925437181997     1.007825032070
           H         -4.078469230885    -2.131216089225    -0.048033181997     1.007825032070
           C          2.733741769115     2.061704910775     1.697471818003    12.000000000000
           H          3.602635769115     1.421819910775     1.641802818003     1.007825032070
           H          2.666252769115     2.516692910775     2.673333818003     1.007825032070
           H          2.803599769115     2.822631910775     0.933523818003     1.007825032070

  Charge       = 0
  Multiplicity = 1
  Basis Set: 6-31G*
  Basis Set:

    Orbital Energies (a.u.)
    -----------------------

    Doubly Occupied:

       1A    -20.603536     2A    -20.545215     3A    -11.372117
       4A    -11.280773     5A    -11.234809     6A    -11.219165
       7A    -11.218350     8A    -11.217635     9A    -11.211000
      10A     -1.469189    11A     -1.362598    12A     -1.095834
      13A     -1.041404    14A     -0.987151    15A     -0.932756
      16A     -0.850087    17A     -0.793136    18A     -0.764320
      19A     -0.702288    20A     -0.682263    21A     -0.672261
      22A     -0.635187    23A     -0.623901    24A     -0.599372
      25A     -0.576646    26A     -0.557522    27A     -0.556070
      28A     -0.527898    29A     -0.520232    30A     -0.508788
      31A     -0.491377    32A     -0.468946    33A     -0.465523
      34A     -0.457418    35A     -0.452090    36A     -0.437269

  @DF-RHF Final Energy:  -422.97402697058124

   => Energetics <=

    Nuclear Repulsion Energy =            458.7868508296156733
    One-Electron Energy =               -1485.2534450396699413
    Two-Electron Energy =                 603.4925672394718958
    DFT Exchange-Correlation Energy =       0.0000000000000000
    Empirical Dispersion Energy =           0.0000000000000000
    PCM Polarization Energy =               0.0000000000000000
    EFP Energy =                            0.0000000000000000
    Total Energy =                       -422.9740269705822584

  Mulliken Charges: (a.u.)
   Center  Symbol    Alpha    Beta     Spin     Total
       1     O     4.28598  4.28598  0.00000 -0.57196
       2     C     2.60431  2.60431  0.00000  0.79137
       3     C     3.21099  3.21099  0.00000 -0.42198
       4     O     4.30724  4.30724  0.00000 -0.61449
       5     C     3.15380  3.15380  0.00000 -0.30761
       6     H     0.40088  0.40088  0.00000  0.19825
       7     H     0.39890  0.39890  0.00000  0.20221
       8     C     3.15560  3.15560  0.00000 -0.31119
       9     H     0.40957  0.40957  0.00000  0.18085
      10     H     0.41187  0.41187  0.00000  0.17625
      11     C     3.15557  3.15557  0.00000 -0.31114
      12     H     0.41789  0.41789  0.00000  0.16422
      13     H     0.42423  0.42423  0.00000  0.15155
      14     C     3.23862  3.23862  0.00000 -0.47723
      15     H     0.42116  0.42116  0.00000  0.15768
      16     H     0.42295  0.42295  0.00000  0.15411
      17     H     0.42090  0.42090  0.00000  0.15820
      18     H     0.41883  0.41883  0.00000  0.16234
      19     H     0.42164  0.42164  0.00000  0.15673
      20     C     3.09244  3.09244  0.00000 -0.18487
      21     H     0.40905  0.40905  0.00000  0.18191
      22     H     0.40848  0.40848  0.00000  0.18304
      23     H     0.40911  0.40911  0.00000  0.18179

   Total alpha = 36.00000, Total beta = 36.00000, Total charge =  0.00000
