  ==> Input File <==

--------------------------------------------------------------------------
set {
	reference rhf
	basis 6-31G*
}

set_num_threads( 4 )
memory 2 gb

molecule MOL {
0 1

O	 -2.679933	 0.975145	 0.036627
C	 -1.921153	 0.064240	 -0.045697
C	 -2.287461	 -1.326817	 -0.487428
O	 -0.632575	 0.154573	 0.251549
H	 -2.054978	 -2.034317	 0.300190
H	 -3.340653	 -1.367202	 -0.721931
H	 -1.702329	 -1.600560	 -1.357740
C	 0.160891	 -1.019931	 0.106212
C	 1.589627	 -0.672828	 0.480843
H	 0.089836	 -1.367806	 -0.916050
H	 -0.238459	 -1.792301	 0.749618
C	 2.246377	 0.346236	 -0.452210
H	 2.163194	 -1.597435	 0.473358
H	 1.604769	 -0.303424	 1.502885
C	 3.691736	 0.652107	 -0.061850
H	 2.219579	 -0.032311	 -1.472055
H	 1.666466	 1.263317	 -0.447249
H	 4.134505	 1.377213	 -0.737283
H	 4.305508	 -0.243868	 -0.089969
H	 3.748266	 1.059562	 0.943567

	symmetry c1
}
set optking {
	frozen_dihedral = ("
		1 2 4 8
	")
}

ee = optimize('scf')
oeprop('DIPOLE', 'QUADRUPOLE', 'MULLIKEN_CHARGES')
f=open( 'psi4out.xyz', 'w' )
f.write( "20  " )
f.write( str(ee) + "\n" )
f.write( MOL.save_string_xyz() )
f.close()
--------------------------------------------------------------------------

    Molecular point group: c1
  Charge       = 0
  Multiplicity = 1
  Basis Set: 6-31G*
  Basis Set:
  @DF-RHF Final Energy:  -383.91980561854405
    Total Energy =                       -383.9198056185442738
    Molecular point group: c1
  Basis Set: 6-31G*
  Basis Set:
  Basis Set: 6-31G*
  Basis Set:
  @DF-RHF Final Energy:  -383.88463713140555
    Total Energy =                       -383.8846371314054409
  Basis Set: 6-31G*
  Basis Set:
  Basis Set: 6-31G*
  Basis Set:
  @DF-RHF Final Energy:  -383.92561801092694
    Total Energy =                       -383.9256180109273373
  Basis Set: 6-31G*
  Basis Set:
  Basis Set: 6-31G*
  Basis Set:
  @DF-RHF Final Energy:  -383.93017435857445
    Total Energy =                       -383.9301743585742770
  Basis Set: 6-31G*
  Basis Set:
  @DF-RHF Final Energy:  -383.93118834076648
    Total Energy =                       -383.9311883407663117
  @DF-RHF Final Energy:  -383.93140635929626
    Total Energy =                       -383.9314063592962611
  @DF-RHF Final Energy:  -383.93097004755555
    Total Energy =                       -383.9309700475555474
  @DF-RHF Final Energy:  -383.93151285131887
    Total Energy =                       -383.9315128513188711
  Basis Set: 6-31G*
  Basis Set:
  @DF-RHF Final Energy:  -383.93152542040679
    Total Energy =                       -383.9315254204063876
  Basis Set: 6-31G*
  Basis Set:
  Basis Set: 6-31G*
  Basis Set:
  @DF-RHF Final Energy:  -383.93152412939037
    Total Energy =                       -383.9315241293903682
  Basis Set: 6-31G*
  Basis Set:
  Basis Set: 6-31G*
  Basis Set:
  @DF-RHF Final Energy:  -383.93152687763364
    Total Energy =                       -383.9315268776335870
  Basis Set: 6-31G*
  Basis Set:
  Charge       = 0
  Multiplicity = 1
  Basis Set: 6-31G*
  Basis Set:

    Orbital Energies (a.u.)
    -----------------------

    Doubly Occupied:

       1A    -20.600650     2A    -20.537561     3A    -11.375946
       4A    -11.298142     5A    -11.242600     6A    -11.230993
       7A    -11.221589     8A    -11.213827     9A     -1.462486
      10A     -1.363985    11A     -1.087238    12A     -1.019668
      13A     -1.000948    14A     -0.890016    15A     -0.815089
      16A     -0.781222    17A     -0.698773    18A     -0.688745
      19A     -0.660948    20A     -0.633922    21A     -0.604283
      22A     -0.595312    23A     -0.579299    24A     -0.559091
      25A     -0.546034    26A     -0.535934    27A     -0.517461
      28A     -0.487439    29A     -0.477962    30A     -0.475254
      31A     -0.440495    32A     -0.431804

  @DF-RHF Final Energy:  -383.93152697176328

   => Energetics <=

    Nuclear Repulsion Energy =            384.7662858097094727
    One-Electron Energy =               -1285.2461952438411572
    Two-Electron Energy =                 516.5483824623684086
    DFT Exchange-Correlation Energy =       0.0000000000000000
    Empirical Dispersion Energy =           0.0000000000000000
    PCM Polarization Energy =               0.0000000000000000
    EFP Energy =                            0.0000000000000000
    Total Energy =                       -383.9315269717633328
    Molecular point group: c1
  Basis Set: 6-31G*
  Basis Set:

  -Total Gradient:
     Atom            X                  Y                   Z
    ------   -----------------  -----------------  -----------------
       1       -0.000010019615    -0.000022393597     0.000009734493
       2       -0.000027088519     0.000040498846    -0.000036245979
       3       -0.000017978845    -0.000014586786    -0.000022991409
       4        0.000033914876    -0.000003174447     0.000004767393
       5       -0.000014808009     0.000004223533     0.000002245865
       6        0.000008911975     0.000009023075     0.000006787443
       7        0.000012272893    -0.000007348662     0.000016368045
       8        0.000003796161    -0.000022323302     0.000048523147
       9       -0.000001976751     0.000001070572     0.000006606216
      10       -0.000024043410     0.000016005661    -0.000017296089
      11        0.000032796138     0.000001914302    -0.000012265684
      12        0.000001991479     0.000001668544    -0.000005308788
      13        0.000004390083     0.000004946498    -0.000001623041
      14       -0.000001705042    -0.000000457083    -0.000000764811
      15        0.000000333272    -0.000005320671    -0.000001171674
      16       -0.000000767706     0.000001851170     0.000002305450
      17        0.000005600771    -0.000005739615     0.000003131046
      18       -0.000000941974    -0.000000591592    -0.000000329266
      19       -0.000002228528     0.000003710015    -0.000001012155
      20       -0.000002449246    -0.000002976463    -0.000001460203

  **** Optimization is complete! (in 12 steps) ****
    Final optimized geometry and variables:
    Molecular point group: c1

    Geometry (in Angstrom), charge = 0, multiplicity = 1:

    O           -2.557872195425     1.122098355178     0.072156589477
    C           -1.925508324115     0.127142643313    -0.038565830096
    C           -2.535093997625    -1.176446519571    -0.502193074673
    O           -0.624745599050     0.144866541541     0.253868514589
    H           -2.414165423863    -1.953940462470     0.243599883557
    H           -3.586713635793    -1.008758301203    -0.676437003031
    H           -2.070590778954    -1.520223728292    -1.419558079659
    C            0.215214442967    -0.990916769306     0.153628080049
    C            1.622823229648    -0.562664818408     0.529692512516
    H            0.196013662936    -1.380815240675    -0.858205307989
    H           -0.132226265164    -1.766866000805     0.826205394128
    C            2.230773798600     0.463882313763    -0.427378460754
    H            2.243237275292    -1.456344005320     0.555310428138
    H            1.602344665280    -0.162519804360     1.539189572437
    C            3.649787737245     0.865575774708    -0.027418037645
    H            2.242609145740     0.051939616696    -1.434853525550
    H            1.596654091584     1.342846140380    -0.457838414579
    H            4.059291083894     1.592411110728    -0.721429749777
    H            4.315752661247     0.007066193275    -0.015970549178
    H            3.665836702764     1.310033758564     0.963458758336

  Mulliken Charges: (a.u.)
   Center  Symbol    Alpha    Beta     Spin     Total
       1     O     4.26730  4.26730  0.00000 -0.53461
       2     C     2.61262  2.61262  0.00000  0.77475
       3     C     3.30953  3.30953  0.00000 -0.61905
       4     O     4.30331  4.30331  0.00000 -0.60663
       5     H     0.40334  0.40334  0.00000  0.19333
       6     H     0.38727  0.38727  0.00000  0.22547
       7     H     0.40271  0.40271  0.00000  0.19458
       8     C     3.00296  3.00296  0.00000 -0.00592
       9     C     3.16109  3.16109  0.00000 -0.32217
      10     H     0.41976  0.41976  0.00000  0.16047
      11     H     0.41652  0.41652  0.00000  0.16696
      12     C     3.15697  3.15697  0.00000 -0.31394
      13     H     0.41963  0.41963  0.00000  0.16074
      14     H     0.40965  0.40965  0.00000  0.18070
      15     C     3.24090  3.24090  0.00000 -0.48180
      16     H     0.42522  0.42522  0.00000  0.14955
      17     H     0.40306  0.40306  0.00000  0.19387
      18     H     0.41631  0.41631  0.00000  0.16738
      19     H     0.42295  0.42295  0.00000  0.15410
      20     H     0.41889  0.41889  0.00000  0.16223

   Total alpha = 32.00000, Total beta = 32.00000, Total charge =  0.00000
