  ==> Input File <==

--------------------------------------------------------------------------
set {
	reference rhf
	basis 6-31G*
}

set_num_threads( 4 )
memory 2 gb

molecule MOL {
0 1

H	 -3.892951	 0.981613	 -0.358725
C	 -3.196921	 0.361773	 0.172313
C	 -2.076860	 -0.007332	 -0.404944
H	 -3.439953	 0.057760	 1.173024
O	 -1.012763	 -0.458337	 0.310005
H	 -1.941099	 0.006124	 -1.471989
C	 0.187025	 -0.660106	 -0.354561
C	 1.009763	 0.606786	 -0.420754
H	 0.042091	 -1.021800	 -1.366424
H	 0.752360	 -1.393378	 0.201491
F	 2.158927	 0.354753	 -1.030432
F	 0.393082	 1.557323	 -1.103406
F	 1.281388	 1.083674	 0.776404

	symmetry c1
}
set optking {
	frozen_dihedral = ("
		6 3 2 1
	")
}

ee = optimize('scf')
oeprop('DIPOLE', 'QUADRUPOLE', 'MULLIKEN_CHARGES')
f=open( 'psi4out.xyz', 'w' )
f.write( "13  " )
f.write( str(ee) + "\n" )
f.write( MOL.save_string_xyz() )
f.close()
--------------------------------------------------------------------------

    Molecular point group: c1
  Charge       = 0
  Multiplicity = 1
  Basis Set: 6-31G*
  Basis Set:
  @DF-RHF Final Energy:  -527.52663292051625
    Total Energy =                       -527.5266329205164766
    Molecular point group: c1
  Basis Set: 6-31G*
  Basis Set:
  Basis Set: 6-31G*
  Basis Set:
  @DF-RHF Final Energy:  -527.53249838215413
    Total Energy =                       -527.5324983821540172
  Basis Set: 6-31G*
  Basis Set:
  Basis Set: 6-31G*
  Basis Set:
  @DF-RHF Final Energy:  -527.53261428965493
    Total Energy =                       -527.5326142896548163
  Basis Set: 6-31G*
  Basis Set:
  Basis Set: 6-31G*
  Basis Set:
  @DF-RHF Final Energy:  -527.53280546541578
    Total Energy =                       -527.5328054654158905
  Basis Set: 6-31G*
  Basis Set:
  @DF-RHF Final Energy:  -527.53281285997514
    Total Energy =                       -527.5328128599749107
  @DF-RHF Final Energy:  -527.53281774576715
    Total Energy =                       -527.5328177457668062
  @DF-RHF Final Energy:  -527.53282124486486
    Total Energy =                       -527.5328212448650902
  @DF-RHF Final Energy:  -527.53281793998713
    Total Energy =                       -527.5328179399871260
  @DF-RHF Final Energy:  -527.53282761480693
    Total Energy =                       -527.5328276148070472
  @DF-RHF Final Energy:  -527.53282954140627
    Total Energy =                       -527.5328295414064996
  @DF-RHF Final Energy:  -527.53282982701035
    Total Energy =                       -527.5328298270103460
  @DF-RHF Final Energy:  -527.53281275805716
    Total Energy =                       -527.5328127580576165
  @DF-RHF Final Energy:  -527.53282914751583
    Total Energy =                       -527.5328291475155993
  @DF-RHF Final Energy:  -527.53282882282247
    Total Energy =                       -527.5328288228224665
  @DF-RHF Final Energy:  -527.53282881276164
    Total Energy =                       -527.5328288127616361
  @DF-RHF Final Energy:  -527.53282792811751
    Total Energy =                       -527.5328279281171717
  @DF-RHF Final Energy:  -527.53282865318693
    Total Energy =                       -527.5328286531872664
  @DF-RHF Final Energy:  -527.53282834179049
    Total Energy =                       -527.5328283417904913
  @DF-RHF Final Energy:  -527.53282844131547
    Total Energy =                       -527.5328284413153597
  @DF-RHF Final Energy:  -527.53282577904520
    Total Energy =                       -527.5328257790450834
  @DF-RHF Final Energy:  -527.52752814290830
    Total Energy =                       -527.5275281429084089
  @DF-RHF Final Energy:  -527.53080124772669
    Total Energy =                       -527.5308012477271404
  @DF-RHF Final Energy:  -527.52947341527351
    Total Energy =                       -527.5294734152737419
  @DF-RHF Final Energy:  -527.53184325047630
    Total Energy =                       -527.5318432504761859
  @DF-RHF Final Energy:  -527.52915046141675
    Total Energy =                       -527.5291504614169753
  @DF-RHF Final Energy:  -527.52872610913755
    Total Energy =                       -527.5287261091375512
  @DF-RHF Final Energy:  -527.53075347150536
    Total Energy =                       -527.5307534715059319
  @DF-RHF Final Energy:  -527.53069057182051
    Total Energy =                       -527.5306905718201733
  @DF-RHF Final Energy:  -527.53208036520050
    Total Energy =                       -527.5320803652004997
  @DF-RHF Final Energy:  -527.53161950574167
    Total Energy =                       -527.5316195057416735
  @DF-RHF Final Energy:  -527.53249214155358
    Total Energy =                       -527.5324921415535755
  @DF-RHF Final Energy:  -527.53246377278913
    Total Energy =                       -527.5324637727887875
  @DF-RHF Final Energy:  -527.53256053375515
    Total Energy =                       -527.5325605337550314
  @DF-RHF Final Energy:  -527.53252573107932
    Total Energy =                       -527.5325257310789766
  @DF-RHF Final Energy:  -527.53267602343647
    Total Energy =                       -527.5326760234360108
  @DF-RHF Final Energy:  -527.53273850566745
    Total Energy =                       -527.5327385056677940
  Basis Set: 6-31G*
  Basis Set:
  @DF-RHF Final Energy:  -527.53278489215086
    Total Energy =                       -527.5327848921506302
  Basis Set: 6-31G*
  Basis Set:
  Basis Set: 6-31G*
  Basis Set:
  @DF-RHF Final Energy:  -527.53279179361368
    Total Energy =                       -527.5327917936135691
  Basis Set: 6-31G*
  Basis Set:
  Basis Set: 6-31G*
  Basis Set:
  @DF-RHF Final Energy:  -527.53279646937619
    Total Energy =                       -527.5327964693763079
  Basis Set: 6-31G*
  Basis Set:
  Charge       = 0
  Multiplicity = 1
  Basis Set: 6-31G*
  Basis Set:

    Orbital Energies (a.u.)
    -----------------------

    Doubly Occupied:

       1A    -26.345008     2A    -26.344414     3A    -26.341418
       4A    -20.608155     5A    -11.503579     6A    -11.318834
       7A    -11.300611     8A    -11.216005     9A     -1.742116
      10A     -1.640178    11A     -1.639091    12A     -1.438137
      13A     -1.085456    14A     -1.016459    15A     -0.925730
      16A     -0.837236    17A     -0.831333    18A     -0.822623
      19A     -0.790589    20A     -0.723530    21A     -0.711995
      22A     -0.697551    23A     -0.676109    24A     -0.659827
      25A     -0.655202    26A     -0.643826    27A     -0.631670
      28A     -0.587493    29A     -0.562746    30A     -0.524139
      31A     -0.512815    32A     -0.350956

  @DF-RHF Final Energy:  -527.53279747492229

   => Energetics <=

    Nuclear Repulsion Energy =            412.7594904327340259
    One-Electron Energy =               -1549.2149057868241471
    Two-Electron Energy =                 608.9226178791680013
    DFT Exchange-Correlation Energy =       0.0000000000000000
    Empirical Dispersion Energy =           0.0000000000000000
    PCM Polarization Energy =               0.0000000000000000
    EFP Energy =                            0.0000000000000000
    Total Energy =                       -527.5327974749220630
    Molecular point group: c1
  Basis Set: 6-31G*
  Basis Set:

  -Total Gradient:
     Atom            X                  Y                   Z
    ------   -----------------  -----------------  -----------------
       1        0.003235087965     0.007940252609     0.004343887986
       2       -0.004508349844    -0.015998775931    -0.007601758842
       3        0.002959495735     0.018880925358     0.004989144240
       4       -0.000177268804    -0.000087662434     0.000712956477
       5        0.000401855404    -0.000173864222    -0.000981325475
       6       -0.001779530160    -0.010033991430    -0.001890341297
       7        0.001193219477     0.000117002049     0.000640395192
       8       -0.002425290040     0.000686448119     0.000712258782
       9        0.000910120738     0.000172738527     0.000362153764
      10       -0.000298110720    -0.000175926923    -0.000457855431
      11       -0.000175712138    -0.000386379994    -0.000001272230
      12       -0.000087584364    -0.000051720407    -0.001295507126
      13        0.000752066774    -0.000889045320     0.000467263965

    Molecular point group: c1

    Geometry (in Angstrom), charge = 0, multiplicity = 1:

    H           -4.055008194689     0.350417142263    -0.104178329047
    C           -3.275511967382    -0.153980910533     0.431469369395
    C           -2.085540101827    -0.291234747650    -0.109846006488
    H           -3.429581150486    -0.343695057591     1.478818999459
    O           -1.032770619645    -0.768724531707     0.605610024577
    H           -1.914874847697    -0.209948311383    -1.169223347900
    C            0.152753391447    -1.045178542503    -0.056961176136
    C            1.034001597197     0.177294950080    -0.147123809626
    H           -0.005967651050    -1.416926564970    -1.062227259937
    H            0.680335922727    -1.797758645231     0.510000943179
    F            2.162985874712    -0.144137507917    -0.763082500615
    F            0.461974898385     1.146836827029    -0.842621274592
    F            1.344005041405     0.655204799989     1.039992107277

  Mulliken Charges: (a.u.)
   Center  Symbol    Alpha    Beta     Spin     Total
       1     H     0.40693  0.40693  0.00000  0.18614
       2     C     3.23481  3.23481  0.00000 -0.46963
       3     C     2.89542  2.89542  0.00000  0.20916
       4     H     0.40323  0.40323  0.00000  0.19355
       5     O     4.30184  4.30184  0.00000 -0.60368
       6     H     0.40668  0.40668  0.00000  0.18663
       7     C     3.06441  3.06441  0.00000 -0.12882
       8     C     2.45515  2.45515  0.00000  1.08970
       9     H     0.40499  0.40499  0.00000  0.19002
      10     H     0.38907  0.38907  0.00000  0.22186
      11     F     4.68339  4.68339  0.00000 -0.36678
      12     F     4.67976  4.67976  0.00000 -0.35952
      13     F     4.67432  4.67432  0.00000 -0.34864

   Total alpha = 32.00000, Total beta = 32.00000, Total charge = -0.00000
