  ==> Input File <==

--------------------------------------------------------------------------
set {
	reference rhf
	basis 6-31G*
}

set_num_threads( 4 )
memory 2 gb

molecule MOL {
0 1

H	 -4.236494	 0.538104	 0.039757
O	 -3.517110	 -0.026191	 -0.205115
C	 -2.306886	 0.532354	 0.237577
C	 -1.177863	 -0.397191	 -0.171080
H	 -2.156308	 1.517575	 -0.201710
H	 -2.315015	 0.655684	 1.319734
C	 0.198102	 0.111031	 0.262842
H	 -1.208843	 -0.518759	 -1.250427
H	 -1.368741	 -1.376554	 0.258909
C	 1.331804	 -0.827780	 -0.158768
H	 0.361943	 1.100838	 -0.156218
H	 0.217265	 0.229072	 1.345532
C	 2.723619	 -0.410569	 0.329459
H	 1.342964	 -0.912588	 -1.244120
H	 1.116806	 -1.824343	 0.220779
C	 3.486646	 -1.501293	 1.083412
H	 2.614385	 0.452305	 0.981843
H	 3.316754	 -0.075240	 -0.519016
H	 2.911567	 -1.864998	 1.930785
H	 3.714163	 -2.351347	 0.448730
H	 4.428770	 -1.119178	 1.464389

	symmetry c1
}
set optking {
	frozen_dihedral = ("
		16 13 10 14
	")
}

ee = optimize('scf')
oeprop('DIPOLE', 'QUADRUPOLE', 'MULLIKEN_CHARGES')
f=open( 'psi4out.xyz', 'w' )
f.write( "21  " )
f.write( str(ee) + "\n" )
f.write( MOL.save_string_xyz() )
f.close()
--------------------------------------------------------------------------

    Molecular point group: c1
  Charge       = 0
  Multiplicity = 1
  Basis Set: 6-31G*
  Basis Set:
  @DF-RHF Final Energy:  -310.20853786823000
    Total Energy =                       -310.2085378682303372
    Molecular point group: c1
  Basis Set: 6-31G*
  Basis Set:
  Basis Set: 6-31G*
  Basis Set:
  @DF-RHF Final Energy:  -310.20903131280051
    Total Energy =                       -310.2090313128004482
  Basis Set: 6-31G*
  Basis Set:
  Basis Set: 6-31G*
  Basis Set:
  @DF-RHF Final Energy:  -310.20911270772785
    Total Energy =                       -310.2091127077279111
  Basis Set: 6-31G*
  Basis Set:
  Basis Set: 6-31G*
  Basis Set:
  @DF-RHF Final Energy:  -310.20910442564025
    Total Energy =                       -310.2091044256404757
  Basis Set: 6-31G*
  Basis Set:
  Basis Set: 6-31G*
  Basis Set:
  @DF-RHF Final Energy:  -310.20913067687667
    Total Energy =                       -310.2091306768769527
  Basis Set: 6-31G*
  Basis Set:
  Charge       = 0
  Multiplicity = 1
  Basis Set: 6-31G*
  Basis Set:

    Orbital Energies (a.u.)
    -----------------------

    Doubly Occupied:

       1A    -20.551829     2A    -11.267093     3A    -11.216352
       4A    -11.214495     5A    -11.213086     6A    -11.210434
       7A    -11.208354     8A     -1.358649     9A     -1.084727
      10A     -1.033271    11A     -0.956491    12A     -0.867334
      13A     -0.803243    14A     -0.790045    15A     -0.692240
      16A     -0.661831    17A     -0.625648    18A     -0.600188
      19A     -0.585392    20A     -0.563466    21A     -0.542904
      22A     -0.522109    23A     -0.506532    24A     -0.486192
      25A     -0.477470    26A     -0.462918    27A     -0.455662
      28A     -0.441334    29A     -0.433979

  @DF-RHF Final Energy:  -310.20913068403155

   => Energetics <=

    Nuclear Repulsion Energy =            309.3666474948832388
    One-Electron Energy =               -1033.4850245487959910
    Two-Electron Energy =                 413.9092463698813162
    DFT Exchange-Correlation Energy =       0.0000000000000000
    Empirical Dispersion Energy =           0.0000000000000000
    PCM Polarization Energy =               0.0000000000000000
    EFP Energy =                            0.0000000000000000
    Total Energy =                       -310.2091306840314928
    Molecular point group: c1
  Basis Set: 6-31G*
  Basis Set:

  -Total Gradient:
     Atom            X                  Y                   Z
    ------   -----------------  -----------------  -----------------
       1        0.000001049462    -0.000000623438     0.000002671544
       2        0.000002980391    -0.000005301790     0.000003486235
       3        0.000004942666    -0.000000473695     0.000007219592
       4       -0.000002124537     0.000002537207    -0.000023472229
       5       -0.000000946303    -0.000007167612    -0.000003349865
       6       -0.000001113781     0.000007054377     0.000006139484
       7       -0.000003937759    -0.000007578081     0.000001147180
       8       -0.000012178077     0.000010909566    -0.000005906064
       9        0.000013660962    -0.000001919890    -0.000011409470
      10        0.000492374223    -0.002134741520     0.000746429959
      11        0.000008761354    -0.000003200504    -0.000005796035
      12       -0.000006003338    -0.000007176190    -0.000007635571
      13        0.000644771942    -0.000196464283    -0.001779228575
      14       -0.000598525212     0.001889119723    -0.000155172583
      15       -0.000003265479    -0.000003998467    -0.000000180903
      16       -0.000559492188     0.000457578934     0.001235514761
      17        0.000012975615    -0.000003318274    -0.000006047934
      18        0.000011130892    -0.000010497226    -0.000005535269
      19       -0.000009720832     0.000001649366    -0.000001316034
      20        0.000011939079     0.000011933116     0.000000521716
      21       -0.000007279068     0.000001678682     0.000001920063

  **** Optimization is complete! (in 6 steps) ****
    Final optimized geometry and variables:
    Molecular point group: c1

    Geometry (in Angstrom), charge = 0, multiplicity = 1:

    H           -4.265947925302     0.934508618152    -0.194303764132
    O           -3.551923628046     0.366796446910    -0.446875669239
    C           -2.340860333574     0.886621647591     0.038661062207
    C           -1.220417353589    -0.047173026415    -0.383810615429
    H           -2.164843411340     1.884582411442    -0.360556671575
    H           -2.367550946152     0.969776560250     1.124325868929
    C            0.155155615237     0.420128967201     0.092156836468
    H           -1.234234462083    -0.129453197315    -1.467210668664
    H           -1.435400915679    -1.038058611817     0.006996642514
    C            1.285929061363    -0.524852480219    -0.324123983378
    H            0.359075131714     1.414945202567    -0.301233733175
    H            0.153353518539     0.516135713352     1.177021942729
    C            2.682279286642    -0.047817296649     0.133142864770
    H            1.266177054536    -0.624179209893    -1.406319078818
    H            1.082021605632    -1.514326488259     0.077778879508
    C            3.478223387591    -1.120212839914     0.877759179097
    H            2.575076217258     0.815602833284     0.785296388695
    H            3.255336933586     0.296782056299    -0.722812284882
    H            2.951800684592    -1.443059096565     1.771610967381
    H            3.637103837993    -1.996271034801     0.255082544153
    H            4.452363226863    -0.749022805784     1.181556354494

  Mulliken Charges: (a.u.)
   Center  Symbol    Alpha    Beta     Spin     Total
       1     H     0.28118  0.28118  0.00000  0.43763
       2     O     4.37175  4.37175  0.00000 -0.74349
       3     C     2.98976  2.98976  0.00000  0.02049
       4     C     3.15992  3.15992  0.00000 -0.31983
       5     H     0.43284  0.43284  0.00000  0.13433
       6     H     0.43286  0.43286  0.00000  0.13428
       7     C     3.16219  3.16219  0.00000 -0.32438
       8     H     0.41481  0.41481  0.00000  0.17039
       9     H     0.41478  0.41478  0.00000  0.17044
      10     C     3.15375  3.15375  0.00000 -0.30749
      11     H     0.42310  0.42310  0.00000  0.15379
      12     H     0.42367  0.42367  0.00000  0.15267
      13     C     3.15498  3.15498  0.00000 -0.30996
      14     H     0.42003  0.42003  0.00000  0.15994
      15     H     0.41969  0.41969  0.00000  0.16062
      16     C     3.23977  3.23977  0.00000 -0.47954
      17     H     0.42098  0.42098  0.00000  0.15805
      18     H     0.42002  0.42002  0.00000  0.15995
      19     H     0.42202  0.42202  0.00000  0.15596
      20     H     0.42119  0.42119  0.00000  0.15762
      21     H     0.42073  0.42073  0.00000  0.15854

   Total alpha = 29.00000, Total beta = 29.00000, Total charge = -0.00000
