  ==> Input File <==

--------------------------------------------------------------------------
set {
	reference rhf
	basis 6-31G*
}

set_num_threads( 4 )
memory 2 gb

molecule MOL {
0 1

O	 -2.635017	 -0.786502	 0.377280
C	 -1.921153	 0.064240	 -0.045697
C	 -2.348099	 1.162855	 -0.981170
O	 -0.632575	 0.154573	 0.251549
H	 -1.768866	 1.110699	 -1.895891
H	 -3.399931	 1.061702	 -1.203100
H	 -2.155666	 2.127204	 -0.525366
C	 0.160891	 -1.019931	 0.106212
C	 1.589627	 -0.672828	 0.480843
H	 0.089836	 -1.367806	 -0.916050
H	 -0.238459	 -1.792301	 0.749618
C	 2.246377	 0.346236	 -0.452210
H	 2.163194	 -1.597435	 0.473358
H	 1.604769	 -0.303424	 1.502885
C	 3.691736	 0.652107	 -0.061850
H	 2.219579	 -0.032311	 -1.472055
H	 1.666466	 1.263317	 -0.447249
H	 4.134505	 1.377213	 -0.737283
H	 4.305508	 -0.243868	 -0.089969
H	 3.748266	 1.059562	 0.943567

	symmetry c1
}
set optking {
	frozen_dihedral = ("
		1 2 4 8
	")
}

ee = optimize('scf')
oeprop('DIPOLE', 'QUADRUPOLE', 'MULLIKEN_CHARGES')
f=open( 'psi4out.xyz', 'w' )
f.write( "20  " )
f.write( str(ee) + "\n" )
f.write( MOL.save_string_xyz() )
f.close()
--------------------------------------------------------------------------

    Molecular point group: c1
  Charge       = 0
  Multiplicity = 1
  Basis Set: 6-31G*
  Basis Set:
  @DF-RHF Final Energy:  -383.93401421241248
    Total Energy =                       -383.9340142124124213
    Molecular point group: c1
  Basis Set: 6-31G*
  Basis Set:
  Basis Set: 6-31G*
  Basis Set:
  @DF-RHF Final Energy:  -383.93165922335533
    Total Energy =                       -383.9316592233553820
  Basis Set: 6-31G*
  Basis Set:
  Basis Set: 6-31G*
  Basis Set:
  @DF-RHF Final Energy:  -383.93481581469678
    Total Energy =                       -383.9348158146967762
  Basis Set: 6-31G*
  Basis Set:
  Basis Set: 6-31G*
  Basis Set:
  @DF-RHF Final Energy:  -383.93487413643720
    Total Energy =                       -383.9348741364368607
  Basis Set: 6-31G*
  Basis Set:
  Basis Set: 6-31G*
  Basis Set:
  @DF-RHF Final Energy:  -383.93487846610401
    Total Energy =                       -383.9348784661042373
  Basis Set: 6-31G*
  Basis Set:
  Basis Set: 6-31G*
  Basis Set:
  @DF-RHF Final Energy:  -383.93487989227663
    Total Energy =                       -383.9348798922770811
  Basis Set: 6-31G*
  Basis Set:
  Charge       = 0
  Multiplicity = 1
  Basis Set: 6-31G*
  Basis Set:

    Orbital Energies (a.u.)
    -----------------------

    Doubly Occupied:

       1A    -20.590601     2A    -20.550642     3A    -11.376295
       4A    -11.287252     5A    -11.234538     6A    -11.226577
       7A    -11.221505     8A    -11.214040     9A     -1.461137
      10A     -1.364153    11A     -1.085540    12A     -1.026132
      13A     -0.984005    14A     -0.880591    15A     -0.811267
      16A     -0.775323    17A     -0.693199    18A     -0.682719
      19A     -0.655585    20A     -0.634186    21A     -0.607991
      22A     -0.593879    23A     -0.571913    24A     -0.561079
      25A     -0.545560    26A     -0.524525    27A     -0.510559
      28A     -0.484390    29A     -0.477009    30A     -0.473891
      31A     -0.446826    32A     -0.436540

  @DF-RHF Final Energy:  -383.93488029837596

   => Energetics <=

    Nuclear Repulsion Energy =            384.4897940554525917
    One-Electron Energy =               -1284.8704507370298415
    Two-Electron Energy =                 516.4457763832015189
    DFT Exchange-Correlation Energy =       0.0000000000000000
    Empirical Dispersion Energy =           0.0000000000000000
    PCM Polarization Energy =               0.0000000000000000
    EFP Energy =                            0.0000000000000000
    Total Energy =                       -383.9348802983756741
    Molecular point group: c1
  Basis Set: 6-31G*
  Basis Set:

  -Total Gradient:
     Atom            X                  Y                   Z
    ------   -----------------  -----------------  -----------------
       1       -0.001928773418     0.005850005065     0.007254639031
       2        0.003514634468    -0.007931877305    -0.014275636334
       3        0.000039027144     0.000034577170     0.000018055392
       4       -0.003102354176     0.000415156608     0.014075779639
       5       -0.000004167486     0.000001394431     0.000002303274
       6       -0.000036050349     0.000093896475    -0.000057658274
       7       -0.000041474998    -0.000035839659     0.000013002230
       8        0.001483898305     0.001607328902    -0.006980857997
       9        0.000033369911    -0.000067630744    -0.000007364321
      10        0.000008104098     0.000044896092    -0.000020694789
      11        0.000034056377    -0.000005420762     0.000003638408
      12       -0.000002601337    -0.000001440173    -0.000009039195
      13        0.000012198135    -0.000002126722    -0.000004100830
      14       -0.000014453289    -0.000005727147    -0.000003941261
      15       -0.000001671271    -0.000001825685     0.000001092731
      16        0.000001711757     0.000006470191    -0.000001637278
      17        0.000001929180    -0.000003076549    -0.000010310946
      18       -0.000001043169     0.000002793657     0.000001958598
      19        0.000002798846    -0.000000511426    -0.000001026155
      20        0.000000861277    -0.000001042417     0.000001798076

  **** Optimization is complete! (in 7 steps) ****
    Final optimized geometry and variables:
    Molecular point group: c1

    Geometry (in Angstrom), charge = 0, multiplicity = 1:

    O           -2.640031901378    -0.774367333503     0.426300850649
    C           -1.939375649420     0.059109338070    -0.040802994045
    C           -2.411966815954     1.182631749183    -0.921973412927
    O           -0.635090501277     0.166079848938     0.249175347509
    H           -1.908469684982     1.129758437067    -1.881334159994
    H           -3.481196833663     1.121463671481    -1.060947179422
    H           -2.147934654940     2.131405514113    -0.468966297913
    C            0.160846132300    -1.011535328503     0.152406468155
    C            1.585267950960    -0.660674791292     0.538509261765
    H            0.114892530803    -1.377622522358    -0.868669344283
    H           -0.245071158571    -1.770684572109     0.806396822822
    C            2.254118158065     0.346897149831    -0.397982511080
    H            2.158711679643    -1.585390884357     0.551793659892
    H            1.582854911444    -0.277771114418     1.555308897933
    C            3.693674561628     0.658660920760     0.008945847552
    H            2.242912965389    -0.045158203809    -1.413319085176
    H            1.673070851143     1.262828698710    -0.413075609185
    H            4.145942019594     1.374631423572    -0.669947105185
    H            4.308342184647    -0.237174414599     0.002468570133
    H            3.735173485621     1.080191116178     1.009184796399

  Mulliken Charges: (a.u.)
   Center  Symbol    Alpha    Beta     Spin     Total
       1     O     4.26748  4.26748  0.00000 -0.53496
       2     C     2.61874  2.61874  0.00000  0.76251
       3     C     3.28387  3.28387  0.00000 -0.56774
       4     O     4.31643  4.31643  0.00000 -0.63285
       5     H     0.40450  0.40450  0.00000  0.19100
       6     H     0.39765  0.39765  0.00000  0.20469
       7     H     0.39851  0.39851  0.00000  0.20297
       8     C     3.00404  3.00404  0.00000 -0.00808
       9     C     3.16461  3.16461  0.00000 -0.32922
      10     H     0.42158  0.42158  0.00000  0.15684
      11     H     0.40232  0.40232  0.00000  0.19536
      12     C     3.15495  3.15495  0.00000 -0.30991
      13     H     0.41856  0.41856  0.00000  0.16287
      14     H     0.41151  0.41151  0.00000  0.17698
      15     C     3.24049  3.24049  0.00000 -0.48097
      16     H     0.42484  0.42484  0.00000  0.15032
      17     H     0.41067  0.41067  0.00000  0.17866
      18     H     0.41769  0.41769  0.00000  0.16463
      19     H     0.42178  0.42178  0.00000  0.15644
      20     H     0.41977  0.41977  0.00000  0.16045

   Total alpha = 32.00000, Total beta = 32.00000, Total charge = -0.00000
