                              Psi4 1.0.54 Driver

  ==> Input File <==

--------------------------------------------------------------------------
set {
	reference rhf
	basis cc-pvtz
}

set_num_threads( 4 )
memory 2 gb

molecule MOL {
0 1

H	 3.217244	 -0.660792	 -1.174103
C	 2.503873	 -0.858668	 -0.384656
C	 1.322304	 0.099773	 -0.484271
H	 2.183591	 -1.890223	 -0.477847
H	 3.019526	 -0.751598	 0.562962
C	 0.308557	 -0.162619	 0.622645
H	 0.831671	 -0.011495	 -1.443245
H	 1.665849	 1.124172	 -0.409968
N	 -1.069352	 -0.004081	 0.085342
H	 0.371632	 -1.172932	 0.991288
H	 0.400391	 0.548875	 1.426218
O	 -1.584901	 -0.965470	 -0.377818
O	 -1.548033	 1.079343	 0.130056

	symmetry c1
}
set optking {
	frozen_dihedral = ("
		7 3 6 9
	")
}

ee,wfn = optimize('scf', return_wfn=True)
oeprop( wfn, 'DIPOLE', 'QUADRUPOLE', 'MULLIKEN_CHARGES')
f=open( 'psi4out.xyz', 'w' )
f.write( "13  " )
f.write( str(ee) + "\n" )
f.write( MOL.save_string_xyz() )
f.close()
--------------------------------------------------------------------------

    Molecular point group: c1
  Charge       = 0
  Multiplicity = 1
  Basis Set: CC-PVTZ
  Basis Set:
  @DF-RHF Final Energy:  -321.85731826089057
    Total Energy =                       -321.8573182608906222
    Molecular point group: c1
  Basis Set: CC-PVTZ
  Basis Set:
  Basis Set: CC-PVTZ
  Basis Set:
  @DF-RHF Final Energy:  -321.85559311571092
    Total Energy =                       -321.8555931157112582
  Basis Set: CC-PVTZ
  Basis Set:
  Basis Set: CC-PVTZ
  Basis Set:
  @DF-RHF Final Energy:  -321.85360506781672
    Total Energy =                       -321.8536050678168863
  Basis Set: CC-PVTZ
  Basis Set:
  Basis Set: CC-PVTZ
  Basis Set:
  @DF-RHF Final Energy:  -321.85744137402003
    Total Energy =                       -321.8574413740201408
  Basis Set: CC-PVTZ
  Basis Set:
  Basis Set: CC-PVTZ
  Basis Set:
  @DF-RHF Final Energy:  -321.85752742033714
    Total Energy =                       -321.8575274203371919
  Basis Set: CC-PVTZ
  Basis Set:
  Basis Set: CC-PVTZ
  Basis Set:
  @DF-RHF Final Energy:  -321.85769472376444
    Total Energy =                       -321.8576947237643253
  Basis Set: CC-PVTZ
  Basis Set:
  Basis Set: CC-PVTZ
  Basis Set:
  @DF-RHF Final Energy:  -321.85769884137335
    Total Energy =                       -321.8576988413732352
  Basis Set: CC-PVTZ
  Basis Set:
  Charge       = 0
  Multiplicity = 1
  Basis Set: CC-PVTZ
  Basis Set:

    Orbital Energies (a.u.)
    -----------------------

    Doubly Occupied:

       1A    -20.590521     2A    -20.590193     3A    -15.836918
       4A    -11.297282     5A    -11.255068     6A    -11.235942
       7A     -1.636004     8A     -1.420245     9A     -1.132303
      10A     -1.027823    11A     -0.884511    12A     -0.834865
      13A     -0.762245    14A     -0.738190    15A     -0.727649
      16A     -0.664933    17A     -0.609550    18A     -0.592228
      19A     -0.545260    20A     -0.521149    21A     -0.513275
      22A     -0.485279    23A     -0.474975    24A     -0.453682

  @DF-RHF Final Energy:  -321.85769958650872

   => Energetics <=

    Nuclear Repulsion Energy =            248.2935234213940987
    One-Electron Energy =                -930.6422715250375859
    Two-Electron Energy =                 360.4910485171346863
    DFT Exchange-Correlation Energy =       0.0000000000000000
    Empirical Dispersion Energy =           0.0000000000000000
    PCM Polarization Energy =               0.0000000000000000
    EFP Energy =                            0.0000000000000000
    Total Energy =                       -321.8576995865088293
    Molecular point group: c1
  Basis Set: CC-PVTZ
  Basis Set:

  -Total Gradient:
     Atom            X                  Y                   Z
    ------   -----------------  -----------------  -----------------
       1       -0.000009681888    -0.000001270546     0.000005747457
       2        0.000014492861    -0.000009723454     0.000002179435
       3        0.001015210761    -0.005711268642    -0.000376791701
       4       -0.000002529978     0.000013203364     0.000012798151
       5        0.000001758130    -0.000002757706    -0.000014969378
       6       -0.000020896056     0.004695635661     0.001011711890
       7       -0.000839115741     0.003890203058     0.000096910780
       8       -0.000005662413    -0.000017269324    -0.000001568009
       9       -0.000154653557    -0.002794378754    -0.000667004255
      10       -0.000017313251    -0.000017556439    -0.000009390397
      11        0.000014521700    -0.000014125651    -0.000004039258
      12        0.000006633699    -0.000016226196    -0.000036890922
      13       -0.000002764271    -0.000014465369    -0.000018693794

  **** Optimization is complete! (in 8 steps) ****
    Final optimized geometry and variables:
    Molecular point group: c1

    Geometry (in Angstrom), charge = 0, multiplicity = 1:

    H            3.274579877917    -0.524275922848    -1.131939675974
    C            2.553177528849    -0.752900992973    -0.357960733294
    C            1.365505859074     0.197444380795    -0.438122583863
    H            2.238448234432    -1.781903931508    -0.484946780295
    H            3.057993674811    -0.671664238744     0.598644510105
    C            0.350472843285    -0.049098263344     0.687557836433
    H            0.867115277997     0.109975254792    -1.395094619909
    H            1.707246158158     1.222942647605    -0.377464441433
    N           -1.030270642439     0.150548079125     0.174711298662
    H            0.379509817160    -1.069798793539     1.029736228907
    H            0.473180722030     0.632581430053     1.511304469061
    O           -1.582482370534    -0.795626258565    -0.277810185549
    O           -1.474419086017     1.248580161702     0.222012777111

  Mulliken Charges: (a.u.)
   Center  Symbol    Alpha    Beta     Spin     Total
       1     H     0.44330  0.44330  0.00000  0.11340
       2     C     3.14986  3.14986  0.00000 -0.29972
       3     C     3.09113  3.09113  0.00000 -0.18227
       4     H     0.44869  0.44869  0.00000  0.10262
       5     H     0.45223  0.45223  0.00000  0.09554
       6     C     3.03798  3.03798  0.00000 -0.07596
       7     H     0.43917  0.43917  0.00000  0.12165
       8     H     0.44236  0.44236  0.00000  0.11528
       9     N     3.27963  3.27963  0.00000  0.44073
      10     H     0.43710  0.43710  0.00000  0.12580
      11     H     0.43288  0.43288  0.00000  0.13423
      12     O     4.17307  4.17307  0.00000 -0.34614
      13     O     4.17258  4.17258  0.00000 -0.34517

   Total alpha = 24.00000, Total beta = 24.00000, Total charge = -0.00000

*** Psi4 exiting successfully. Buy a developer a beer!
