  ==> Input File <==

--------------------------------------------------------------------------
set {
	reference rhf
	basis 6-31G*
}

set_num_threads( 1 )
memory 2 gb

molecule MOL {
0 1

H	 3.104964	 1.525796	 -2.273890
N	 2.337065	 0.882469	 -2.271375
C	 1.489493	 1.095206	 -1.106948
H	 2.731520	 -0.038922	 -2.254849
C	 0.269786	 0.181093	 -1.156600
H	 1.162514	 2.130444	 -1.122033
H	 2.015392	 0.946816	 -0.160476
C	 -0.679275	 0.379305	 0.025956
H	 -0.253565	 0.358035	 -2.091817
H	 0.603153	 -0.856017	 -1.181201
C	 -1.903357	 -0.536963	 -0.023547
H	 -1.010475	 1.416336	 0.052847
H	 -0.141904	 0.207413	 0.957370
C	 -3.225172	 0.228290	 0.028445
H	 -1.867824	 -1.134999	 -0.931459
H	 -1.860449	 -1.239604	 0.805977
H	 -3.313397	 0.915643	 -0.808262
H	 -4.073500	 -0.448134	 -0.008893
H	 -3.306061	 0.809945	 0.942516

	symmetry c1
}
set optking {
	frozen_dihedral = ("
		6 3 5 9,
		12 8 5 9,
		1 2 3 6
	")
}

ee = energy('scf')
oeprop('DIPOLE', 'QUADRUPOLE', 'MULLIKEN_CHARGES')
f=open( 'psi4out.xyz', 'w' )
f.write( "19  " )
f.write( str(ee) + "\n" )
f.write( MOL.save_string_xyz() )
f.close()
--------------------------------------------------------------------------

    Molecular point group: c1

    Geometry (in Angstrom), charge = 0, multiplicity = 1:

       Center              X                  Y                   Z               Mass
    ------------   -----------------  -----------------  -----------------  -----------------
           H          3.358847007221     1.145229815752    -1.507733470166     1.007825032070
           N          2.590948007221     0.501902815752    -1.505218470166    14.003074004780
           C          1.743376007221     0.714639815752    -0.340791470166    12.000000000000
           H          2.985403007221    -0.419488184248    -1.488692470166     1.007825032070
           C          0.523669007221    -0.199473184248    -0.390443470166    12.000000000000
           H          1.416397007221     1.749877815752    -0.355876470166     1.007825032070
           H          2.269275007221     0.566249815752     0.605680529834     1.007825032070
           C         -0.425391992779    -0.001261184248     0.792112529834    12.000000000000
           H          0.000318007221    -0.022531184248    -1.325660470166     1.007825032070
           H          0.857036007221    -1.236583184248    -0.415044470166     1.007825032070
           C         -1.649473992779    -0.917529184248     0.742609529834    12.000000000000
           H         -0.756591992779     1.035769815752     0.819003529834     1.007825032070
           H          0.111979007221    -0.173153184248     1.723526529834     1.007825032070
           C         -2.971288992779    -0.152276184248     0.794601529834    12.000000000000
           H         -1.613940992779    -1.515565184248    -0.165302470166     1.007825032070
           H         -1.606565992779    -1.620170184248     1.572133529834     1.007825032070
           H         -3.059513992779     0.535076815752    -0.042105470166     1.007825032070
           H         -3.819616992779    -0.828700184248     0.757263529834     1.007825032070
           H         -3.052177992779     0.429378815752     1.708672529834     1.007825032070

  Charge       = 0
  Multiplicity = 1
  Basis Set: 6-31G*
  Basis Set:

    Orbital Energies (a.u.)
    -----------------------

    Doubly Occupied:

       1A    -15.532334     2A    -11.239204     3A    -11.212196
       4A    -11.211047     5A    -11.209776     6A    -11.207208
       7A     -1.176436     8A     -1.072979     9A     -0.997211
      10A     -0.900358    11A     -0.814872    12A     -0.787751
      13A     -0.664874    14A     -0.635704    15A     -0.615664
      16A     -0.590327    17A     -0.577802    18A     -0.536557
      19A     -0.530529    20A     -0.498449    21A     -0.488304
      22A     -0.463896    23A     -0.453253    24A     -0.447765
      25A     -0.380769

  @DF-RHF Final Energy:  -251.34589972061769

   => Energetics <=

    Nuclear Repulsion Energy =            246.6665756776452554
    One-Electron Energy =                -827.5344179801344353
    Two-Electron Energy =                 329.5219425818723948
    DFT Exchange-Correlation Energy =       0.0000000000000000
    Empirical Dispersion Energy =           0.0000000000000000
    PCM Polarization Energy =               0.0000000000000000
    EFP Energy =                            0.0000000000000000
    Total Energy =                       -251.3458997206167851

  Mulliken Charges: (a.u.)
   Center  Symbol    Alpha    Beta     Spin     Total
       1     H     0.33254  0.33254  0.00000  0.33491
       2     N     3.92190  3.92190  0.00000 -0.84381
       3     C     3.06073  3.06073  0.00000 -0.12145
       4     H     0.33543  0.33543  0.00000  0.32914
       5     C     3.15406  3.15406  0.00000 -0.30812
       6     H     0.42082  0.42082  0.00000  0.15835
       7     H     0.43480  0.43480  0.00000  0.13039
       8     C     3.15850  3.15850  0.00000 -0.31700
       9     H     0.41296  0.41296  0.00000  0.17407
      10     H     0.42709  0.42709  0.00000  0.14582
      11     C     3.15360  3.15360  0.00000 -0.30720
      12     H     0.42065  0.42065  0.00000  0.15869
      13     H     0.42225  0.42225  0.00000  0.15551
      14     C     3.24058  3.24058  0.00000 -0.48116
      15     H     0.41915  0.41915  0.00000  0.16170
      16     H     0.42121  0.42121  0.00000  0.15758
      17     H     0.42113  0.42113  0.00000  0.15774
      18     H     0.42074  0.42074  0.00000  0.15852
      19     H     0.42184  0.42184  0.00000  0.15631

   Total alpha = 25.00000, Total beta = 25.00000, Total charge = -0.00000
