  ==> Input File <==

--------------------------------------------------------------------------
set {
	reference rhf
	basis cc-pvtz
}

set_num_threads( 4 )
memory 2 gb

molecule MOL {
0 1

H	 -2.448367	 -0.006097	 0.894487
O	 -2.313989	 -0.142475	 -0.025864
C	 -0.943808	 -0.065018	 -0.330000
H	 -0.812293	 -0.225641	 -1.398673
C	 -0.231030	 -1.182113	 0.407592
C	 -0.353797	 1.300461	 0.050970
H	 -0.312800	 -0.992012	 1.473041
H	 -0.738841	 -2.119564	 0.220514
C	 1.246176	 -1.268044	 -0.015480
H	 -0.539537	 2.008579	 -0.751815
H	 -0.889989	 1.662858	 0.920677
C	 1.153605	 1.231851	 0.356834
H	 1.823096	 -1.684665	 0.802361
H	 1.352335	 -1.958223	 -0.845114
C	 1.826409	 0.100723	 -0.416008
H	 1.622968	 2.181508	 0.128734
H	 1.301983	 1.066493	 1.419367
H	 2.897299	 0.112407	 -0.249665
H	 1.683458	 0.265621	 -1.480024

	symmetry c1
}
set optking {
	frozen_dihedral = ("
		1 2 3 4
	")
}

ee = optimize('scf')
oeprop('DIPOLE', 'QUADRUPOLE', 'MULLIKEN_CHARGES')
f=open( 'psi4out.xyz', 'w' )
f.write( "19  " )
f.write( str(ee) + "\n" )
f.write( MOL.save_string_xyz() )
f.close()
--------------------------------------------------------------------------

    Molecular point group: c1
  Charge       = 0
  Multiplicity = 1
  Basis Set: CC-PVTZ
  Basis Set:
  @DF-RHF Final Energy:  -309.16145274876675
    Total Energy =                       -309.1614527487666919
    Molecular point group: c1
  Basis Set: CC-PVTZ
  Basis Set:
  Basis Set: CC-PVTZ
  Basis Set:
  @DF-RHF Final Energy:  -309.16298940916181
    Total Energy =                       -309.1629894091621509
  Basis Set: CC-PVTZ
  Basis Set:
  Basis Set: CC-PVTZ
  Basis Set:
  @DF-RHF Final Energy:  -309.16330513454085
    Total Energy =                       -309.1633051345411900
  Basis Set: CC-PVTZ
  Basis Set:
  Basis Set: CC-PVTZ
  Basis Set:
  @DF-RHF Final Energy:  -309.16330930951341
    Total Energy =                       -309.1633093095137497
  Basis Set: CC-PVTZ
  Basis Set:
  Charge       = 0
  Multiplicity = 1
  Basis Set: CC-PVTZ
  Basis Set:

    Orbital Energies (a.u.)
    -----------------------

    Doubly Occupied:

       1A    -20.542989     2A    -11.267313     3A    -11.216518
       4A    -11.216218     5A    -11.215075     6A    -11.212966
       7A    -11.211721     8A     -1.363495     9A     -1.111452
      10A     -1.005193    11A     -0.989653    12A     -0.848577
      13A     -0.840672    14A     -0.753492    15A     -0.674451
      16A     -0.665355    17A     -0.618942    18A     -0.598602
      19A     -0.581101    20A     -0.564115    21A     -0.532479
      22A     -0.521405    23A     -0.502478    24A     -0.493178
      25A     -0.466580    26A     -0.450738    27A     -0.432476
      28A     -0.409533

  @DF-RHF Final Energy:  -309.16330973967808

   => Energetics <=

    Nuclear Repulsion Energy =            331.8280284707628880
    One-Electron Energy =               -1077.3691470938592829
    Two-Electron Energy =                 436.3778088834185382
    DFT Exchange-Correlation Energy =       0.0000000000000000
    Empirical Dispersion Energy =           0.0000000000000000
    PCM Polarization Energy =               0.0000000000000000
    EFP Energy =                            0.0000000000000000
    Total Energy =                       -309.1633097396778567
    Molecular point group: c1
  Basis Set: CC-PVTZ
  Basis Set:

  -Total Gradient:
     Atom            X                  Y                   Z
    ------   -----------------  -----------------  -----------------
       1        0.000025363280    -0.000013810631    -0.000016920986
       2       -0.000018992765    -0.000011968676     0.000002455314
       3       -0.000003555562     0.000013285068     0.000040858951
       4        0.000014901268    -0.000015546015     0.000006666169
       5       -0.000019614758    -0.000003838269    -0.000021519923
       6        0.000038882717    -0.000009383123     0.000014987936
       7        0.000002301668    -0.000003531073    -0.000019419198
       8        0.000001270438    -0.000010929610     0.000008376947
       9       -0.000022064474    -0.000013494696     0.000048075311
      10        0.000014335947     0.000023396265    -0.000006714509
      11        0.000010816796    -0.000007797549    -0.000009067843
      12       -0.000015595512     0.000033444182    -0.000029548163
      13        0.000011016173    -0.000024088632    -0.000001381600
      14       -0.000012019541     0.000004552844    -0.000000189980
      15       -0.000011266711     0.000022553818    -0.000025733707
      16        0.000000013463     0.000013368135     0.000013931168
      17       -0.000010463802     0.000000365341    -0.000001056680
      18       -0.000012526370    -0.000004238849     0.000002411627
      19        0.000007197744     0.000007661469    -0.000006210834

  **** Optimization is complete! (in 5 steps) ****
    Final optimized geometry and variables:
    Molecular point group: c1

    Geometry (in Angstrom), charge = 0, multiplicity = 1:

    H           -2.527580370788     0.025382884069     0.804124922601
    O           -2.336406463613    -0.103425479528    -0.107900130865
    C           -0.947866243207    -0.067101651787    -0.313736168307
    H           -0.831972891067    -0.222851169224    -1.379458684288
    C           -0.221317605520    -1.188639172034     0.414037621746
    C           -0.355865052341     1.297393883148     0.064007733324
    H           -0.287278338457    -1.008694550860     1.485323817189
    H           -0.726087850621    -2.127849664459     0.225666424204
    C            1.254422543120    -1.267298224294    -0.018814663825
    H           -0.566192538387     2.004341406146    -0.730297906085
    H           -0.874804241581     1.665543195536     0.944525081422
    C            1.156131806197     1.232716440804     0.347177464227
    H            1.842664062561    -1.673047064130     0.796515163181
    H            1.356896709217    -1.963286249693    -0.843814272084
    C            1.819170567902     0.102726024545    -0.435620511405
    H            1.619123568436     2.183425185748     0.110880397649
    H            1.324686123089     1.068364159907     1.407296927596
    H            2.893062636214     0.119438253999    -0.290778622856
    H            1.653835228120     0.263333381513    -1.496832018537

  Mulliken Charges: (a.u.)
   Center  Symbol    Alpha    Beta     Spin     Total
       1     H     0.39575  0.39575  0.00000  0.20850
       2     O     4.20700  4.20700  0.00000 -0.41400
       3     C     2.93762  2.93762  0.00000  0.12476
       4     H     0.44111  0.44111  0.00000  0.11777
       5     C     3.10558  3.10558  0.00000 -0.21117
       6     C     3.11185  3.11185  0.00000 -0.22369
       7     H     0.46079  0.46079  0.00000  0.07843
       8     H     0.43943  0.43943  0.00000  0.12115
       9     C     3.11261  3.11261  0.00000 -0.22522
      10     H     0.44578  0.44578  0.00000  0.10845
      11     H     0.45436  0.45436  0.00000  0.09128
      12     C     3.10042  3.10042  0.00000 -0.20084
      13     H     0.44770  0.44770  0.00000  0.10459
      14     H     0.44581  0.44581  0.00000  0.10838
      15     C     3.10214  3.10214  0.00000 -0.20428
      16     H     0.44178  0.44178  0.00000  0.11644
      17     H     0.45452  0.45452  0.00000  0.09096
      18     H     0.44268  0.44268  0.00000  0.11465
      19     H     0.45307  0.45307  0.00000  0.09386

   Total alpha = 28.00000, Total beta = 28.00000, Total charge =  0.00000
