  ==> Input File <==

--------------------------------------------------------------------------
set {
	reference rhf
	basis 6-31G*
}

set_num_threads( 4 )
memory 2 gb

molecule MOL {
0 1

H	 -2.698709	 -0.000305	 0.034435
C	 -1.693833	 0.000034	 0.434417
O	 -0.828952	 -0.000968	 -0.659236
H	 -1.574200	 0.882896	 1.055746
H	 -1.574147	 -0.881698	 1.057355
C	 0.559449	 -0.000018	 -0.420814
C	 1.078811	 -1.367681	 0.018135
C	 1.354204	 0.574245	 -1.591944
H	 0.665055	 0.679355	 0.416641
H	 0.461183	 -1.766343	 0.815728
H	 2.095532	 -1.277458	 0.387423
H	 1.090532	 -2.083952	 -0.797330
H	 0.926778	 1.519279	 -1.909238
H	 2.382731	 0.749356	 -1.292056
H	 1.373067	 -0.097165	 -2.444407

	symmetry c1
}
set optking {
	frozen_dihedral = ("
		9 6 3 2
	")
}

ee = optimize('scf')
oeprop('DIPOLE', 'QUADRUPOLE', 'MULLIKEN_CHARGES')
f=open( 'psi4out.xyz', 'w' )
f.write( "15  " )
f.write( str(ee) + "\n" )
f.write( MOL.save_string_xyz() )
f.close()
--------------------------------------------------------------------------

    Molecular point group: c1
  Charge       = 0
  Multiplicity = 1
  Basis Set: 6-31G*
  Basis Set:
  @DF-RHF Final Energy:  -232.13703883066458
    Total Energy =                       -232.1370388306646078
    Molecular point group: c1
  Basis Set: 6-31G*
  Basis Set:
  Basis Set: 6-31G*
  Basis Set:
  @DF-RHF Final Energy:  -232.14069229821476
    Total Energy =                       -232.1406922982149013
  Basis Set: 6-31G*
  Basis Set:
  Basis Set: 6-31G*
  Basis Set:
  @DF-RHF Final Energy:  -232.14143989085912
    Total Energy =                       -232.1414398908589760
  Basis Set: 6-31G*
  Basis Set:
  Basis Set: 6-31G*
  Basis Set:
  @DF-RHF Final Energy:  -232.14146670007108
    Total Energy =                       -232.1414667000711347
  Basis Set: 6-31G*
  Basis Set:
  Basis Set: 6-31G*
  Basis Set:
  @DF-RHF Final Energy:  -232.14147219375945
    Total Energy =                       -232.1414721937592276
  Basis Set: 6-31G*
  Basis Set:
  Charge       = 0
  Multiplicity = 1
  Basis Set: 6-31G*
  Basis Set:

    Orbital Energies (a.u.)
    -----------------------

    Doubly Occupied:

       1A    -20.550371     2A    -11.274360     3A    -11.263314
       4A    -11.208714     5A    -11.206041     6A     -1.374840
       7A     -1.052317     8A     -0.940443     9A     -0.915887
      10A     -0.793345    11A     -0.672166    12A     -0.638031
      13A     -0.637648    14A     -0.587255    15A     -0.550171
      16A     -0.541099    17A     -0.530134    18A     -0.498104
      19A     -0.489966    20A     -0.454814    21A     -0.407736

  @DF-RHF Final Energy:  -232.14147234015078

   => Energetics <=

    Nuclear Repulsion Energy =            197.3179380784502825
    One-Electron Energy =                -705.7453062050545896
    Two-Electron Energy =                 276.2858957864536933
    DFT Exchange-Correlation Energy =       0.0000000000000000
    Empirical Dispersion Energy =           0.0000000000000000
    PCM Polarization Energy =               0.0000000000000000
    EFP Energy =                            0.0000000000000000
    Total Energy =                       -232.1414723401505853
    Molecular point group: c1
  Basis Set: 6-31G*
  Basis Set:

  -Total Gradient:
     Atom            X                  Y                   Z
    ------   -----------------  -----------------  -----------------
       1       -0.000000254346    -0.000002094974     0.000001115259
       2       -0.000024553915     0.000198954676     0.000003302898
       3        0.000022523316    -0.000311704457     0.000050474930
       4        0.000002544839    -0.000004002686    -0.000001678148
       5        0.000010265057     0.000004165603    -0.000007688416
       6        0.000015432712     0.000267913080    -0.000204477074
       7        0.000009737923    -0.000004857573     0.000019431433
       8        0.000018285734     0.000033276671    -0.000005908961
       9       -0.000028893676    -0.000176783550     0.000144494914
      10        0.000000875975    -0.000011175768     0.000004753597
      11       -0.000007061605    -0.000002612294    -0.000000239564
      12       -0.000002142697     0.000005576071    -0.000000673743
      13        0.000004205408     0.000008790889    -0.000016132540
      14       -0.000015748209     0.000001264315     0.000000672718
      15       -0.000005216514    -0.000006710004     0.000012552697

  **** Optimization is complete! (in 6 steps) ****
    Final optimized geometry and variables:
    Molecular point group: c1

    Geometry (in Angstrom), charge = 0, multiplicity = 1:

    H           -2.765774997604     0.172386580280     0.364126071255
    C           -1.772499919391     0.139514048603     0.791095972112
    O           -0.867521140524     0.138725782561    -0.267013964383
    H           -1.637112672177     1.011408666412     1.428521697765
    H           -1.692073451291    -0.752639308197     1.406489731288
    C            0.494806962167     0.186591367108     0.078745837843
    C            1.014382959112    -1.189802185246     0.486196677242
    C            1.233489326186     0.736592854217    -1.131423540362
    H            0.623555135653     0.874733318254     0.914324740488
    H            0.491217664776    -1.577042149551     1.353786133461
    H            2.070491390932    -1.141499223693     0.733261929433
    H            0.883616863851    -1.893617812761    -0.329379656828
    H            0.849548997804     1.715672687295    -1.393780372380
    H            2.296679746263     0.822860707897    -0.930292424144
    H            1.096282314648     0.079462238717    -1.983804160071

  Mulliken Charges: (a.u.)
   Center  Symbol    Alpha    Beta     Spin     Total
       1     H     0.41234  0.41234  0.00000  0.17532
       2     C     3.07946  3.07946  0.00000 -0.15891
       3     O     4.30914  4.30914  0.00000 -0.61827
       4     H     0.43058  0.43058  0.00000  0.13883
       5     H     0.43001  0.43001  0.00000  0.13998
       6     C     2.91418  2.91418  0.00000  0.17164
       7     C     3.24610  3.24610  0.00000 -0.49220
       8     C     3.23870  3.23870  0.00000 -0.47740
       9     H     0.43161  0.43161  0.00000  0.13678
      10     H     0.41905  0.41905  0.00000  0.16191
      11     H     0.42174  0.42174  0.00000  0.15652
      12     H     0.41485  0.41485  0.00000  0.17030
      13     H     0.41357  0.41357  0.00000  0.17285
      14     H     0.42366  0.42366  0.00000  0.15267
      15     H     0.41501  0.41501  0.00000  0.16997

   Total alpha = 21.00000, Total beta = 21.00000, Total charge = -0.00000
