  ==> Input File <==

--------------------------------------------------------------------------
set {
	reference rhf
	basis 6-31G*
}

set_num_threads( 1 )
memory 2 gb

molecule MOL {
0 1

H	 3.815843	 4.741270	 1.659327
C	 3.305117	 3.855227	 1.326353
C	 1.975925	 3.928341	 0.937699
C	 3.977871	 2.644111	 1.287202
H	 1.455343	 4.868240	 0.968543
C	 1.319906	 2.788638	 0.509680
H	 5.008215	 2.589367	 1.588862
C	 3.323210	 1.501954	 0.859102
H	 0.291536	 2.826460	 0.205219
C	 1.991060	 1.571916	 0.468917
H	 3.839927	 0.562642	 0.827205
C	 1.239129	 0.373821	 0.000060
O	 1.970282	 -0.730723	 0.000018
O	 0.098267	 0.395769	 -0.341714
C	 3.377318	 -0.566646	 -0.000065
H	 3.695437	 -0.028981	 -0.881264
H	 3.789299	 -1.563704	 0.000236
H	 3.695516	 -0.028316	 0.880770

	symmetry c1
}
set optking {
	frozen_dihedral = ("
		12 13 15 16,
		13 12 10 6
	")
}

ee = energy('scf')
oeprop('DIPOLE', 'QUADRUPOLE', 'MULLIKEN_CHARGES')
f=open( 'psi4out.xyz', 'w' )
f.write( "18  " )
f.write( str(ee) + "\n" )
f.write( MOL.save_string_xyz() )
f.close()
--------------------------------------------------------------------------

    Molecular point group: c1

    Geometry (in Angstrom), charge = 0, multiplicity = 1:

       Center              X                  Y                   Z               Mass
    ------------   -----------------  -----------------  -----------------  -----------------
           H          1.574118503971     3.257378428437     1.185304237684     1.007825032070
           C          1.063392503971     2.371335428437     0.852330237684    12.000000000000
           C         -0.265799496029     2.444449428437     0.463676237684    12.000000000000
           C          1.736146503971     1.160219428437     0.813179237684    12.000000000000
           H         -0.786381496029     3.384348428437     0.494520237684     1.007825032070
           C         -0.921818496029     1.304746428437     0.035657237684    12.000000000000
           H          2.766490503971     1.105475428437     1.114839237684     1.007825032070
           C          1.081485503971     0.018062428437     0.385079237684    12.000000000000
           H         -1.950188496029     1.342568428437    -0.268803762316     1.007825032070
           C         -0.250664496029     0.088024428437    -0.005105762316    12.000000000000
           H          1.598202503971    -0.921249571563     0.353182237684     1.007825032070
           C         -1.002595496029    -1.110070571563    -0.473962762316    12.000000000000
           O         -0.271442496029    -2.214614571563    -0.474004762316    15.994914619560
           O         -2.143457496029    -1.088122571563    -0.815736762316    15.994914619560
           C          1.135593503971    -2.050537571563    -0.474087762316    12.000000000000
           H          1.453712503971    -1.512872571563    -1.355286762316     1.007825032070
           H          1.547574503971    -3.047595571563    -0.473786762316     1.007825032070
           H          1.453791503971    -1.512207571563     0.406747237684     1.007825032070

  Charge       = 0
  Multiplicity = 1
  Basis Set: 6-31G*
  Basis Set:

    Orbital Energies (a.u.)
    -----------------------

    Doubly Occupied:

       1A    -20.615067     2A    -20.543564     3A    -11.380348
       4A    -11.284856     5A    -11.252906     6A    -11.250144
       7A    -11.248046     8A    -11.243377     9A    -11.241807
      10A    -11.223379    11A     -1.475518    12A     -1.371882
      13A     -1.183704    14A     -1.110834    15A     -1.043968
      16A     -1.010320    17A     -0.894932    18A     -0.871638
      19A     -0.808152    20A     -0.748399    21A     -0.727754
      22A     -0.685928    23A     -0.669925    24A     -0.649354
      25A     -0.624921    26A     -0.615195    27A     -0.578569
      28A     -0.566816    29A     -0.550167    30A     -0.520538
      31A     -0.517001    32A     -0.471181    33A     -0.443034
      34A     -0.377289    35A     -0.352405    36A     -0.346354

  @DF-RHF Final Energy:  -457.05010111615201

   => Energetics <=

    Nuclear Repulsion Energy =            509.9281647579787773
    One-Electron Energy =               -1632.9581275316850224
    Two-Electron Energy =                 665.9798616575546930
    DFT Exchange-Correlation Energy =       0.0000000000000000
    Empirical Dispersion Energy =           0.0000000000000000
    PCM Polarization Energy =               0.0000000000000000
    EFP Energy =                            0.0000000000000000
    Total Energy =                       -457.0501011161516089

  Mulliken Charges: (a.u.)
   Center  Symbol    Alpha    Beta     Spin     Total
       1     H     0.39606  0.39606  0.00000  0.20787
       2     C     3.08918  3.08918  0.00000 -0.17836
       3     C     3.10558  3.10558  0.00000 -0.21116
       4     C     3.10849  3.10849  0.00000 -0.21697
       5     H     0.39352  0.39352  0.00000  0.21296
       6     C     3.08276  3.08276  0.00000 -0.16552
       7     H     0.39865  0.39865  0.00000  0.20271
       8     C     3.11808  3.11808  0.00000 -0.23616
       9     H     0.37327  0.37327  0.00000  0.25346
      10     C     3.09399  3.09399  0.00000 -0.18798
      11     H     0.38841  0.38841  0.00000  0.22318
      12     C     2.57101  2.57101  0.00000  0.85798
      13     O     4.30488  4.30488  0.00000 -0.60976
      14     O     4.27869  4.27869  0.00000 -0.55738
      15     C     3.10650  3.10650  0.00000 -0.21301
      16     H     0.39981  0.39981  0.00000  0.20037
      17     H     0.40330  0.40330  0.00000  0.19341
      18     H     0.38782  0.38782  0.00000  0.22436

   Total alpha = 36.00000, Total beta = 36.00000, Total charge = -0.00000
