  ==> Input File <==

--------------------------------------------------------------------------
set {
	reference rhf
	basis 6-31G*
}

set_num_threads( 4 )
memory 2 gb

molecule MOL {
0 1

O	 3.224949	 0.968356	 -0.603874
C	 2.700586	 0.056727	 -0.049766
C	 1.245376	 -0.013843	 0.345420
O	 3.347301	 -1.047515	 0.302425
C	 0.455112	 1.231400	 -0.050772
H	 0.837349	 -0.914077	 -0.102113
H	 1.209870	 -0.174208	 1.419998
C	 -0.998893	 1.219485	 0.433193
H	 0.482531	 1.345121	 -1.130325
H	 0.957290	 2.103070	 0.354729
C	 -1.883438	 0.145884	 -0.207175
H	 -1.431207	 2.195402	 0.224832
H	 -1.019646	 1.105716	 1.516076
C	 -3.347647	 0.245583	 0.225435
H	 -1.822183	 0.231698	 -1.291012
H	 -1.510341	 -0.844814	 0.042401
C	 -4.239992	 -0.825570	 -0.404234
H	 -3.732888	 1.230466	 -0.033079
H	 -3.408585	 0.170602	 1.310038
C	 -5.701275	 -0.716658	 0.029921
H	 -4.179496	 -0.752714	 -1.488058
H	 -3.859041	 -1.810759	 -0.143352
H	 -6.308102	 -1.488908	 -0.432678
H	 -6.122175	 0.245478	 -0.248167
H	 -5.799072	 -0.820114	 1.106957
C	 4.726980	 -1.111269	 -0.009516
H	 4.879186	 -1.037305	 -1.076693
H	 5.067163	 -2.069493	 0.351162
H	 5.265128	 -0.313595	 0.482063

	symmetry c1
}
set optking {
	frozen_dihedral = ("
		6 3 5 9
	")
}

ee = optimize('scf')
oeprop('DIPOLE', 'QUADRUPOLE', 'MULLIKEN_CHARGES')
f=open( 'psi4out.xyz', 'w' )
f.write( "29  " )
f.write( str(ee) + "\n" )
f.write( MOL.save_string_xyz() )
f.close()
--------------------------------------------------------------------------

    Molecular point group: c1
  Charge       = 0
  Multiplicity = 1
  Basis Set: 6-31G*
  Basis Set:
  @DF-RHF Final Energy:  -501.04411288291521
    Total Energy =                       -501.0441128829155559
    Molecular point group: c1
  Basis Set: 6-31G*
  Basis Set:
  Charge       = 0
  Multiplicity = 1
  Basis Set: 6-31G*
  Basis Set:

    Orbital Energies (a.u.)
    -----------------------

    Doubly Occupied:

       1A    -20.603371     2A    -20.545195     3A    -11.372008
       4A    -11.280662     5A    -11.234742     6A    -11.219092
       7A    -11.217639     8A    -11.215995     9A    -11.215851
      10A    -11.214454    11A    -11.209065    12A     -1.469066
      13A     -1.362511    14A     -1.098065    15A     -1.066814
      16A     -1.019505    17A     -0.977231    18A     -0.928563
      19A     -0.861582    20A     -0.799272    21A     -0.790494
      22A     -0.763814    23A     -0.700744    24A     -0.682307
      25A     -0.672174    26A     -0.650879    27A     -0.628782
      28A     -0.604700    29A     -0.594943    30A     -0.580925
      31A     -0.567029    32A     -0.549178    33A     -0.531885
      34A     -0.530441    35A     -0.516030    36A     -0.511799
      37A     -0.496357    38A     -0.477813    39A     -0.470198
      40A     -0.462410    41A     -0.458833    42A     -0.455787
      43A     -0.441148    44A     -0.435384

  @DF-RHF Final Energy:  -501.04411279546207

   => Energetics <=

    Nuclear Repulsion Energy =            610.1723175335202995
    One-Electron Energy =               -1891.4633832346889903
    Two-Electron Energy =                 780.2469529057063937
    DFT Exchange-Correlation Energy =       0.0000000000000000
    Empirical Dispersion Energy =           0.0000000000000000
    PCM Polarization Energy =               0.0000000000000000
    EFP Energy =                            0.0000000000000000
    Total Energy =                       -501.0441127954622971
    Molecular point group: c1
  Basis Set: 6-31G*
  Basis Set:

  -Total Gradient:
     Atom            X                  Y                   Z
    ------   -----------------  -----------------  -----------------
       1        0.000001667532     0.000005750374     0.000007805526
       2       -0.000003126268    -0.000004231839    -0.000022799108
       3        0.000027231382     0.000009898508    -0.000006512922
       4        0.000003534782    -0.000000577687     0.000010068264
       5       -0.000025724172    -0.000020571131    -0.000015019617
       6       -0.000001226419     0.000006049308     0.000016653882
       7       -0.000002337344    -0.000001964508    -0.000000053651
       8        0.000001249938    -0.000012044941     0.000015960431
       9        0.000019453552     0.000004757054     0.000000172667
      10       -0.000005586209     0.000002471713    -0.000003953547
      11       -0.000005015822     0.000001976802     0.000003501502
      12        0.000004069567     0.000001634975     0.000004969069
      13        0.000000750020    -0.000006817755     0.000002725071
      14        0.000000235231     0.000005491826    -0.000005871904
      15        0.000000653128    -0.000000668228    -0.000003094813
      16       -0.000012887535     0.000006491527     0.000000312187
      17       -0.000001188642     0.000001608940    -0.000003214486
      18       -0.000000617281    -0.000000574237    -0.000003015688
      19       -0.000000546765     0.000003157880    -0.000001285778
      20        0.000001854942    -0.000003512468     0.000004932396
      21       -0.000001725508     0.000002394955     0.000000190575
      22        0.000001542298    -0.000000265849    -0.000002630657
      23        0.000000302910    -0.000001358113     0.000001525369
      24        0.000000980800    -0.000000962513    -0.000001412531
      25       -0.000001284359     0.000001465425     0.000000897953
      26       -0.000001845715    -0.000000026802    -0.000002061069
      27        0.000000510739    -0.000000138037    -0.000000050696
      28       -0.000001048123     0.000000293023     0.000000715816
      29        0.000000123337     0.000000271796     0.000000545759

  **** Optimization is complete! (in 2 steps) ****
    Final optimized geometry and variables:
    Molecular point group: c1

    Geometry (in Angstrom), charge = 0, multiplicity = 1:

    O            3.225106316986     0.968795007575    -0.603429603462
    C            2.701431800977     0.057242533230    -0.048541235730
    C            1.246345727063    -0.013935614295     0.346945764765
    O            3.348950309285    -1.046226844424     0.304598690801
    C            0.455234125584     1.230514474275    -0.050031152856
    H            0.838720898369    -0.914810907390    -0.099641856148
    H            1.211155050849    -0.173400989497     1.421669124098
    C           -0.998491068807     1.218475162935     0.434778306104
    H            0.482183520296     1.343361402997    -1.129678557122
    H            0.957249313964     2.102762538242     0.354442272088
    C           -1.883888313218     0.146139487719    -0.206557714641
    H           -1.430521295783     2.194839682082     0.227935932623
    H           -1.018710171318     1.103296270920     1.517525084306
    C           -3.348004492698     0.246579144973     0.226206283759
    H           -1.822619685606     0.232921666113    -1.290312654494
    H           -1.511580751703    -0.845084009252     0.042071326100
    C           -4.241009661717    -0.823940785653    -0.403590992144
    H           -3.732718044967     1.231731944493    -0.032046909421
    H           -3.408866645071     0.171397404391     1.310795331161
    C           -5.701886456021    -0.715302447404     0.032006935276
    H           -4.181495647314    -0.750155212874    -1.487404527752
    H           -3.859898826252    -1.809383107360    -0.143905936069
    H           -6.309112752562    -1.487361088707    -0.430394024456
    H           -6.123086858984     0.246949013429    -0.245214718338
    H           -5.798659990499    -0.819281261993     1.109084743373
    C            4.728634051761    -1.109334735613    -0.007450065844
    H            4.880668019858    -1.036318616984    -1.074722063913
    H            5.069492487422    -2.066969503232     0.354136121900
    H            5.266285154475    -0.310813258653     0.483296924366

  Mulliken Charges: (a.u.)
   Center  Symbol    Alpha    Beta     Spin     Total
       1     O     4.28596  4.28596  0.00000 -0.57192
       2     C     2.60483  2.60483  0.00000  0.79034
       3     C     3.20972  3.20972  0.00000 -0.41944
       4     O     4.30747  4.30747  0.00000 -0.61493
       5     C     3.15379  3.15379  0.00000 -0.30758
       6     H     0.39880  0.39880  0.00000  0.20241
       7     H     0.40124  0.40124  0.00000  0.19751
       8     C     3.15664  3.15664  0.00000 -0.31328
       9     H     0.41305  0.41305  0.00000  0.17390
      10     H     0.40878  0.40878  0.00000  0.18244
      11     C     3.15505  3.15505  0.00000 -0.31010
      12     H     0.41822  0.41822  0.00000  0.16355
      13     H     0.42386  0.42386  0.00000  0.15227
      14     C     3.15030  3.15030  0.00000 -0.30060
      15     H     0.42260  0.42260  0.00000  0.15480
      16     H     0.42362  0.42362  0.00000  0.15275
      17     C     3.15146  3.15146  0.00000 -0.30291
      18     H     0.42331  0.42331  0.00000  0.15337
      19     H     0.42398  0.42398  0.00000  0.15204
      20     C     3.23935  3.23935  0.00000 -0.47870
      21     H     0.42280  0.42280  0.00000  0.15441
      22     H     0.42344  0.42344  0.00000  0.15313
      23     H     0.41923  0.41923  0.00000  0.16154
      24     H     0.42154  0.42154  0.00000  0.15691
      25     H     0.42183  0.42183  0.00000  0.15634
      26     C     3.09241  3.09241  0.00000 -0.18481
      27     H     0.40908  0.40908  0.00000  0.18183
      28     H     0.40852  0.40852  0.00000  0.18297
      29     H     0.40912  0.40912  0.00000  0.18175

   Total alpha = 44.00000, Total beta = 44.00000, Total charge = -0.00000
