  ==> Input File <==

--------------------------------------------------------------------------
set {
	reference rhf
	basis 6-31G*
}

set_num_threads( 4 )
memory 2 gb

molecule MOL {
0 1

H	 -3.135461	 -1.215070	 0.001379
O	 -2.310168	 -0.871793	 -0.309793
C	 -2.026376	 0.340750	 0.341611
C	 -0.673256	 0.843270	 -0.132153
H	 -2.792215	 1.080697	 0.115987
H	 -2.013526	 0.200402	 1.421792
C	 0.486613	 -0.083066	 0.235839
H	 -0.715586	 0.970948	 -1.210718
H	 -0.508072	 1.829858	 0.297090
C	 1.840406	 0.433480	 -0.254303
H	 0.300215	 -1.068318	 -0.178947
H	 0.519509	 -0.203625	 1.318070
C	 2.606778	 1.206209	 0.818654
H	 2.443864	 -0.405903	 -0.593410
H	 1.692667	 1.072948	 -1.122460
H	 2.800494	 0.582316	 1.686480
H	 3.563092	 1.558189	 0.443795
H	 2.044187	 2.072766	 1.154928

	symmetry c1
}
set optking {
	frozen_dihedral = ("
		14 10 7 11
	")
}

ee = optimize('scf')
oeprop('DIPOLE', 'QUADRUPOLE', 'MULLIKEN_CHARGES')
f=open( 'psi4out.xyz', 'w' )
f.write( "18  " )
f.write( str(ee) + "\n" )
f.write( MOL.save_string_xyz() )
f.close()
--------------------------------------------------------------------------

    Molecular point group: c1
  Charge       = 0
  Multiplicity = 1
  Basis Set: 6-31G*
  Basis Set:
  @DF-RHF Final Energy:  -271.17571131754846
    Total Energy =                       -271.1757113175484619
    Molecular point group: c1
  Basis Set: 6-31G*
  Basis Set:
  Basis Set: 6-31G*
  Basis Set:
  @DF-RHF Final Energy:  -271.17600952878809
    Total Energy =                       -271.1760095287880858
  Basis Set: 6-31G*
  Basis Set:
  Basis Set: 6-31G*
  Basis Set:
  @DF-RHF Final Energy:  -271.17608980474574
    Total Energy =                       -271.1760898047459136
  Basis Set: 6-31G*
  Basis Set:
  Charge       = 0
  Multiplicity = 1
  Basis Set: 6-31G*
  Basis Set:

    Orbital Energies (a.u.)
    -----------------------

    Doubly Occupied:

       1A    -20.552996     2A    -11.267970     3A    -11.212426
       4A    -11.210675     5A    -11.206276     6A    -11.206220
       7A     -1.359712     8A     -1.073792     9A     -1.007313
      10A     -0.913753    11A     -0.824065    12A     -0.779612
      13A     -0.704978    14A     -0.636566    15A     -0.613490
      16A     -0.604703    17A     -0.569906    18A     -0.547934
      19A     -0.519326    20A     -0.508253    21A     -0.493472
      22A     -0.462577    23A     -0.453623    24A     -0.448119
      25A     -0.428731

  @DF-RHF Final Energy:  -271.17609049466671

   => Energetics <=

    Nuclear Repulsion Energy =            250.2875164756208335
    One-Electron Energy =                -863.7142404455655651
    Two-Electron Energy =                 342.2506334752781072
    DFT Exchange-Correlation Energy =       0.0000000000000000
    Empirical Dispersion Energy =           0.0000000000000000
    PCM Polarization Energy =               0.0000000000000000
    EFP Energy =                            0.0000000000000000
    Total Energy =                       -271.1760904946666528
    Molecular point group: c1
  Basis Set: 6-31G*
  Basis Set:

  -Total Gradient:
     Atom            X                  Y                   Z
    ------   -----------------  -----------------  -----------------
       1       -0.000003936738     0.000004601245    -0.000003249142
       2       -0.000087519808     0.000058092437    -0.000024714265
       3        0.000091425938    -0.000075094786     0.000165010252
       4        0.000029473696     0.000022239031    -0.000148312462
       5       -0.000008604039    -0.000035935856    -0.000015313173
       6       -0.000039585461    -0.000006478766     0.000013556489
       7       -0.002101802054     0.001974760798    -0.004239662938
       8        0.000031783558     0.000004047391    -0.000030716963
       9        0.000011198583    -0.000032314926    -0.000024297151
      10        0.001825049004    -0.000847006576     0.004737086867
      11        0.001498986490    -0.001439337700     0.002780602163
      12        0.000005002622    -0.000012439546     0.000034711672
      13       -0.000002217196    -0.000007026100     0.000035018592
      14       -0.001223867949     0.000414334287    -0.003224225252
      15       -0.000008495215     0.000007513770    -0.000011755846
      16       -0.000008304912    -0.000001981258    -0.000003810017
      17       -0.000001127182    -0.000008719092    -0.000020636117
      18       -0.000007459339    -0.000019254350    -0.000019292708

  **** Optimization is complete! (in 4 steps) ****
    Final optimized geometry and variables:
    Molecular point group: c1

    Geometry (in Angstrom), charge = 0, multiplicity = 1:

    H           -3.085623769381    -1.479945347616    -0.064833325745
    O           -2.261878960180    -1.152250992218    -0.396292101012
    C           -1.949814717920     0.065357095603     0.232254826948
    C           -0.601373111319     0.544932190205    -0.276820218204
    H           -2.711496980536     0.811349544946     0.012259908332
    H           -1.915966603418    -0.060234618812     1.313769361635
    C            0.553763449048    -0.395549959224     0.070126195792
    H           -0.664858848684     0.664810461002    -1.355061024485
    H           -0.414115362558     1.532613780713     0.140604342133
    C            1.930403277089     0.137002180403    -0.369184577018
    H            0.372299975627    -1.372001223185    -0.363127726334
    H            0.564545079565    -0.557399349037     1.147715148821
    C            2.658774206089     0.930170594531     0.715267517349
    H            2.552865411521    -0.687051137879    -0.706377553520
    H            1.804012300070     0.770026833294    -1.245571593193
    H            2.873399688034     0.305570993343     1.577668128320
    H            3.601495620245     1.325197805793     0.348863886472
    H            2.061543804985     1.770613891554     1.058435271214

  Mulliken Charges: (a.u.)
   Center  Symbol    Alpha    Beta     Spin     Total
       1     H     0.28059  0.28059  0.00000  0.43881
       2     O     4.36961  4.36961  0.00000 -0.73923
       3     C     2.99748  2.99748  0.00000  0.00503
       4     C     3.16122  3.16122  0.00000 -0.32244
       5     H     0.42934  0.42934  0.00000  0.14132
       6     H     0.43244  0.43244  0.00000  0.13511
       7     C     3.15665  3.15665  0.00000 -0.31329
       8     H     0.41452  0.41452  0.00000  0.17095
       9     H     0.42380  0.42380  0.00000  0.15240
      10     C     3.15559  3.15559  0.00000 -0.31118
      11     H     0.40540  0.40540  0.00000  0.18921
      12     H     0.42663  0.42663  0.00000  0.14673
      13     C     3.23912  3.23912  0.00000 -0.47824
      14     H     0.41966  0.41966  0.00000  0.16068
      15     H     0.42274  0.42274  0.00000  0.15453
      16     H     0.42166  0.42166  0.00000  0.15668
      17     H     0.42028  0.42028  0.00000  0.15945
      18     H     0.42325  0.42325  0.00000  0.15349

   Total alpha = 25.00000, Total beta = 25.00000, Total charge = -0.00000
