  ==> Input File <==

--------------------------------------------------------------------------
set {
	reference rhf
	basis cc-pvtz
}

set_num_threads( 4 )
memory 2 gb

molecule MOL {
0 1

H	 -2.261112	 1.243578	 1.161982
C	 -2.432592	 0.271150	 0.720168
C	 -1.167570	 -0.572450	 0.749690
H	 -2.769873	 0.429654	 -0.295377
H	 -3.225133	 -0.220607	 1.271491
C	 0.000000	 0.039916	 0.000014
H	 -1.349913	 -1.557049	 0.327535
H	 -0.845566	 -0.750245	 1.772233
C	 1.286532	 -0.763243	 0.000268
O	 -0.087966	 1.086430	 -0.554466
C	 2.547023	 0.087626	 -0.000114
H	 1.264245	 -1.421103	 -0.864380
H	 1.264290	 -1.420353	 0.865489
H	 2.584452	 0.725630	 -0.872909
H	 3.427035	 -0.544422	 0.000125
H	 2.584484	 0.726356	 0.872143

	symmetry c1
}
set optking {
	frozen_dihedral = ("
		3 6 9 12
	")
}

ee = optimize('scf')
oeprop('DIPOLE', 'QUADRUPOLE', 'MULLIKEN_CHARGES')
f=open( 'psi4out.xyz', 'w' )
f.write( "16  " )
f.write( str(ee) + "\n" )
f.write( MOL.save_string_xyz() )
f.close()
--------------------------------------------------------------------------

    Molecular point group: c1
  Charge       = 0
  Multiplicity = 1
  Basis Set: CC-PVTZ
  Basis Set:
  @DF-RHF Final Energy:  -270.13061217241506
    Total Energy =                       -270.1306121724149421
    Molecular point group: c1
  Basis Set: CC-PVTZ
  Basis Set:
  Basis Set: CC-PVTZ
  Basis Set:
  @DF-RHF Final Energy:  -270.13095639902178
    Total Energy =                       -270.1309563990219544
  Basis Set: CC-PVTZ
  Basis Set:
  Basis Set: CC-PVTZ
  Basis Set:
  @DF-RHF Final Energy:  -270.12962616398511
    Total Energy =                       -270.1296261639847103
  Basis Set: CC-PVTZ
  Basis Set:
  Basis Set: CC-PVTZ
  Basis Set:
  @DF-RHF Final Energy:  -270.13108520924550
    Total Energy =                       -270.1310852092452706
  Basis Set: CC-PVTZ
  Basis Set:
  Basis Set: CC-PVTZ
  Basis Set:
  @DF-RHF Final Energy:  -270.13110228204778
    Total Energy =                       -270.1311022820476637
  Basis Set: CC-PVTZ
  Basis Set:
  Charge       = 0
  Multiplicity = 1
  Basis Set: CC-PVTZ
  Basis Set:

    Orbital Energies (a.u.)
    -----------------------

    Doubly Occupied:

       1A    -20.538058     2A    -11.318070     3A    -11.232794
       4A    -11.231785     5A    -11.214008     6A    -11.211947
       7A     -1.398814     8A     -1.069584     9A     -1.037497
      10A     -0.916523    11A     -0.848017    12A     -0.726070
      13A     -0.668899    14A     -0.645664    15A     -0.623132
      16A     -0.606710    17A     -0.562089    18A     -0.533076
      19A     -0.526967    20A     -0.511734    21A     -0.503149
      22A     -0.495864    23A     -0.483646    24A     -0.399729

  @DF-RHF Final Energy:  -270.13110278187276

   => Energetics <=

    Nuclear Repulsion Energy =            240.3183074508916945
    One-Electron Energy =                -842.2911645718004365
    Two-Electron Energy =                 331.8417543390359015
    DFT Exchange-Correlation Energy =       0.0000000000000000
    Empirical Dispersion Energy =           0.0000000000000000
    PCM Polarization Energy =               0.0000000000000000
    EFP Energy =                            0.0000000000000000
    Total Energy =                       -270.1311027818728689
    Molecular point group: c1
  Basis Set: CC-PVTZ
  Basis Set:

  -Total Gradient:
     Atom            X                  Y                   Z
    ------   -----------------  -----------------  -----------------
       1        0.000011909271    -0.000010007782     0.000002901273
       2       -0.000021895923    -0.000018257894    -0.000042682003
       3        0.000351612009     0.000463327714     0.000960467376
       4       -0.000006224799     0.000008246764     0.000004357850
       5       -0.000003084792     0.000001064486     0.000003916388
       6       -0.000352434724    -0.000427821662    -0.001443962227
       7        0.000002309702     0.000018888734    -0.000015745355
       8       -0.000005323738    -0.000019839879     0.000001716402
       9       -0.000598252521    -0.000996108588     0.001207169344
      10       -0.000010126227     0.000000913103     0.000004853713
      11        0.000018809932     0.000015075134    -0.000002265926
      12        0.000622831130     0.000977413177    -0.000672276843
      13       -0.000000498748     0.000004822758    -0.000009242361
      14       -0.000004506666    -0.000001249112    -0.000000984856
      15        0.000002483213    -0.000007591278     0.000004734991
      16       -0.000007607120    -0.000008875677    -0.000002957765

  **** Optimization is complete! (in 6 steps) ****
    Final optimized geometry and variables:
    Molecular point group: c1

    Geometry (in Angstrom), charge = 0, multiplicity = 1:

    H           -2.363112492680     1.196242210414     0.889172948263
    C           -2.486658333530     0.197973105506     0.492221793481
    C           -1.196864987146    -0.597987579336     0.610971884538
    H           -2.789958588778     0.293745261586    -0.542259879408
    H           -3.283976301147    -0.292673022380     1.037584748117
    C           -0.016864446812     0.020257730522    -0.108982235927
    H           -1.324500348543    -1.610641490832     0.237090848991
    H           -0.905162303466    -0.709649991209     1.652765201854
    C            1.248787218592    -0.816350053363    -0.169741864941
    O           -0.074050105046     1.097769973390    -0.605373403928
    C            2.524528790966     0.016312061206    -0.203821508303
    H            1.174344392305    -1.407770874441    -1.079752740843
    H            1.262254154596    -1.520249091469     0.654404281646
    H            2.511876096061     0.702967078620    -1.037803591554
    H            3.391992688094    -0.625837408313    -0.296717034253
    H            2.633127522964     0.599075015390     0.703280217551

  Mulliken Charges: (a.u.)
   Center  Symbol    Alpha    Beta     Spin     Total
       1     H     0.44608  0.44608  0.00000  0.10784
       2     C     3.14115  3.14115  0.00000 -0.28230
       3     C     3.10082  3.10082  0.00000 -0.20165
       4     H     0.44944  0.44944  0.00000  0.10112
       5     H     0.45072  0.45072  0.00000  0.09857
       6     C     2.87076  2.87076  0.00000  0.25848
       7     H     0.44527  0.44527  0.00000  0.10945
       8     H     0.44572  0.44572  0.00000  0.10856
       9     C     3.09706  3.09706  0.00000 -0.19413
      10     O     4.17438  4.17438  0.00000 -0.34875
      11     C     3.14274  3.14274  0.00000 -0.28548
      12     H     0.44563  0.44563  0.00000  0.10874
      13     H     0.44521  0.44521  0.00000  0.10957
      14     H     0.44116  0.44116  0.00000  0.11769
      15     H     0.45010  0.45010  0.00000  0.09981
      16     H     0.45376  0.45376  0.00000  0.09248

   Total alpha = 24.00000, Total beta = 24.00000, Total charge = -0.00000
