  ==> Input File <==

--------------------------------------------------------------------------
set {
	reference rhf
	basis 6-31G*
}

set_num_threads( 1 )
memory 2 gb

molecule MOL {
0 1

O	 -2.232355	 -1.693709	 0.804083
C	 -1.558314	 -1.724966	 -0.180358
C	 -0.889235	 -0.467034	 -0.705952
C	 -1.310056	 -3.013701	 -0.931960
C	 0.379448	 -0.143569	 0.099626
H	 -1.597946	 0.348045	 -0.607574
H	 -0.643101	 -0.576184	 -1.758344
C	 1.631333	 -0.777471	 -0.511575
H	 0.482768	 0.934507	 0.149241
H	 0.263088	 -0.495696	 1.123449
C	 2.915987	 -0.544314	 0.291766
H	 1.766672	 -0.399098	 -1.523130
H	 1.471257	 -1.849544	 -0.605828
C	 3.373361	 0.914346	 0.347591
H	 3.708709	 -1.142521	 -0.150311
H	 2.780642	 -0.921148	 1.303579
H	 3.506512	 1.320010	 -0.651625
H	 4.322697	 0.999599	 0.867103
H	 2.660624	 1.545032	 0.868198
H	 -1.771652	 -2.958340	 -1.914370
H	 -1.728153	 -3.847520	 -0.385404
H	 -0.246314	 -3.169813	 -1.086516

	symmetry c1
}
set optking {
	frozen_dihedral = ("
		6 3 2 1,
		3 5 8 12,
		12 8 11 15
	")
}

ee = energy('scf')
oeprop('DIPOLE', 'QUADRUPOLE', 'MULLIKEN_CHARGES')
f=open( 'psi4out.xyz', 'w' )
f.write( "22  " )
f.write( str(ee) + "\n" )
f.write( MOL.save_string_xyz() )
f.close()
--------------------------------------------------------------------------

    Molecular point group: c1

    Geometry (in Angstrom), charge = 0, multiplicity = 1:

       Center              X                  Y                   Z               Mass
    ------------   -----------------  -----------------  -----------------  -----------------
           O         -2.529424439770    -0.760670803296     0.897285701925    15.994914619560
           C         -1.855383439770    -0.791927803296    -0.087155298075    12.000000000000
           C         -1.186304439770     0.466004196704    -0.612749298075    12.000000000000
           C         -1.607125439770    -2.080662803296    -0.838757298075    12.000000000000
           C          0.082378560230     0.789469196704     0.192828701925    12.000000000000
           H         -1.895015439770     1.281083196704    -0.514371298075     1.007825032070
           H         -0.940170439770     0.356854196704    -1.665141298075     1.007825032070
           C          1.334263560230     0.155567196704    -0.418372298075    12.000000000000
           H          0.185698560230     1.867545196704     0.242443701925     1.007825032070
           H         -0.033981439770     0.437342196704     1.216651701925     1.007825032070
           C          2.618917560230     0.388724196704     0.384968701925    12.000000000000
           H          1.469602560230     0.533940196704    -1.429927298075     1.007825032070
           H          1.174187560230    -0.916505803296    -0.512625298075     1.007825032070
           C          3.076291560230     1.847384196704     0.440793701925    12.000000000000
           H          3.411639560230    -0.209482803296    -0.057108298075     1.007825032070
           H          2.483572560230     0.011890196704     1.396781701925     1.007825032070
           H          3.209442560230     2.253048196704    -0.558422298075     1.007825032070
           H          4.025627560230     1.932637196704     0.960305701925     1.007825032070
           H          2.363554560230     2.478070196704     0.961400701925     1.007825032070
           H         -2.068721439770    -2.025301803296    -1.821167298075     1.007825032070
           H         -2.025222439770    -2.914481803296    -0.292201298075     1.007825032070
           H         -0.543383439770    -2.236774803296    -0.993313298075     1.007825032070

  Charge       = 0
  Multiplicity = 1
  Basis Set: 6-31G*
  Basis Set:

    Orbital Energies (a.u.)
    -----------------------

    Doubly Occupied:

       1A    -20.546708     2A    -11.324214     3A    -11.228622
       4A    -11.228046     5A    -11.227710     6A    -11.224404
       7A    -11.221780     8A    -11.213332     9A     -1.392732
      10A     -1.097704    11A     -1.043976    12A     -0.999149
      13A     -0.939824    14A     -0.858753    15A     -0.789093
      16A     -0.733494    17A     -0.662184    18A     -0.643722
      19A     -0.627334    20A     -0.617428    21A     -0.594202
      22A     -0.585343    23A     -0.563859    24A     -0.553921
      25A     -0.533563    26A     -0.515210    27A     -0.502585
      28A     -0.493551    29A     -0.470974    30A     -0.463890
      31A     -0.451504    32A     -0.397315

  @DF-RHF Final Energy:  -348.09364111729775

   => Energetics <=

    Nuclear Repulsion Energy =            378.3848889252591903
    One-Electron Energy =               -1221.4641152215165221
    Two-Electron Energy =                 494.9855851789590133
    DFT Exchange-Correlation Energy =       0.0000000000000000
    Empirical Dispersion Energy =           0.0000000000000000
    PCM Polarization Energy =               0.0000000000000000
    EFP Energy =                            0.0000000000000000
    Total Energy =                       -348.0936411172982616

  Mulliken Charges: (a.u.)
   Center  Symbol    Alpha    Beta     Spin     Total
       1     O     4.26259  4.26259  0.00000 -0.52518
       2     C     2.73844  2.73844  0.00000  0.52312
       3     C     3.20191  3.20191  0.00000 -0.40383
       4     C     3.29093  3.29093  0.00000 -0.58185
       5     C     3.16535  3.16535  0.00000 -0.33070
       6     H     0.39880  0.39880  0.00000  0.20239
       7     H     0.41558  0.41558  0.00000  0.16884
       8     C     3.15713  3.15713  0.00000 -0.31426
       9     H     0.41133  0.41133  0.00000  0.17734
      10     H     0.40652  0.40652  0.00000  0.18695
      11     C     3.15301  3.15301  0.00000 -0.30602
      12     H     0.42233  0.42233  0.00000  0.15534
      13     H     0.42265  0.42265  0.00000  0.15469
      14     C     3.24207  3.24207  0.00000 -0.48415
      15     H     0.41990  0.41990  0.00000  0.16021
      16     H     0.42062  0.42062  0.00000  0.15875
      17     H     0.42198  0.42198  0.00000  0.15603
      18     H     0.41737  0.41737  0.00000  0.16526
      19     H     0.41902  0.41902  0.00000  0.16196
      20     H     0.40688  0.40688  0.00000  0.18624
      21     H     0.39743  0.39743  0.00000  0.20514
      22     H     0.40814  0.40814  0.00000  0.18372

   Total alpha = 32.00000, Total beta = 32.00000, Total charge = -0.00000
