  ==> Input File <==

--------------------------------------------------------------------------
set {
	reference rhf
	basis cc-pvtz
}

set_num_threads( 4 )
memory 2 gb

molecule MOL {
0 1

O	 -2.817697	 1.304178	 0.001046
C	 -2.664672	 0.129869	 0.003507
C	 -3.797908	 -0.860100	 -0.001145
O	 -1.481217	 -0.452708	 0.001092
H	 -4.408836	 -0.679689	 -0.875387
H	 -3.443486	 -1.878443	 -0.002770
H	 -4.412123	 -0.683688	 0.871605
C	 -0.332055	 0.384012	 -0.000250
C	 0.892252	 -0.506059	 -0.000295
H	 -0.360822	 1.020205	 -0.874146
H	 -0.359817	 1.021310	 0.872861
C	 1.978567	 0.011074	 0.938243
H	 1.278107	 -0.573598	 -1.012335
H	 0.597968	 -1.509323	 0.290434
C	 3.223619	 -0.871358	 0.955170
H	 2.259879	 1.019839	 0.646295
H	 1.580434	 0.086117	 1.947120
C	 4.308943	 -0.355584	 1.893816
H	 3.623408	 -0.945687	 -0.052153
H	 2.943773	 -1.879648	 1.246931
H	 4.634559	 0.638643	 1.606879
H	 5.177470	 -1.003688	 1.882486
H	 3.949542	 -0.302247	 2.915990

	symmetry c1
}
set optking {
	frozen_dihedral = ("
		13 9 8 10
	")
}

ee = optimize('scf')
oeprop('DIPOLE', 'QUADRUPOLE', 'MULLIKEN_CHARGES')
f=open( 'psi4out.xyz', 'w' )
f.write( "23  " )
f.write( str(ee) + "\n" )
f.write( MOL.save_string_xyz() )
f.close()
--------------------------------------------------------------------------

    Molecular point group: c1
  Charge       = 0
  Multiplicity = 1
  Basis Set: CC-PVTZ
  Basis Set:
  @DF-RHF Final Energy:  -423.12992483827185
    Total Energy =                       -423.1299248382714495
    Molecular point group: c1
  Basis Set: CC-PVTZ
  Basis Set:
  Basis Set: CC-PVTZ
  Basis Set:
  @DF-RHF Final Energy:  -423.13003688376591
    Total Energy =                       -423.1300368837661381
  Basis Set: CC-PVTZ
  Basis Set:
  Basis Set: CC-PVTZ
  Basis Set:
  @DF-RHF Final Energy:  -423.12875941267265
    Total Energy =                       -423.1287594126725935
  Basis Set: CC-PVTZ
  Basis Set:
  Basis Set: CC-PVTZ
  Basis Set:
  @DF-RHF Final Energy:  -423.13033123337692
    Total Energy =                       -423.1303312333770918
  Basis Set: CC-PVTZ
  Basis Set:
  Basis Set: CC-PVTZ
  Basis Set:
  @DF-RHF Final Energy:  -423.13034189831711
    Total Energy =                       -423.1303418983170559
  Basis Set: CC-PVTZ
  Basis Set:
  Basis Set: CC-PVTZ
  Basis Set:
  @DF-RHF Final Energy:  -423.13035622984950
    Total Energy =                       -423.1303562298495535
  Basis Set: CC-PVTZ
  Basis Set:
  Charge       = 0
  Multiplicity = 1
  Basis Set: CC-PVTZ
  Basis Set:

    Orbital Energies (a.u.)
    -----------------------

    Doubly Occupied:

       1A    -20.595235     2A    -20.529090     3A    -11.365799
       4A    -11.280018     5A    -11.230472     6A    -11.222294
       7A    -11.220735     8A    -11.218929     9A    -11.210751
      10A     -1.470197    11A     -1.363114    12A     -1.093757
      13A     -1.042131    14A     -1.003432    15A     -0.931418
      16A     -0.842912    17A     -0.801825    18A     -0.778136
      19A     -0.692293    20A     -0.686184    21A     -0.669927
      22A     -0.647661    23A     -0.608319    24A     -0.585923
      25A     -0.583697    26A     -0.570244    27A     -0.559275
      28A     -0.536653    29A     -0.525815    30A     -0.504159
      31A     -0.496603    32A     -0.475658    33A     -0.471549
      34A     -0.466327    35A     -0.450986    36A     -0.438398

  @DF-RHF Final Energy:  -423.13035664699476

   => Energetics <=

    Nuclear Repulsion Energy =            450.8384159094799770
    One-Electron Energy =               -1469.5977157794907271
    Two-Electron Energy =                 595.6289432230163357
    DFT Exchange-Correlation Energy =       0.0000000000000000
    Empirical Dispersion Energy =           0.0000000000000000
    PCM Polarization Energy =               0.0000000000000000
    EFP Energy =                            0.0000000000000000
    Total Energy =                       -423.1303566469944144
    Molecular point group: c1
  Basis Set: CC-PVTZ
  Basis Set:

  -Total Gradient:
     Atom            X                  Y                   Z
    ------   -----------------  -----------------  -----------------
       1        0.000018504167    -0.000032064336    -0.000000440455
       2       -0.000041446531     0.000048067555     0.000000241696
       3        0.000004514703    -0.000006423487     0.000013279450
       4        0.000077733552    -0.000009090058    -0.000006675688
       5       -0.000002158229    -0.000005581409    -0.000004217175
       6       -0.000000592680     0.000002582830    -0.000001745707
       7       -0.000002515136     0.000003684418    -0.000005494208
       8        0.003142256119     0.004355694328     0.002692038888
       9       -0.003445106684    -0.004699953327    -0.001306156338
      10       -0.002080105943    -0.002863390218    -0.001992921471
      11        0.000025814591    -0.000002181538    -0.000010863686
      12       -0.000007943343     0.000022610203    -0.000000234179
      13        0.002327183417     0.003183621766     0.000640415722
      14       -0.000019018107    -0.000005457313    -0.000006353712
      15        0.000000711254     0.000011088799    -0.000024662862
      16        0.000000312549     0.000003254106    -0.000006812337
      17        0.000010635557     0.000006359931     0.000003398658
      18       -0.000013297145    -0.000013731318     0.000022935249
      19        0.000001238764     0.000005630094    -0.000003694224
      20        0.000006471391    -0.000000312915    -0.000007093290
      21       -0.000002797437    -0.000007884838    -0.000007726496
      22       -0.000004043265    -0.000004867531     0.000005953955
      23        0.000003648428     0.000008344259     0.000006828211

  **** Optimization is complete! (in 7 steps) ****
    Final optimized geometry and variables:
    Molecular point group: c1

    Geometry (in Angstrom), charge = 0, multiplicity = 1:

    O           -2.723340951442     1.444330192116    -0.465646461432
    C           -2.585519660819     0.267983911635    -0.446831187335
    C           -3.731993211614    -0.706752895185    -0.474816481275
    O           -1.411222487074    -0.329629535381    -0.397923511887
    H           -4.313295725932    -0.528391367105    -1.369505786063
    H           -3.392087413863    -1.729871453383    -0.453918238018
    H           -4.370166112696    -0.511661276906     0.376603628465
    C           -0.249155253524     0.496525646847    -0.371393657429
    C            0.977217076140    -0.411411951793    -0.356348594705
    H           -0.275046545787     1.122591570567    -1.250828699027
    H           -0.295796616359     1.128848971174     0.503159578003
    C            2.086734967946     0.125248229190     0.547365205291
    H            1.373192264681    -0.502926432668    -1.361900220393
    H            0.679730901986    -1.398791519538    -0.027219740004
    C            3.348873776519    -0.731031930834     0.519709466719
    H            2.337656539826     1.141096984979     0.249876188826
    H            1.717520637866     0.190080438592     1.567751477140
    C            4.449112835306    -0.204701951821     1.435011973950
    H            3.723141511581    -0.786026368159    -0.498787811058
    H            3.097078674370    -1.748401471109     0.806435865200
    H            4.747120481717     0.799198127288     1.151517323404
    H            5.329631544474    -0.835148149143     1.392234769190
    H            4.116791655875    -0.170479635694     2.467149991893

  Mulliken Charges: (a.u.)
   Center  Symbol    Alpha    Beta     Spin     Total
       1     O     4.20294  4.20294  0.00000 -0.40588
       2     C     2.81085  2.81085  0.00000  0.37829
       3     C     3.13914  3.13914  0.00000 -0.27829
       4     O     4.14652  4.14652  0.00000 -0.29304
       5     H     0.44217  0.44217  0.00000  0.11565
       6     H     0.44215  0.44215  0.00000  0.11571
       7     H     0.44233  0.44233  0.00000  0.11534
       8     C     2.98324  2.98324  0.00000  0.03352
       9     C     3.08855  3.08855  0.00000 -0.17710
      10     H     0.45134  0.45134  0.00000  0.09733
      11     H     0.45327  0.45327  0.00000  0.09346
      12     C     3.09608  3.09608  0.00000 -0.19217
      13     H     0.45141  0.45141  0.00000  0.09717
      14     H     0.44544  0.44544  0.00000  0.10912
      15     C     3.08591  3.08591  0.00000 -0.17182
      16     H     0.45244  0.45244  0.00000  0.09512
      17     H     0.45252  0.45252  0.00000  0.09496
      18     C     3.14938  3.14938  0.00000 -0.29875
      19     H     0.45368  0.45368  0.00000  0.09263
      20     H     0.45360  0.45360  0.00000  0.09280
      21     H     0.45464  0.45464  0.00000  0.09073
      22     H     0.44785  0.44785  0.00000  0.10431
      23     H     0.45455  0.45455  0.00000  0.09089

   Total alpha = 36.00000, Total beta = 36.00000, Total charge = -0.00000
