  ==> Input File <==

--------------------------------------------------------------------------
set {
	reference rhf
	basis 6-31G*
}

set_num_threads( 4 )
memory 2 gb

molecule MOL {
0 1

H	 -4.342002	 -0.648915	 -0.736665
C	 -3.480727	 -0.555138	 -0.104153
C	 -2.295204	 -0.888759	 -0.559383
H	 -3.615431	 -0.186425	 0.895255
O	 -1.180634	 -0.819263	 0.215062
H	 -2.138049	 -1.253197	 -1.559224
C	 0.051604	 -1.018856	 -0.387932
C	 1.043764	 0.054862	 -0.001873
H	 -0.017620	 -1.041351	 -1.469781
H	 0.437898	 -1.966374	 -0.042284
F	 2.212596	 -0.199467	 -0.571921
F	 0.652529	 1.252447	 -0.405055
F	 1.230877	 0.110694	 1.300533

	symmetry c1
}
set optking {
	frozen_dihedral = ("
		3 5 7 9
	")
}

ee = optimize('scf')
oeprop('DIPOLE', 'QUADRUPOLE', 'MULLIKEN_CHARGES')
f=open( 'psi4out.xyz', 'w' )
f.write( "13  " )
f.write( str(ee) + "\n" )
f.write( MOL.save_string_xyz() )
f.close()
--------------------------------------------------------------------------

    Molecular point group: c1
  Charge       = 0
  Multiplicity = 1
  Basis Set: 6-31G*
  Basis Set:
  @DF-RHF Final Energy:  -527.53323190937385
    Total Energy =                       -527.5332319093738533
    Molecular point group: c1
  Basis Set: 6-31G*
  Basis Set:
  Basis Set: 6-31G*
  Basis Set:
  @DF-RHF Final Energy:  -527.53387788269708
    Total Energy =                       -527.5338778826969701
  Basis Set: 6-31G*
  Basis Set:
  Basis Set: 6-31G*
  Basis Set:
  @DF-RHF Final Energy:  -527.53406739661932
    Total Energy =                       -527.5340673966195482
  Basis Set: 6-31G*
  Basis Set:
  Basis Set: 6-31G*
  Basis Set:
  @DF-RHF Final Energy:  -527.53411848811504
    Total Energy =                       -527.5341184881145864
  Basis Set: 6-31G*
  Basis Set:
  @DF-RHF Final Energy:  -527.53425728253114
    Total Energy =                       -527.5342572825314846
  Basis Set: 6-31G*
  Basis Set:
  @DF-RHF Final Energy:  -527.53431989854653
    Total Energy =                       -527.5343198985464142
  Basis Set: 6-31G*
  Basis Set:
  Basis Set: 6-31G*
  Basis Set:
  @DF-RHF Final Energy:  -527.53434690756535
    Total Energy =                       -527.5343469075653502
  Basis Set: 6-31G*
  Basis Set:
  Basis Set: 6-31G*
  Basis Set:
  @DF-RHF Final Energy:  -527.53434974553875
    Total Energy =                       -527.5343497455387478
  Basis Set: 6-31G*
  Basis Set:
  Charge       = 0
  Multiplicity = 1
  Basis Set: 6-31G*
  Basis Set:

    Orbital Energies (a.u.)
    -----------------------

    Doubly Occupied:

       1A    -26.342539     2A    -26.339514     3A    -26.338462
       4A    -20.607404     5A    -11.502007     6A    -11.318697
       7A    -11.302059     8A    -11.218698     9A     -1.739412
      10A     -1.637337    11A     -1.635787    12A     -1.438111
      13A     -1.086925    14A     -1.015518    15A     -0.923245
      16A     -0.836592    17A     -0.829234    18A     -0.809906
      19A     -0.798195    20A     -0.723855    21A     -0.710825
      22A     -0.698311    23A     -0.676858    24A     -0.656739
      25A     -0.652539    26A     -0.640380    27A     -0.629548
      28A     -0.588552    29A     -0.562698    30A     -0.527961
      31A     -0.508113    32A     -0.354640

  @DF-RHF Final Energy:  -527.53435012658861

   => Energetics <=

    Nuclear Repulsion Energy =            408.2453473592204318
    One-Electron Energy =               -1540.2580698705260147
    Two-Electron Energy =                 604.4783723847172041
    DFT Exchange-Correlation Energy =       0.0000000000000000
    Empirical Dispersion Energy =           0.0000000000000000
    PCM Polarization Energy =               0.0000000000000000
    EFP Energy =                            0.0000000000000000
    Total Energy =                       -527.5343501265883788
    Molecular point group: c1
  Basis Set: 6-31G*
  Basis Set:

  -Total Gradient:
     Atom            X                  Y                   Z
    ------   -----------------  -----------------  -----------------
       1        0.000006510895    -0.000006164616     0.000000103407
       2        0.000016454070     0.000007254310    -0.000002603767
       3       -0.000046844093    -0.000187971264     0.000045908009
       4       -0.000010112096     0.000001179675     0.000004870799
       5        0.000061972940     0.000366378433    -0.000077118709
       6       -0.000011201700    -0.000000567613     0.000002093819
       7       -0.000057341114    -0.000422495091     0.000040797305
       8       -0.000059390985    -0.000010889756    -0.000017373748
       9        0.000062801876     0.000239565911    -0.000028409899
      10        0.000011367151     0.000000358612     0.000005369215
      11       -0.000016630605     0.000008230028     0.000005377117
      12        0.000027630210    -0.000008878653     0.000016479295
      13        0.000014783462     0.000014000022     0.000004507157

  **** Optimization is complete! (in 9 steps) ****
    Final optimized geometry and variables:
    Molecular point group: c1

    Geometry (in Angstrom), charge = 0, multiplicity = 1:

    H           -4.305580211842    -0.502234453445    -0.656630318896
    C           -3.460716282393    -0.504620033602     0.004511586287
    C           -2.243646041114    -0.487280826227    -0.488600427886
    H           -3.637562978993    -0.504887652164     1.063636292790
    O           -1.143540164591    -0.437355368339     0.302922244146
    H           -2.046381132686    -0.483419763754    -1.547011574672
    C            0.071819064898    -0.854855344600    -0.223419531986
    C            1.106985868110     0.214368606527     0.028163548872
    H            0.023909595844    -1.019561673538    -1.292855487896
    H            0.398039433519    -1.767705635387     0.258393925990
    F            2.277700611348    -0.186831712564    -0.447270923015
    F            0.793163984301     1.345605699965    -0.575358898296
    F            1.257918033644     0.467436160781     1.312043875651

  Mulliken Charges: (a.u.)
   Center  Symbol    Alpha    Beta     Spin     Total
       1     H     0.40703  0.40703  0.00000  0.18593
       2     C     3.23404  3.23404  0.00000 -0.46807
       3     C     2.89791  2.89791  0.00000  0.20417
       4     H     0.40110  0.40110  0.00000  0.19781
       5     O     4.30353  4.30353  0.00000 -0.60707
       6     H     0.40732  0.40732  0.00000  0.18536
       7     C     3.05274  3.05274  0.00000 -0.10548
       8     C     2.45324  2.45324  0.00000  1.09352
       9     H     0.40696  0.40696  0.00000  0.18608
      10     H     0.39792  0.39792  0.00000  0.20416
      11     F     4.68416  4.68416  0.00000 -0.36832
      12     F     4.67853  4.67853  0.00000 -0.35706
      13     F     4.67552  4.67552  0.00000 -0.35104

   Total alpha = 32.00000, Total beta = 32.00000, Total charge =  0.00000
