  ==> Input File <==

--------------------------------------------------------------------------
set {
	reference rhf
	basis cc-pvtz
}

set_num_threads( 4 )
memory 2 gb

molecule MOL {
0 1

O	 2.469510	 1.969942	 0.394574
C	 1.610951	 2.067711	 1.209084
C	 0.354328	 1.222131	 1.167549
C	 1.717356	 3.052117	 2.351821
C	 0.288398	 0.247429	 0.000314
H	 0.283990	 0.693546	 2.115557
H	 -0.496082	 1.900047	 1.152107
C	 -0.993089	 -0.581367	 -0.000217
H	 1.151104	 -0.408028	 0.035370
H	 0.370481	 0.799584	 -0.928944
C	 -2.258482	 0.271340	 0.000669
H	 -1.002280	 -1.233920	 -0.870484
H	 -1.002061	 -1.235367	 0.868958
C	 -3.544441	 -0.550271	 -0.000253
H	 -2.250545	 0.925250	 -0.867923
H	 -2.250598	 0.923423	 0.870642
C	 -4.804551	 0.308747	 0.000556
H	 -3.553737	 -1.201524	 -0.870151
H	 -3.553831	 -1.203282	 0.868313
H	 -4.842050	 0.949078	 -0.874436
H	 -5.698404	 -0.304480	 -0.000254
H	 -4.842277	 0.947103	 0.876982
H	 1.670126	 2.529880	 3.301077
H	 2.647092	 3.595326	 2.281776
H	 0.885479	 3.747317	 2.325009

	symmetry c1
}
set optking {
	frozen_dihedral = ("
		9 5 8 12
	")
}

ee = optimize('scf')
oeprop('DIPOLE', 'QUADRUPOLE', 'MULLIKEN_CHARGES')
f=open( 'psi4out.xyz', 'w' )
f.write( "25  " )
f.write( str(ee) + "\n" )
f.write( MOL.save_string_xyz() )
f.close()
--------------------------------------------------------------------------

    Molecular point group: c1
  Charge       = 0
  Multiplicity = 1
  Basis Set: CC-PVTZ
  Basis Set:
  @DF-RHF Final Energy:  -387.27116077182387
    Total Energy =                       -387.2711607718239293
    Molecular point group: c1
  Basis Set: CC-PVTZ
  Basis Set:
  Basis Set: CC-PVTZ
  Basis Set:
  @DF-RHF Final Energy:  -387.27188077523982
    Total Energy =                       -387.2718807752399925
  Basis Set: CC-PVTZ
  Basis Set:
  Basis Set: CC-PVTZ
  Basis Set:
  @DF-RHF Final Energy:  -387.27255175385278
    Total Energy =                       -387.2725517538530084
  Basis Set: CC-PVTZ
  Basis Set:
  Basis Set: CC-PVTZ
  Basis Set:
  @DF-RHF Final Energy:  -387.27217322122465
    Total Energy =                       -387.2721732212245342
  Basis Set: CC-PVTZ
  Basis Set:
  Basis Set: CC-PVTZ
  Basis Set:
  @DF-RHF Final Energy:  -387.27258886617341
    Total Energy =                       -387.2725888661728959
  Basis Set: CC-PVTZ
  Basis Set:
  Basis Set: CC-PVTZ
  Basis Set:
  @DF-RHF Final Energy:  -387.27260116694629
    Total Energy =                       -387.2726011669460604
  Basis Set: CC-PVTZ
  Basis Set:
  Charge       = 0
  Multiplicity = 1
  Basis Set: CC-PVTZ
  Basis Set:

    Orbital Energies (a.u.)
    -----------------------

    Doubly Occupied:

       1A    -20.538723     2A    -11.320354     3A    -11.229489
       4A    -11.226443     5A    -11.215615     6A    -11.215497
       7A    -11.214989     8A    -11.214233     9A    -11.208794
      10A     -1.398811    11A     -1.096188    12A     -1.057030
      13A     -1.015572    14A     -0.968865    15A     -0.899172
      16A     -0.816815    17A     -0.787774    18A     -0.731372
      19A     -0.660499    20A     -0.653568    21A     -0.638005
      22A     -0.623490    23A     -0.598413    24A     -0.581831
      25A     -0.568474    26A     -0.566397    27A     -0.544032
      28A     -0.529175    29A     -0.517672    30A     -0.495544
      31A     -0.490535    32A     -0.477631    33A     -0.463325
      34A     -0.459592    35A     -0.448003    36A     -0.402735

  @DF-RHF Final Energy:  -387.27260145591498

   => Energetics <=

    Nuclear Repulsion Energy =            445.6993008315920974
    One-Electron Energy =               -1408.1944915249735004
    Two-Electron Energy =                 575.2225892374666500
    DFT Exchange-Correlation Energy =       0.0000000000000000
    Empirical Dispersion Energy =           0.0000000000000000
    PCM Polarization Energy =               0.0000000000000000
    EFP Energy =                            0.0000000000000000
    Total Energy =                       -387.2726014559146961
    Molecular point group: c1
  Basis Set: CC-PVTZ
  Basis Set:

  -Total Gradient:
     Atom            X                  Y                   Z
    ------   -----------------  -----------------  -----------------
       1        0.000023480410    -0.000001172711    -0.000001083667
       2       -0.000023146663    -0.000001190837    -0.000020238442
       3       -0.000018426448     0.000028128238     0.000017108093
       4       -0.000006500327    -0.000006635111    -0.000001660479
       5       -0.000211166653     0.000173730666    -0.002640198350
       6        0.000005865027    -0.000003970792    -0.000000916290
       7        0.000007231890     0.000011795756     0.000019038251
       8        0.001130961965    -0.001633363107     0.001766155161
       9       -0.000026919489     0.000066248810     0.001945696181
      10        0.000001841749    -0.000003044558    -0.000003046091
      11       -0.000014933658     0.000032541166     0.000007205403
      12       -0.000892796222     0.001382450774    -0.001042041572
      13        0.000010043433    -0.000015781878    -0.000000861558
      14        0.000019148448    -0.000014204947    -0.000055634758
      15       -0.000000971459    -0.000010431380    -0.000011361104
      16       -0.000011559015     0.000011942414    -0.000008366168
      17        0.000013495883     0.000005579523     0.000041025812
      18       -0.000004722909    -0.000007791711    -0.000010395304
      19       -0.000011421673    -0.000002401617    -0.000007628328
      20        0.000006579564    -0.000015013532    -0.000002213513
      21        0.000007358689    -0.000003987676     0.000011729678
      22       -0.000006098046     0.000015124671    -0.000001062571
      23        0.000000766580    -0.000001001225     0.000001534750
      24        0.000000324386    -0.000004127675    -0.000002413062
      25        0.000001564538    -0.000003423262    -0.000000372077

  **** Optimization is complete! (in 7 steps) ****
    Final optimized geometry and variables:
    Molecular point group: c1

    Geometry (in Angstrom), charge = 0, multiplicity = 1:

    O            3.126785261046     0.970253039803    -0.167966460272
    C            2.276693332239     1.155568055718     0.640058410656
    C            0.948615891344     0.425648963358     0.605623550321
    C            2.464878417502     2.145271879210     1.767881078538
    C            0.814502723333    -0.567053762461    -0.543471787305
    H            0.826889731077    -0.076299445403     1.563414122735
    H            0.169992991947     1.181645708646     0.573927173252
    C           -0.464542533151    -1.405424826007    -0.503310660295
    H            1.669218264355    -1.231305441245    -0.510313046425
    H            0.877923244862    -0.033427545831    -1.484947815669
    C           -1.768627706082    -0.608654651631    -0.528652294355
    H           -0.457214568053    -2.062691055527    -1.367904872982
    H           -0.452459176912    -2.047428568845     0.374228254060
    C           -3.006069159539    -1.495135576998    -0.643638544411
    H           -1.748393925544     0.086370600823    -1.365585594786
    H           -1.856583141658    -0.003278857656     0.368815818463
    C           -4.311057439647    -0.706150324269    -0.651705549562
    H           -2.938742162882    -2.088817067840    -1.550942191841
    H           -3.018214364224    -2.202090566022     0.181625246844
    H           -4.344313011388    -0.013484783588    -1.486143820895
    H           -5.167855479409    -1.364800720830    -0.735168823001
    H           -4.425930532279    -0.128959104560     0.259910264750
    H            2.365190992603     1.645220287676     2.724972090040
    H            3.440238589147     2.601332069966     1.696042478545
    H            1.699415927282     2.912175159561     1.723713280817

  Mulliken Charges: (a.u.)
   Center  Symbol    Alpha    Beta     Spin     Total
       1     O     4.17036  4.17036  0.00000 -0.34073
       2     C     2.86136  2.86136  0.00000  0.27728
       3     C     3.11556  3.11556  0.00000 -0.23113
       4     C     3.15086  3.15086  0.00000 -0.30173
       5     C     3.09257  3.09257  0.00000 -0.18514
       6     H     0.44511  0.44511  0.00000  0.10979
       7     H     0.44322  0.44322  0.00000  0.11356
       8     C     3.10058  3.10058  0.00000 -0.20117
       9     H     0.43994  0.43994  0.00000  0.12013
      10     H     0.44528  0.44528  0.00000  0.10943
      11     C     3.09097  3.09097  0.00000 -0.18195
      12     H     0.44660  0.44660  0.00000  0.10680
      13     H     0.45279  0.45279  0.00000  0.09441
      14     C     3.08427  3.08427  0.00000 -0.16853
      15     H     0.45333  0.45333  0.00000  0.09333
      16     H     0.45499  0.45499  0.00000  0.09002
      17     C     3.14974  3.14974  0.00000 -0.29949
      18     H     0.45275  0.45275  0.00000  0.09450
      19     H     0.45462  0.45462  0.00000  0.09075
      20     H     0.45477  0.45477  0.00000  0.09046
      21     H     0.44787  0.44787  0.00000  0.10425
      22     H     0.45607  0.45607  0.00000  0.08785
      23     H     0.45057  0.45057  0.00000  0.09885
      24     H     0.43520  0.43520  0.00000  0.12959
      25     H     0.45057  0.45057  0.00000  0.09885

   Total alpha = 36.00000, Total beta = 36.00000, Total charge = -0.00000
