  ==> Input File <==

--------------------------------------------------------------------------
set {
	reference rhf
	basis 6-31G*
}

set_num_threads( 1 )
memory 2 gb

molecule MOL {
0 1

H	 3.276176	 0.174363	 -0.109463
N	 2.434251	 -0.367735	 -0.081097
C	 1.267428	 0.496480	 0.024474
H	 2.501951	 -0.965776	 0.720575
C	 -0.016086	 -0.325158	 -0.029487
H	 1.288818	 1.183521	 -0.816092
H	 1.267576	 1.109062	 0.929528
C	 -1.282277	 0.529072	 0.046735
H	 -0.012495	 -0.908639	 -0.945788
H	 -0.015903	 -1.041248	 0.791956
C	 -1.329739	 1.411639	 1.293541
H	 -2.155880	 -0.119462	 0.032292
H	 -1.352864	 1.155538	 -0.840122
H	 -1.296367	 0.812219	 2.198693
H	 -2.238862	 2.004265	 1.322021
H	 -0.487117	 2.096814	 1.320815

	symmetry c1
}
set optking {
	frozen_dihedral = ("
		6 3 5 9,
		1 2 3 6
	")
}

ee = energy('scf')
oeprop('DIPOLE', 'QUADRUPOLE', 'MULLIKEN_CHARGES')
f=open( 'psi4out.xyz', 'w' )
f.write( "16  " )
f.write( str(ee) + "\n" )
f.write( MOL.save_string_xyz() )
f.close()
--------------------------------------------------------------------------

    Molecular point group: c1

    Geometry (in Angstrom), charge = 0, multiplicity = 1:

       Center              X                  Y                   Z               Mass
    ------------   -----------------  -----------------  -----------------  -----------------
           H          3.022513086691    -0.177791534901    -0.376643471713     1.007825032070
           N          2.180588086691    -0.719889534901    -0.348277471713    14.003074004780
           C          1.013765086691     0.144325465099    -0.242706471713    12.000000000000
           H          2.248288086691    -1.317930534901     0.453394528287     1.007825032070
           C         -0.269748913309    -0.677312534901    -0.296667471713    12.000000000000
           H          1.035155086691     0.831366465099    -1.083272471713     1.007825032070
           H          1.013913086691     0.756907465099     0.662347528287     1.007825032070
           C         -1.535939913309     0.176917465099    -0.220445471713    12.000000000000
           H         -0.266157913309    -1.260793534901    -1.212968471713     1.007825032070
           H         -0.269565913309    -1.393402534901     0.524775528287     1.007825032070
           C         -1.583401913309     1.059484465099     1.026360528287    12.000000000000
           H         -2.409542913309    -0.471616534901    -0.234888471713     1.007825032070
           H         -1.606526913309     0.803383465099    -1.107302471713     1.007825032070
           H         -1.550029913309     0.460064465099     1.931512528287     1.007825032070
           H         -2.492524913309     1.652110465099     1.054840528287     1.007825032070
           H         -0.740779913309     1.744659465099     1.053634528287     1.007825032070

  Charge       = 0
  Multiplicity = 1
  Basis Set: 6-31G*
  Basis Set:

    Orbital Energies (a.u.)
    -----------------------

    Doubly Occupied:

       1A    -15.532148     2A    -11.238863     3A    -11.215171
       4A    -11.209649     5A    -11.208342     6A     -1.176479
       7A     -1.061325     8A     -0.953357     9A     -0.860063
      10A     -0.779246    11A     -0.656619    12A     -0.638922
      13A     -0.623173    14A     -0.565014    15A     -0.560763
      16A     -0.536428    17A     -0.501226    18A     -0.467181
      19A     -0.465945    20A     -0.460803    21A     -0.378990

  @DF-RHF Final Energy:  -212.31358753913392

   => Energetics <=

    Nuclear Repulsion Energy =            189.8228830372409845
    One-Electron Energy =                -662.0934848678937215
    Two-Electron Energy =                 259.9570142915184761
    DFT Exchange-Correlation Energy =       0.0000000000000000
    Empirical Dispersion Energy =           0.0000000000000000
    PCM Polarization Energy =               0.0000000000000000
    EFP Energy =                            0.0000000000000000
    Total Energy =                       -212.3135875391342324

  Mulliken Charges: (a.u.)
   Center  Symbol    Alpha    Beta     Spin     Total
       1     H     0.33262  0.33262  0.00000  0.33475
       2     N     3.92181  3.92181  0.00000 -0.84361
       3     C     3.06356  3.06356  0.00000 -0.12712
       4     H     0.33543  0.33543  0.00000  0.32914
       5     C     3.15181  3.15181  0.00000 -0.30361
       6     H     0.42140  0.42140  0.00000  0.15720
       7     H     0.43140  0.43140  0.00000  0.13720
       8     C     3.15601  3.15601  0.00000 -0.31202
       9     H     0.41132  0.41132  0.00000  0.17736
      10     H     0.42812  0.42812  0.00000  0.14377
      11     C     3.24371  3.24371  0.00000 -0.48742
      12     H     0.41943  0.41943  0.00000  0.16114
      13     H     0.42225  0.42225  0.00000  0.15550
      14     H     0.42236  0.42236  0.00000  0.15529
      15     H     0.41865  0.41865  0.00000  0.16270
      16     H     0.42013  0.42013  0.00000  0.15973

   Total alpha = 21.00000, Total beta = 21.00000, Total charge = -0.00000
