  ==> Input File <==

--------------------------------------------------------------------------
set {
	reference rhf
	basis 6-31G*
}

set_num_threads( 4 )
memory 2 gb

molecule MOL {
0 1

H	 3.893188	 0.355400	 -0.101367
N	 3.092854	 -0.246221	 -0.068770
C	 1.865559	 0.531981	 0.018834
H	 3.199514	 -0.826043	 0.741946
C	 0.645745	 -0.382037	 -0.029944
H	 1.841966	 1.207024	 -0.831236
H	 1.815756	 1.155410	 0.915079
C	 -0.679275	 0.379305	 0.025956
H	 0.698998	 -0.976915	 -0.937203
H	 0.693479	 -1.083846	 0.802235
C	 -1.899857	 -0.519256	 -0.181750
H	 -0.678399	 1.161105	 -0.732092
H	 -0.768147	 0.886276	 0.985606
C	 -3.221451	 0.246339	 -0.129170
H	 -1.813909	 -1.025817	 -1.140511
H	 -1.904839	 -1.299970	 0.575954
H	 -3.261329	 1.012854	 -0.898052
H	 -4.067239	 -0.417318	 -0.280191
H	 -3.353053	 0.736308	 0.831560

	symmetry c1
}
set optking {
	frozen_dihedral = ("
		12 8 5 9
	")
}

ee = optimize('scf')
oeprop('DIPOLE', 'QUADRUPOLE', 'MULLIKEN_CHARGES')
f=open( 'psi4out.xyz', 'w' )
f.write( "19  " )
f.write( str(ee) + "\n" )
f.write( MOL.save_string_xyz() )
f.close()
--------------------------------------------------------------------------

    Molecular point group: c1
  Charge       = 0
  Multiplicity = 1
  Basis Set: 6-31G*
  Basis Set:
  @DF-RHF Final Energy:  -251.35159404347547
    Total Energy =                       -251.3515940434754725
    Molecular point group: c1
  Basis Set: 6-31G*
  Basis Set:
  Basis Set: 6-31G*
  Basis Set:
  @DF-RHF Final Energy:  -251.35160122882377
    Total Energy =                       -251.3516012288237675
  Basis Set: 6-31G*
  Basis Set:
  Basis Set: 6-31G*
  Basis Set:
  @DF-RHF Final Energy:  -251.35161687050021
    Total Energy =                       -251.3516168705001519
  Basis Set: 6-31G*
  Basis Set:
  Basis Set: 6-31G*
  Basis Set:
  @DF-RHF Final Energy:  -251.35161939545296
    Total Energy =                       -251.3516193954532127
  Basis Set: 6-31G*
  Basis Set:
  Charge       = 0
  Multiplicity = 1
  Basis Set: 6-31G*
  Basis Set:

    Orbital Energies (a.u.)
    -----------------------

    Doubly Occupied:

       1A    -15.532533     2A    -11.239858     3A    -11.213995
       4A    -11.212746     5A    -11.209459     6A    -11.207510
       7A     -1.176650     8A     -1.072927     9A     -0.998409
      10A     -0.900250    11A     -0.813178    12A     -0.789369
      13A     -0.664492    14A     -0.641503    15A     -0.617595
      16A     -0.587660    17A     -0.565765    18A     -0.548573
      19A     -0.528888    20A     -0.499924    21A     -0.479907
      22A     -0.465314    23A     -0.460358    24A     -0.450215
      25A     -0.380984

  @DF-RHF Final Energy:  -251.35161965412431

   => Energetics <=

    Nuclear Repulsion Energy =            245.6377673235875818
    One-Electron Energy =                -825.4626500413685335
    Two-Electron Energy =                 328.4732630636566455
    DFT Exchange-Correlation Energy =       0.0000000000000000
    Empirical Dispersion Energy =           0.0000000000000000
    PCM Polarization Energy =               0.0000000000000000
    EFP Energy =                            0.0000000000000000
    Total Energy =                       -251.3516196541243062
    Molecular point group: c1
  Basis Set: 6-31G*
  Basis Set:

  -Total Gradient:
     Atom            X                  Y                   Z
    ------   -----------------  -----------------  -----------------
       1        0.000002968362    -0.000002020170     0.000003552606
       2        0.000004756783     0.000004323075     0.000013359087
       3       -0.000017126234    -0.000013314430    -0.000062692901
       4        0.000005179324    -0.000003109780     0.000001189477
       5        0.000654903738     0.001223369810    -0.000464770401
       6        0.000003383116     0.000010126610    -0.000000760911
       7       -0.000007215895    -0.000018266795    -0.000005001586
       8       -0.000634476663    -0.001074327827    -0.000735772994
       9       -0.000443583287    -0.000819516638     0.000511962015
      10       -0.000000243187    -0.000005227877     0.000026279903
      11        0.000012791766     0.000011945522    -0.000000240554
      12        0.000433273612     0.000683851907     0.000701503932
      13       -0.000017241970    -0.000001827764     0.000020758242
      14       -0.000000602322     0.000001203024    -0.000010018385
      15       -0.000005597250    -0.000000987996    -0.000001805047
      16        0.000008077486     0.000006304105     0.000000492052
      17        0.000001470351     0.000001009343     0.000004290306
      18       -0.000001073739     0.000001605336    -0.000004147832
      19        0.000000356014    -0.000005139455     0.000001822991

  **** Optimization is complete! (in 5 steps) ****
    Final optimized geometry and variables:
    Molecular point group: c1

    Geometry (in Angstrom), charge = 0, multiplicity = 1:

    H            3.894682686435     0.344754460245    -0.016573884071
    N            3.092770620442    -0.255099486938     0.008930051890
    C            1.865631531822     0.526095862315     0.066572768219
    H            3.184382420722    -0.826165047181     0.827660204258
    C            0.645337214131    -0.385679266300     0.005030717947
    H            1.858430352716     1.192768236331    -0.790336235534
    H            1.800747072582     1.158490409682     0.955594797184
    C           -0.680440826717     0.375113462295     0.059297783141
    H            0.701666408089    -0.982429776428    -0.900883467458
    H            0.686120765167    -1.090985652943     0.834827603832
    C           -1.901973483169    -0.524319871374    -0.135293993420
    H           -0.682110359065     1.156865985530    -0.698990299829
    H           -0.763327829483     0.887904970517     1.016546903828
    C           -3.224098614180     0.238283717680    -0.058947573672
    H           -1.829080394664    -1.025320608376    -1.097930382479
    H           -1.894090433857    -1.309291653634     0.618052940087
    H           -3.275561068292     1.010719474247    -0.821177697898
    H           -4.070627672485    -0.425816738805    -0.203963290480
    H           -3.343790299563     0.720402959400     0.907277614186

  Mulliken Charges: (a.u.)
   Center  Symbol    Alpha    Beta     Spin     Total
       1     H     0.33247  0.33247  0.00000  0.33506
       2     N     3.92192  3.92192  0.00000 -0.84384
       3     C     3.06028  3.06028  0.00000 -0.12057
       4     H     0.33534  0.33534  0.00000  0.32933
       5     C     3.15141  3.15141  0.00000 -0.30282
       6     H     0.42074  0.42074  0.00000  0.15853
       7     H     0.43474  0.43474  0.00000  0.13051
       8     C     3.15498  3.15498  0.00000 -0.30996
       9     H     0.41334  0.41334  0.00000  0.17332
      10     H     0.42762  0.42762  0.00000  0.14476
      11     C     3.15084  3.15084  0.00000 -0.30169
      12     H     0.42396  0.42396  0.00000  0.15209
      13     H     0.42471  0.42471  0.00000  0.15058
      14     C     3.23935  3.23935  0.00000 -0.47870
      15     H     0.42176  0.42176  0.00000  0.15647
      16     H     0.42316  0.42316  0.00000  0.15368
      17     H     0.42179  0.42179  0.00000  0.15642
      18     H     0.41935  0.41935  0.00000  0.16131
      19     H     0.42224  0.42224  0.00000  0.15551

   Total alpha = 25.00000, Total beta = 25.00000, Total charge = -0.00000
