  ==> Input File <==

--------------------------------------------------------------------------
set {
	reference rhf
	basis cc-pvtz
}

set_num_threads( 4 )
memory 2 gb

molecule MOL {
0 1

O	 -2.374409	 1.338660	 -0.336961
C	 -2.104891	 0.204655	 -0.107126
C	 -0.881910	 -0.448129	 -0.720509
C	 -2.949910	 -0.638219	 0.818225
C	 -0.039328	 -1.153642	 0.349608
H	 -0.294894	 0.331355	 -1.189474
H	 -1.178123	 -1.158933	 -1.484630
C	 1.209780	 -1.809487	 -0.235286
H	 0.232164	 -0.424973	 1.102976
H	 -0.639447	 -1.910982	 0.848198
C	 2.058613	 -2.578232	 0.778825
H	 1.822310	 -1.048174	 -0.711928
H	 0.908072	 -2.494242	 -1.023123
C	 2.717409	 -1.709388	 1.847459
H	 2.833380	 -3.113134	 0.238527
H	 1.445512	 -3.337309	 1.257617
H	 3.332477	 -0.937437	 1.396491
H	 3.355907	 -2.307473	 2.487291
H	 1.987584	 -1.221367	 2.481865
H	 -3.440322	 -1.417144	 0.243099
H	 -3.694377	 -0.025850	 1.303346
H	 -2.331085	 -1.129829	 1.560495

	symmetry c1
}
set optking {
	frozen_dihedral = ("
		6 3 2 1
	")
}

ee = optimize('scf')
oeprop('DIPOLE', 'QUADRUPOLE', 'MULLIKEN_CHARGES')
f=open( 'psi4out.xyz', 'w' )
f.write( "22  " )
f.write( str(ee) + "\n" )
f.write( MOL.save_string_xyz() )
f.close()
--------------------------------------------------------------------------

    Molecular point group: c1
  Charge       = 0
  Multiplicity = 1
  Basis Set: CC-PVTZ
  Basis Set:
  @DF-RHF Final Energy:  -348.21987848681550
    Total Energy =                       -348.2198784868161283
    Molecular point group: c1
  Basis Set: CC-PVTZ
  Basis Set:
  Basis Set: CC-PVTZ
  Basis Set:
  @DF-RHF Final Energy:  -348.22057233314393
    Total Energy =                       -348.2205723331443892
  Basis Set: CC-PVTZ
  Basis Set:
  Basis Set: CC-PVTZ
  Basis Set:
  @DF-RHF Final Energy:  -348.22152263971913
    Total Energy =                       -348.2215226397189554
  Basis Set: CC-PVTZ
  Basis Set:
  Basis Set: CC-PVTZ
  Basis Set:
  @DF-RHF Final Energy:  -348.22239521668013
    Total Energy =                       -348.2223952166802974
  Basis Set: CC-PVTZ
  Basis Set:
  @DF-RHF Final Energy:  -348.22253638187993
    Total Energy =                       -348.2225363818806727
  Basis Set: CC-PVTZ
  Basis Set:
  @DF-RHF Final Energy:  -348.22262976203399
    Total Energy =                       -348.2226297620337618
  Basis Set: CC-PVTZ
  Basis Set:
  Basis Set: CC-PVTZ
  Basis Set:
  @DF-RHF Final Energy:  -348.22268681797834
    Total Energy =                       -348.2226868179783423
  Basis Set: CC-PVTZ
  Basis Set:
  Basis Set: CC-PVTZ
  Basis Set:
  @DF-RHF Final Energy:  -348.22271952282341
    Total Energy =                       -348.2227195228238088
  Basis Set: CC-PVTZ
  Basis Set:
  Charge       = 0
  Multiplicity = 1
  Basis Set: CC-PVTZ
  Basis Set:

    Orbital Energies (a.u.)
    -----------------------

    Doubly Occupied:

       1A    -20.536759     2A    -11.319355     3A    -11.229649
       4A    -11.228405     5A    -11.226140     6A    -11.222580
       7A    -11.221187     8A    -11.212469     9A     -1.396702
      10A     -1.100149    11A     -1.047149    12A     -0.997543
      13A     -0.941550    14A     -0.863613    15A     -0.789508
      16A     -0.733572    17A     -0.663757    18A     -0.647818
      19A     -0.634467    20A     -0.617323    21A     -0.606385
      22A     -0.585372    23A     -0.559482    24A     -0.541944
      25A     -0.534058    26A     -0.526614    27A     -0.500213
      28A     -0.488918    29A     -0.473483    30A     -0.470374
      31A     -0.465533    32A     -0.398732

  @DF-RHF Final Energy:  -348.22271880849553

   => Energetics <=

    Nuclear Repulsion Energy =            373.4397418865705731
    One-Electron Energy =               -1211.7633225611762100
    Two-Electron Energy =                 490.1008618661102219
    DFT Exchange-Correlation Energy =       0.0000000000000000
    Empirical Dispersion Energy =           0.0000000000000000
    PCM Polarization Energy =               0.0000000000000000
    EFP Energy =                            0.0000000000000000
    Total Energy =                       -348.2227188084954150
    Molecular point group: c1
  Basis Set: CC-PVTZ
  Basis Set:

  -Total Gradient:
     Atom            X                  Y                   Z
    ------   -----------------  -----------------  -----------------
       1       -0.000510147044    -0.000432446850    -0.000667007762
       2        0.000791695627     0.000638556893     0.001135978399
       3       -0.000768431195    -0.000388486474    -0.001254414275
       4        0.000022755979    -0.000038428637    -0.000018443336
       5        0.000007275787    -0.000020185536     0.000034408710
       6        0.000464880993     0.000192497599     0.000794028875
       7        0.000026281193     0.000020196382    -0.000012178221
       8       -0.000056125009    -0.000050158867    -0.000005534478
       9        0.000047434518     0.000004306178     0.000076355052
      10        0.000024780476     0.000011344258    -0.000023117225
      11        0.000099020756     0.000023235231    -0.000063464243
      12       -0.000003085721    -0.000032472671    -0.000024252172
      13       -0.000014442278    -0.000015650873     0.000014383369
      14       -0.000045063221     0.000002839604     0.000007418691
      15        0.000027005404     0.000006793780     0.000007914532
      16        0.000013102606    -0.000001518435    -0.000023328180
      17        0.000003256515    -0.000021566646    -0.000002708018
      18       -0.000015167428    -0.000003391228     0.000015746559
      19       -0.000058933337     0.000052037011    -0.000001064912
      20       -0.000032639389     0.000004324655     0.000011869794
      21       -0.000014746869     0.000004790555     0.000023573838
      22       -0.000008708363     0.000043384071    -0.000026164998

  **** Optimization is complete! (in 9 steps) ****
    Final optimized geometry and variables:
    Molecular point group: c1

    Geometry (in Angstrom), charge = 0, multiplicity = 1:

    O           -2.098381627122     2.177645258680    -0.730660859497
    C           -1.829913957369     1.063368792482    -0.417825581006
    C           -0.594838851137     0.375599621386    -0.966435987711
    C           -2.729198384163     0.279225903511     0.511408681264
    C            0.267065222917    -0.345960111813     0.072681403674
    H           -0.014137075837     1.133051244639    -1.475330551141
    H           -0.932652942527    -0.337243202807    -1.715661115344
    C            1.531568980990    -0.937983371392    -0.547628089515
    H            0.532707623548     0.353345623144     0.858685013529
    H           -0.301463676287    -1.141864239705     0.543423979439
    C            2.406273625018    -1.733921883642     0.422251041356
    H            2.121411872195    -0.138898087587    -0.989281487789
    H            1.242659594755    -1.590067108515    -1.367353528678
    C            3.036353782041    -0.905917781531     1.539545012387
    H            3.198249126924    -2.210857910842    -0.146436804523
    H            1.819487474245    -2.539170707566     0.856446271743
    H            3.625934371749    -0.089928013247     1.134395779351
    H            3.693895434246    -1.517956584559     2.145902664855
    H            2.290956520672    -0.478991390877     2.199764030151
    H           -2.914118444564    -0.716825013565     0.125723644867
    H           -3.662040270195     0.807005875628     0.636737009778
    H           -2.251297988836     0.169157339744     1.478352256406

  Mulliken Charges: (a.u.)
   Center  Symbol    Alpha    Beta     Spin     Total
       1     O     4.17212  4.17212  0.00000 -0.34425
       2     C     2.85884  2.85884  0.00000  0.28231
       3     C     3.09605  3.09605  0.00000 -0.19210
       4     C     3.16555  3.16555  0.00000 -0.33110
       5     C     3.11004  3.11004  0.00000 -0.22009
       6     H     0.43814  0.43814  0.00000  0.12372
       7     H     0.44607  0.44607  0.00000  0.10786
       8     C     3.09710  3.09710  0.00000 -0.19420
       9     H     0.44410  0.44410  0.00000  0.11179
      10     H     0.45012  0.45012  0.00000  0.09976
      11     C     3.09029  3.09029  0.00000 -0.18057
      12     H     0.44912  0.44912  0.00000  0.10176
      13     H     0.44820  0.44820  0.00000  0.10359
      14     C     3.15216  3.15216  0.00000 -0.30431
      15     H     0.44691  0.44691  0.00000  0.10618
      16     H     0.45450  0.45450  0.00000  0.09099
      17     H     0.45326  0.45326  0.00000  0.09347
      18     H     0.44541  0.44541  0.00000  0.10919
      19     H     0.45426  0.45426  0.00000  0.09149
      20     H     0.44848  0.44848  0.00000  0.10305
      21     H     0.43197  0.43197  0.00000  0.13606
      22     H     0.44730  0.44730  0.00000  0.10539

   Total alpha = 32.00000, Total beta = 32.00000, Total charge = -0.00000
