  ==> Input File <==

--------------------------------------------------------------------------
set {
	reference rhf
	basis 6-31G*
}

set_num_threads( 4 )
memory 2 gb

molecule MOL {
0 1

H	 -3.420663	 1.227371	 -1.044276
O	 -3.452007	 0.283848	 -0.965577
C	 -3.181085	 -0.079926	 0.364119
C	 -1.765924	 0.277073	 0.805136
H	 -3.327791	 -1.152017	 0.410903
H	 -3.905698	 0.375695	 1.036898
C	 -1.199385	 1.509931	 0.099719
H	 -1.759997	 0.435789	 1.883902
H	 -1.123313	 -0.582431	 0.622042
C	 0.212122	 1.872669	 0.565816
H	 -1.866332	 2.351195	 0.261478
H	 -1.189695	 1.330465	 -0.974102
C	 0.774777	 3.104161	 -0.148979
H	 0.197485	 2.040959	 1.640005
H	 0.877425	 1.026529	 0.398408
C	 2.220809	 3.455146	 0.219740
H	 0.134954	 3.961496	 0.054242
H	 0.723738	 2.936597	 -1.222820
C	 2.417694	 3.896711	 1.671174
H	 2.559002	 4.253906	 -0.435926
H	 2.862332	 2.601054	 0.011946
H	 1.778803	 4.742378	 1.911599
H	 3.445423	 4.200259	 1.845728
H	 2.190800	 3.100681	 2.372614

	symmetry c1
}
set optking {
	frozen_dihedral = ("
		7 4 3 2
	")
}

ee = optimize('scf')
oeprop('DIPOLE', 'QUADRUPOLE', 'MULLIKEN_CHARGES')
f=open( 'psi4out.xyz', 'w' )
f.write( "24  " )
f.write( str(ee) + "\n" )
f.write( MOL.save_string_xyz() )
f.close()
--------------------------------------------------------------------------

    Molecular point group: c1
  Charge       = 0
  Multiplicity = 1
  Basis Set: 6-31G*
  Basis Set:
  @DF-RHF Final Energy:  -349.24197965093100
    Total Energy =                       -349.2419796509310572
    Molecular point group: c1
  Basis Set: 6-31G*
  Basis Set:
  Basis Set: 6-31G*
  Basis Set:
  @DF-RHF Final Energy:  -349.24241651873649
    Total Energy =                       -349.2424165187366611
  Basis Set: 6-31G*
  Basis Set:
  Basis Set: 6-31G*
  Basis Set:
  @DF-RHF Final Energy:  -349.24285333691012
    Total Energy =                       -349.2428533369101729
  Basis Set: 6-31G*
  Basis Set:
  Basis Set: 6-31G*
  Basis Set:
  @DF-RHF Final Energy:  -349.24285846587975
    Total Energy =                       -349.2428584658796353
  Basis Set: 6-31G*
  Basis Set:
  Charge       = 0
  Multiplicity = 1
  Basis Set: 6-31G*
  Basis Set:

    Orbital Energies (a.u.)
    -----------------------

    Doubly Occupied:

       1A    -20.552340     2A    -11.267836     3A    -11.218544
       4A    -11.216317     5A    -11.216202     6A    -11.215711
       7A    -11.214699     8A    -11.209089     9A     -1.359670
      10A     -1.091094    11A     -1.048265    12A     -0.986043
      13A     -0.919540    14A     -0.854081    15A     -0.794083
      16A     -0.779524    17A     -0.693510    18A     -0.649493
      19A     -0.625394    20A     -0.608948    21A     -0.605991
      22A     -0.588040    23A     -0.560981    24A     -0.540710
      25A     -0.520347    26A     -0.512393    27A     -0.492304
      28A     -0.485499    29A     -0.467786    30A     -0.461599
      31A     -0.455828    32A     -0.444905    33A     -0.421664

  @DF-RHF Final Energy:  -349.24285919509634

   => Energetics <=

    Nuclear Repulsion Energy =            385.2981519437122415
    One-Electron Energy =               -1236.9251647144210438
    Two-Electron Energy =                 502.3841535756123449
    DFT Exchange-Correlation Energy =       0.0000000000000000
    Empirical Dispersion Energy =           0.0000000000000000
    PCM Polarization Energy =               0.0000000000000000
    EFP Energy =                            0.0000000000000000
    Total Energy =                       -349.2428591950964574
    Molecular point group: c1
  Basis Set: 6-31G*
  Basis Set:

  -Total Gradient:
     Atom            X                  Y                   Z
    ------   -----------------  -----------------  -----------------
       1        0.000029286578    -0.000010367321     0.000097690270
       2       -0.001556702887     0.003951979253     0.001535301580
       3        0.002864121171    -0.006539395963    -0.003387853776
       4       -0.002873738570     0.005101302577     0.004986580978
       5       -0.000085185901     0.000022223290    -0.000180788130
       6       -0.000064988664    -0.000041038130    -0.000023788698
       7        0.001538846375    -0.002565381616    -0.003066450656
       8        0.000079760837     0.000049148861    -0.000009342909
       9        0.000047784831    -0.000002275500     0.000013803720
      10        0.000013347953     0.000080665329     0.000027520450
      11        0.000053853515    -0.000056607297     0.000012291512
      12       -0.000112302328    -0.000015031179     0.000001467426
      13        0.000047830841    -0.000026407208     0.000008232962
      14       -0.000033093101     0.000017033304    -0.000025796138
      15       -0.000006229149     0.000010374049     0.000026782286
      16        0.000019931920    -0.000005010659    -0.000036206974
      17        0.000011698986    -0.000006224063     0.000022319907
      18       -0.000023348643     0.000011514560    -0.000009169316
      19        0.000002151082     0.000000476203     0.000002186294
      20        0.000017114077     0.000002320856     0.000001592076
      21        0.000012270520     0.000000038191     0.000003175767
      22        0.000000456060     0.000002055146     0.000000830685
      23        0.000001164320    -0.000000308348    -0.000000793151
      24        0.000015970179     0.000018915668     0.000000413839

  **** Optimization is complete! (in 5 steps) ****
    Final optimized geometry and variables:
    Molecular point group: c1

    Geometry (in Angstrom), charge = 0, multiplicity = 1:

    H           -3.030279175392    -0.582212306071    -1.342244124924
    O           -2.965403311183    -1.523266409062    -1.271511614582
    C           -2.638355687774    -1.870152335671     0.049385811719
    C           -1.208106183741    -1.488793013466     0.472408726964
    H           -2.776599367307    -2.940193389790     0.120270829333
    H           -3.353963075900    -1.410962978321     0.729825712516
    C           -0.644256012653    -0.249647032207    -0.226744210239
    H           -1.190060311053    -1.352239233566     1.551024299783
    H           -0.540491128758    -2.320390422292     0.258798723134
    C            0.760501976406     0.115159661367     0.258689783663
    H           -1.303464028316     0.604577169616    -0.063863710775
    H           -0.622804565455    -0.426975097793    -1.296900898598
    C            1.339769732544     1.335798275300    -0.461537875601
    H            0.730601600901     0.293815913106     1.330363105537
    H            1.422116180020    -0.736481822887     0.108220577649
    C            2.785391756076     1.677247159361    -0.082233671253
    H            0.706406666908     2.201120834312    -0.271172056037
    H            1.297306694400     1.159226241080    -1.534322668223
    C            2.972414027150     2.130677683569     1.366815851782
    H            3.136936862675     2.466513719454    -0.742221976904
    H            3.420644136245     0.815350893467    -0.276018841672
    H            2.339538751669     2.984728369710     1.593182586427
    H            4.001260787264     2.426124014240     1.548175452582
    H            2.731378491798     1.343616364406     2.073558838817

  Mulliken Charges: (a.u.)
   Center  Symbol    Alpha    Beta     Spin     Total
       1     H     0.27941  0.27941  0.00000  0.44117
       2     O     4.36962  4.36962  0.00000 -0.73924
       3     C     2.99595  2.99595  0.00000  0.00811
       4     C     3.16841  3.16841  0.00000 -0.33682
       5     H     0.41384  0.41384  0.00000  0.17232
       6     H     0.43135  0.43135  0.00000  0.13731
       7     C     3.16291  3.16291  0.00000 -0.32581
       8     H     0.42186  0.42186  0.00000  0.15629
       9     H     0.41838  0.41838  0.00000  0.16324
      10     C     3.15322  3.15322  0.00000 -0.30643
      11     H     0.43123  0.43123  0.00000  0.13755
      12     H     0.41124  0.41124  0.00000  0.17751
      13     C     3.15268  3.15268  0.00000 -0.30535
      14     H     0.42162  0.42162  0.00000  0.15676
      15     H     0.42254  0.42254  0.00000  0.15492
      16     C     3.15247  3.15247  0.00000 -0.30494
      17     H     0.42509  0.42509  0.00000  0.14982
      18     H     0.42161  0.42161  0.00000  0.15679
      19     C     3.24123  3.24123  0.00000 -0.48245
      20     H     0.42081  0.42081  0.00000  0.15837
      21     H     0.42287  0.42287  0.00000  0.15425
      22     H     0.42255  0.42255  0.00000  0.15490
      23     H     0.41902  0.41902  0.00000  0.16196
      24     H     0.42011  0.42011  0.00000  0.15978

   Total alpha = 33.00000, Total beta = 33.00000, Total charge = -0.00000
