  ==> Input File <==

--------------------------------------------------------------------------
set {
	reference rhf
	basis cc-pvtz
}

set_num_threads( 4 )
memory 2 gb

molecule MOL {
0 1

H	 1.126665	 -0.464922	 -0.554184
C	 0.848385	 0.440008	 0.000011
C	 -0.623497	 0.751021	 0.000090
O	 1.679230	 1.086070	 0.538105
C	 -1.523725	 -0.474323	 -0.000013
H	 -0.813143	 1.382932	 -0.864897
H	 -0.813071	 1.382716	 0.865253
H	 -1.342980	 -1.087348	 -0.873016
H	 -2.565269	 -0.177464	 0.000070
H	 -1.342898	 -1.087564	 0.872820

	symmetry c1
}
set optking {
	frozen_dihedral = ("
		4 2 3 6
	")
}

ee = optimize('scf')
oeprop('DIPOLE', 'QUADRUPOLE', 'MULLIKEN_CHARGES')
f=open( 'psi4out.xyz', 'w' )
f.write( "10  " )
f.write( str(ee) + "\n" )
f.write( MOL.save_string_xyz() )
f.close()
--------------------------------------------------------------------------

    Molecular point group: c1
  Charge       = 0
  Multiplicity = 1
  Basis Set: CC-PVTZ
  Basis Set:
  @DF-RHF Final Energy:  -192.02250121945190
    Total Energy =                       -192.0225012194518399
    Molecular point group: c1
  Basis Set: CC-PVTZ
  Basis Set:
  Basis Set: CC-PVTZ
  Basis Set:
  @DF-RHF Final Energy:  -192.02195741742054
    Total Energy =                       -192.0219574174206514
  Basis Set: CC-PVTZ
  Basis Set:
  Basis Set: CC-PVTZ
  Basis Set:
  @DF-RHF Final Energy:  -192.02265644564920
    Total Energy =                       -192.0226564456490905
  Basis Set: CC-PVTZ
  Basis Set:
  Basis Set: CC-PVTZ
  Basis Set:
  @DF-RHF Final Energy:  -192.02282609083835
    Total Energy =                       -192.0228260908384357
  Basis Set: CC-PVTZ
  Basis Set:
  Charge       = 0
  Multiplicity = 1
  Basis Set: CC-PVTZ
  Basis Set:

    Orbital Energies (a.u.)
    -----------------------

    Doubly Occupied:

       1A    -20.553050     2A    -11.323306     3A    -11.238384
       4A    -11.231271     5A     -1.408515     6A     -1.068173
       7A     -0.904187     8A     -0.797302     9A     -0.669460
      10A     -0.643932    11A     -0.629008    12A     -0.560678
      13A     -0.546429    14A     -0.522696    15A     -0.495073
      16A     -0.415103

  @DF-RHF Final Energy:  -192.02282650039587

   => Energetics <=

    Nuclear Repulsion Energy =            117.2608307726735575
    One-Electron Energy =                -492.5541783072653175
    Two-Electron Energy =                 183.2705210341958946
    DFT Exchange-Correlation Energy =       0.0000000000000000
    Empirical Dispersion Energy =           0.0000000000000000
    PCM Polarization Energy =               0.0000000000000000
    EFP Energy =                            0.0000000000000000
    Total Energy =                       -192.0228265003958654
    Molecular point group: c1
  Basis Set: CC-PVTZ
  Basis Set:

  -Total Gradient:
     Atom            X                  Y                   Z
    ------   -----------------  -----------------  -----------------
       1       -0.000027190100    -0.000008583945     0.000000155632
       2       -0.000174378791    -0.000658665258     0.001378056702
       3       -0.000154993789    -0.000831691806    -0.001039642784
       4        0.000104863533     0.000607351009    -0.000881411850
       5        0.000037912106     0.000022230494     0.000003959750
       6        0.000207281295     0.000843620831     0.000530428334
       7        0.000002625156     0.000007761969     0.000009120151
       8        0.000002940805    -0.000002832584     0.000003990286
       9       -0.000000856053     0.000021644040    -0.000000582149
      10        0.000001795838    -0.000000834751    -0.000004074070

  **** Optimization is complete! (in 5 steps) ****
    Final optimized geometry and variables:
    Molecular point group: c1

    Geometry (in Angstrom), charge = 0, multiplicity = 1:

    H            1.025798341974    -0.920429747835    -0.693708900317
    C            0.750497961529    -0.015820873463    -0.135297111734
    C           -0.720270471670     0.313872239548    -0.117468658720
    O            1.587987043021     0.641185547350     0.377932845740
    C           -1.615043479314    -0.920910694424    -0.136181330234
    H           -0.907580928622     0.927350006879    -0.995781426390
    H           -0.912546306662     0.937802156832     0.745537891459
    H           -1.422835507057    -1.534423195132    -1.009368171342
    H           -2.658715542829    -0.635642152565    -0.157077788330
    H           -1.456494321722    -1.534457684944     0.743456368814

  Mulliken Charges: (a.u.)
   Center  Symbol    Alpha    Beta     Spin     Total
       1     H     0.46619  0.46619  0.00000  0.06761
       2     C     2.90185  2.90185  0.00000  0.19631
       3     C     3.08179  3.08179  0.00000 -0.16358
       4     O     4.16391  4.16391  0.00000 -0.32783
       5     C     3.15241  3.15241  0.00000 -0.30482
       6     H     0.44675  0.44675  0.00000  0.10650
       7     H     0.44010  0.44010  0.00000  0.11980
       8     H     0.45363  0.45363  0.00000  0.09274
       9     H     0.44408  0.44408  0.00000  0.11185
      10     H     0.44929  0.44929  0.00000  0.10142

   Total alpha = 16.00000, Total beta = 16.00000, Total charge = -0.00000
