  ==> Input File <==

--------------------------------------------------------------------------
set {
	reference rhf
	basis cc-pvtz
}

set_num_threads( 4 )
memory 2 gb

molecule MOL {
0 1

O	 -0.694481	 1.313155	 -0.204815
C	 -0.862519	 0.151932	 -0.046791
C	 -2.171428	 -0.477048	 0.339095
O	 0.085519	 -0.757083	 -0.192238
H	 -2.467997	 -1.191667	 -0.417688
H	 -2.923379	 0.287970	 0.444097
H	 -2.053854	 -1.015120	 1.270901
C	 0.139376	 -1.502500	 -1.402995
C	 0.907684	 -0.765795	 -2.480431
H	 -0.864770	 -1.727929	 -1.726552
H	 0.637697	 -2.422358	 -1.135997
H	 0.984916	 -1.390623	 -3.363084
H	 0.404305	 0.150740	 -2.756033
H	 1.909256	 -0.529040	 -2.142210

	symmetry c1
}
set optking {
	frozen_dihedral = ("
		8 4 2 1
	")
}

ee = optimize('scf')
oeprop('DIPOLE', 'QUADRUPOLE', 'MULLIKEN_CHARGES')
f=open( 'psi4out.xyz', 'w' )
f.write( "14  " )
f.write( str(ee) + "\n" )
f.write( MOL.save_string_xyz() )
f.close()
--------------------------------------------------------------------------

    Molecular point group: c1
  Charge       = 0
  Multiplicity = 1
  Basis Set: CC-PVTZ
  Basis Set:
  @DF-RHF Final Energy:  -305.96925785785703
    Total Energy =                       -305.9692578578571442
    Molecular point group: c1
  Basis Set: CC-PVTZ
  Basis Set:
  Basis Set: CC-PVTZ
  Basis Set:
  @DF-RHF Final Energy:  -305.96766998017665
    Total Energy =                       -305.9676699801768791
  Basis Set: CC-PVTZ
  Basis Set:
  Basis Set: CC-PVTZ
  Basis Set:
  @DF-RHF Final Energy:  -305.97050656826741
    Total Energy =                       -305.9705065682677514
  Basis Set: CC-PVTZ
  Basis Set:
  Basis Set: CC-PVTZ
  Basis Set:
  @DF-RHF Final Energy:  -305.97122865888974
    Total Energy =                       -305.9712286588902543
  Basis Set: CC-PVTZ
  Basis Set:
  @DF-RHF Final Energy:  -305.97126603788439
    Total Energy =                       -305.9712660378842770
  Basis Set: CC-PVTZ
  Basis Set:
  @DF-RHF Final Energy:  -305.97127892095932
    Total Energy =                       -305.9712789209593211
  Basis Set: CC-PVTZ
  Basis Set:
  Basis Set: CC-PVTZ
  Basis Set:
  @DF-RHF Final Energy:  -305.97128341234946
    Total Energy =                       -305.9712834123491803
  Basis Set: CC-PVTZ
  Basis Set:
  Basis Set: CC-PVTZ
  Basis Set:
  @DF-RHF Final Energy:  -305.97128467242010
    Total Energy =                       -305.9712846724199835
  Basis Set: CC-PVTZ
  Basis Set:
  Charge       = 0
  Multiplicity = 1
  Basis Set: CC-PVTZ
  Basis Set:

    Orbital Energies (a.u.)
    -----------------------

    Doubly Occupied:

       1A    -20.576514     2A    -20.544314     3A    -11.370604
       4A    -11.295317     5A    -11.236668     6A    -11.219043
       7A     -1.460617     8A     -1.369707     9A     -1.046865
      10A     -1.009182    11A     -0.886124    12A     -0.769847
      13A     -0.694402    14A     -0.682873    15A     -0.673015
      16A     -0.605942    17A     -0.597189    18A     -0.584533
      19A     -0.552155    20A     -0.543975    21A     -0.519725
      22A     -0.486607    23A     -0.455975    24A     -0.439882

  @DF-RHF Final Energy:  -305.97128526750879

   => Energetics <=

    Nuclear Repulsion Energy =            248.2722342254131149
    One-Electron Energy =                -909.2448822917256166
    Two-Electron Energy =                 355.0013627988035978
    DFT Exchange-Correlation Energy =       0.0000000000000000
    Empirical Dispersion Energy =           0.0000000000000000
    PCM Polarization Energy =               0.0000000000000000
    EFP Energy =                            0.0000000000000000
    Total Energy =                       -305.9712852675089607
    Molecular point group: c1
  Basis Set: CC-PVTZ
  Basis Set:

  -Total Gradient:
     Atom            X                  Y                   Z
    ------   -----------------  -----------------  -----------------
       1        0.000158540938     0.000078990532     0.000702765783
       2       -0.000378601394    -0.000338976328    -0.000933441548
       3       -0.000006612406    -0.000008223479     0.000003655619
       4        0.000594515205     0.000654962584     0.000027434912
       5        0.000001611382     0.000006872603    -0.000002959406
       6        0.000005063695     0.000004106458    -0.000000006707
       7       -0.000002429109    -0.000001621823     0.000002508026
       8       -0.000367333037    -0.000432393229     0.000163555462
       9       -0.000001509069     0.000012530688     0.000025126680
      10       -0.000002547832     0.000002606818     0.000009142586
      11        0.000002660433     0.000021489220     0.000013888743
      12       -0.000007079562    -0.000003497422     0.000003797147
      13        0.000004992457     0.000000300685    -0.000014435961
      14       -0.000001271702     0.000002852695    -0.000001031335

  **** Optimization is complete! (in 9 steps) ****
    Final optimized geometry and variables:
    Molecular point group: c1

    Geometry (in Angstrom), charge = 0, multiplicity = 1:

    O           -0.212428380835     1.618161233433     0.497329344681
    C           -0.448290807459     0.471890737041     0.616003117743
    C           -1.789739868125    -0.072011572026     1.027457173125
    O            0.508224156169    -0.466142356520     0.475707132620
    H           -2.119180034526    -0.848034284218     0.349071769056
    H           -2.516328132888     0.723601362415     1.060158847402
    H           -1.689854451087    -0.520768879175     2.008470651622
    C            0.600852150963    -1.169639058003    -0.752850838943
    C            1.329882338672    -0.370850930209    -1.814501441655
    H           -0.389549690014    -1.451132234847    -1.094880728070
    H            1.137096172124    -2.077042054595    -0.520095263234
    H            1.418127332518    -0.963497545481    -2.718634312073
    H            0.801672636644     0.542869941105    -2.053324299679
    H            2.322445600211    -0.108314214751    -1.472938031009

  Mulliken Charges: (a.u.)
   Center  Symbol    Alpha    Beta     Spin     Total
       1     O     4.17120  4.17120  0.00000 -0.34239
       2     C     2.80285  2.80285  0.00000  0.39431
       3     C     3.14251  3.14251  0.00000 -0.28502
       4     O     4.17158  4.17158  0.00000 -0.34316
       5     H     0.45142  0.45142  0.00000  0.09716
       6     H     0.43686  0.43686  0.00000  0.12628
       7     H     0.44337  0.44337  0.00000  0.11327
       8     C     2.98605  2.98605  0.00000  0.02789
       9     C     3.13447  3.13447  0.00000 -0.26893
      10     H     0.46532  0.46532  0.00000  0.06936
      11     H     0.44428  0.44428  0.00000  0.11145
      12     H     0.45408  0.45408  0.00000  0.09183
      13     H     0.44896  0.44896  0.00000  0.10209
      14     H     0.44706  0.44706  0.00000  0.10587

   Total alpha = 24.00000, Total beta = 24.00000, Total charge = -0.00000
