  ==> Input File <==

--------------------------------------------------------------------------
set {
	reference rhf
	basis 6-31G*
}

set_num_threads( 4 )
memory 2 gb

molecule MOL {
0 1

H	 -1.070890	 -1.366565	 0.180696
O	 -1.422729	 -0.573567	 -0.196946
C	 -0.731407	 0.539437	 0.309156
C	 0.680193	 0.672443	 -0.251532
H	 -1.319765	 1.404033	 0.030086
H	 -0.700012	 0.506517	 1.397677
C	 0.978796	 2.051780	 -0.839725
H	 1.389374	 0.451623	 0.540898
H	 0.814544	 -0.086187	 -1.019627
H	 0.924744	 2.826695	 -0.080923
H	 1.977171	 2.087248	 -1.262756
H	 0.277185	 2.304275	 -1.631086

	symmetry c1
}
set optking {
	frozen_dihedral = ("
		8 4 3 2
	")
}

ee = optimize('scf')
oeprop('DIPOLE', 'QUADRUPOLE', 'MULLIKEN_CHARGES')
f=open( 'psi4out.xyz', 'w' )
f.write( "12  " )
f.write( str(ee) + "\n" )
f.write( MOL.save_string_xyz() )
f.close()
--------------------------------------------------------------------------

    Molecular point group: c1
  Charge       = 0
  Multiplicity = 1
  Basis Set: 6-31G*
  Basis Set:
  @DF-RHF Final Energy:  -193.10386686344779
    Total Energy =                       -193.1038668634477062
    Molecular point group: c1
  Basis Set: 6-31G*
  Basis Set:
  Basis Set: 6-31G*
  Basis Set:
  @DF-RHF Final Energy:  -193.10432346404801
    Total Energy =                       -193.1043234640480080
  Basis Set: 6-31G*
  Basis Set:
  Basis Set: 6-31G*
  Basis Set:
  @DF-RHF Final Energy:  -193.10441164420121
    Total Energy =                       -193.1044116442011784
  Basis Set: 6-31G*
  Basis Set:
  Basis Set: 6-31G*
  Basis Set:
  @DF-RHF Final Energy:  -193.10441318608841
    Total Energy =                       -193.1044131860883510
  Basis Set: 6-31G*
  Basis Set:
  Basis Set: 6-31G*
  Basis Set:
  @DF-RHF Final Energy:  -193.10441493085250
    Total Energy =                       -193.1044149308525562
  Basis Set: 6-31G*
  Basis Set:
  Charge       = 0
  Multiplicity = 1
  Basis Set: 6-31G*
  Basis Set:

    Orbital Energies (a.u.)
    -----------------------

    Doubly Occupied:

       1A    -20.552356     2A    -11.267575     3A    -11.218581
       4A    -11.214288     5A     -1.358581     6A     -1.049438
       7A     -0.916812     8A     -0.819252     9A     -0.688274
      10A     -0.627917    11A     -0.611891    12A     -0.581629
      13A     -0.534114    14A     -0.511882    15A     -0.490692
      16A     -0.465431    17A     -0.427378

  @DF-RHF Final Energy:  -193.10441522795657

   => Energetics <=

    Nuclear Repulsion Energy =            130.8390707651568619
    One-Electron Energy =                -521.2147862381893901
    Two-Electron Energy =                 197.2713002450759916
    DFT Exchange-Correlation Energy =       0.0000000000000000
    Empirical Dispersion Energy =           0.0000000000000000
    PCM Polarization Energy =               0.0000000000000000
    EFP Energy =                            0.0000000000000000
    Total Energy =                       -193.1044152279565367
    Molecular point group: c1
  Basis Set: 6-31G*
  Basis Set:

  -Total Gradient:
     Atom            X                  Y                   Z
    ------   -----------------  -----------------  -----------------
       1       -0.000003780142    -0.000012290533    -0.000002732007
       2       -0.000784614143     0.001211799772    -0.001655666772
       3        0.001070213936    -0.000983858651     0.002418642759
       4       -0.000358248080    -0.002923519529    -0.001457068369
       5        0.000003056457     0.000006486222     0.000005628030
       6        0.000006488380    -0.000007551275    -0.000004271457
       7        0.000004095444    -0.000009529136     0.000001795414
       8        0.000066206992     0.002716954405     0.000692116459
       9       -0.000002243515     0.000003101324     0.000000420339
      10        0.000002545823    -0.000002947414     0.000004668014
      11       -0.000003945275     0.000003189282    -0.000000733770
      12        0.000000224125    -0.000001834468    -0.000002798642

  **** Optimization is complete! (in 6 steps) ****
    Final optimized geometry and variables:
    Molecular point group: c1

    Geometry (in Angstrom), charge = 0, multiplicity = 1:

    H           -0.878263001197    -1.996864294945     0.374273103943
    O           -1.288736986494    -1.199733264407     0.069072914244
    C           -0.574951953032    -0.089897102504     0.552582474950
    C            0.846147730246     0.023989686227    -0.030427342830
    H           -1.165583967406     0.769205591823     0.261275103111
    H           -0.545562818607    -0.100872087191     1.639879863201
    C            1.143512337746     1.409114186800    -0.608816142383
    H            1.585593219248    -0.191501947896     0.736997246157
    H            0.955544453041    -0.723752729086    -0.809112072804
    H            1.035371387643     2.182074567722     0.147324469622
    H            2.157132793471     1.464557623057    -0.992481296343
    H            0.464271960601     1.644457904236    -1.422535888155

  Mulliken Charges: (a.u.)
   Center  Symbol    Alpha    Beta     Spin     Total
       1     H     0.28359  0.28359  0.00000  0.43281
       2     O     4.36969  4.36969  0.00000 -0.73937
       3     C     2.99547  2.99547  0.00000  0.00906
       4     C     3.17375  3.17375  0.00000 -0.34750
       5     H     0.41380  0.41380  0.00000  0.17240
       6     H     0.42906  0.42906  0.00000  0.14187
       7     C     3.24463  3.24463  0.00000 -0.48927
       8     H     0.42181  0.42181  0.00000  0.15639
       9     H     0.41206  0.41206  0.00000  0.17587
      10     H     0.42135  0.42135  0.00000  0.15730
      11     H     0.41824  0.41824  0.00000  0.16353
      12     H     0.41655  0.41655  0.00000  0.16691

   Total alpha = 17.00000, Total beta = 17.00000, Total charge = -0.00000
