                              Psi4 1.0.54 Driver

  ==> Input File <==

--------------------------------------------------------------------------
set {
	reference rhf
	basis cc-pvtz
}

set_num_threads( 4 )
memory 2 gb

molecule MOL {
0 1

H	 -2.123894	 -0.667238	 -0.609809
O	 -2.041679	 -0.058866	 0.103463
C	 -0.959304	 0.780994	 -0.094939
C	 0.354905	 0.037902	 -0.006215
H	 -0.985899	 1.279578	 -1.057596
H	 -0.969809	 1.529522	 0.682889
F	 1.295134	 0.800920	 0.522523
F	 0.228156	 -1.025659	 0.759533
F	 0.786743	 -0.360166	 -1.178832

	symmetry c1
}
set optking {
	frozen_dihedral = ("
		7 4 3 5
	")
}

ee,wfn = optimize('scf', return_wfn=True)
oeprop( wfn, 'DIPOLE', 'QUADRUPOLE', 'MULLIKEN_CHARGES')
f=open( 'psi4out.xyz', 'w' )
f.write( "9  " )
f.write( str(ee) + "\n" )
f.write( MOL.save_string_xyz() )
f.close()
--------------------------------------------------------------------------

    Molecular point group: c1
  Charge       = 0
  Multiplicity = 1
  Basis Set: CC-PVTZ
  Basis Set:
  @DF-RHF Final Energy:  -450.84170660264760
    Total Energy =                       -450.8417066026478324
    Molecular point group: c1
  Basis Set: CC-PVTZ
  Basis Set:
  Basis Set: CC-PVTZ
  Basis Set:
  @DF-RHF Final Energy:  -450.84219735954201
    Total Energy =                       -450.8421973595420127
  Basis Set: CC-PVTZ
  Basis Set:
  Basis Set: CC-PVTZ
  Basis Set:
  @DF-RHF Final Energy:  -450.84243109570349
    Total Energy =                       -450.8424310957037164
  Basis Set: CC-PVTZ
  Basis Set:
  Basis Set: CC-PVTZ
  Basis Set:
  @DF-RHF Final Energy:  -450.84244712862574
    Total Energy =                       -450.8424471286256221
  Basis Set: CC-PVTZ
  Basis Set:
  Basis Set: CC-PVTZ
  Basis Set:
  @DF-RHF Final Energy:  -450.84244958563352
    Total Energy =                       -450.8424495856332896
  Basis Set: CC-PVTZ
  Basis Set:
  Charge       = 0
  Multiplicity = 1
  Basis Set: CC-PVTZ
  Basis Set:

    Orbital Energies (a.u.)
    -----------------------

    Doubly Occupied:

       1A    -26.338228     2A    -26.337063     3A    -26.333743
       4A    -20.582576     5A    -11.493503     6A    -11.310353
       7A     -1.746592     8A     -1.643270     9A     -1.640742
      10A     -1.405405    11A     -1.046574    12A     -0.929109
      13A     -0.836734    14A     -0.833402    15A     -0.809141
      16A     -0.733405    17A     -0.718792    18A     -0.702917
      19A     -0.670196    20A     -0.663907    21A     -0.647114
      22A     -0.631714    23A     -0.613609    24A     -0.532667
      25A     -0.483936

  @DF-RHF Final Energy:  -450.84244983313096

   => Energetics <=

    Nuclear Repulsion Energy =            276.9086969042876376
    One-Electron Energy =               -1176.1329186285852302
    Two-Electron Energy =                 448.3817718911661814
    DFT Exchange-Correlation Energy =       0.0000000000000000
    Empirical Dispersion Energy =           0.0000000000000000
    PCM Polarization Energy =               0.0000000000000000
    EFP Energy =                            0.0000000000000000
    Total Energy =                       -450.8424498331314680
    Molecular point group: c1
  Basis Set: CC-PVTZ
  Basis Set:

  -Total Gradient:
     Atom            X                  Y                   Z
    ------   -----------------  -----------------  -----------------
       1        0.000011231622    -0.000015306805    -0.000005198156
       2       -0.000027208958     0.000009070230     0.000019241931
       3        0.002589087748     0.005016126381     0.003876114245
       4        0.001005513781     0.000970946548    -0.005963408682
       5       -0.002401339182    -0.004518533320    -0.002138064092
       6       -0.000006839265     0.000001410673     0.000006246735
       7       -0.001151170188    -0.001464111417     0.004301181599
       8       -0.000019116251     0.000038083113    -0.000022405336
       9       -0.000000159311    -0.000037685406    -0.000073708245

  **** Optimization is complete! (in 6 steps) ****
    Final optimized geometry and variables:
    Molecular point group: c1

    Geometry (in Angstrom), charge = 0, multiplicity = 1:

    H           -2.171274624852    -0.627065265014    -0.662171332880
    O           -2.064547455688    -0.050154676294     0.073225222100
    C           -0.968891763810     0.781413280897    -0.101772736722
    C            0.358674768668     0.033976310893    -0.007701749705
    H           -0.998422911420     1.259708759543    -1.073590627721
    H           -0.993594964975     1.524777381767     0.678215867581
    F            1.293016229546     0.812058730395     0.499157885113
    F            0.278111089726    -1.027359055434     0.758200366077
    F            0.773318900597    -0.371946822453    -1.193759006954

  Mulliken Charges: (a.u.)
   Center  Symbol    Alpha    Beta     Spin     Total
       1     H     0.38958  0.38958  0.00000  0.22083
       2     O     4.18695  4.18695  0.00000 -0.37390
       3     C     2.99871  2.99871  0.00000  0.00258
       4     C     2.68502  2.68502  0.00000  0.62996
       5     H     0.46099  0.46099  0.00000  0.07802
       6     H     0.44635  0.44635  0.00000  0.10731
       7     F     4.61190  4.61190  0.00000 -0.22381
       8     F     4.60593  4.60593  0.00000 -0.21185
       9     F     4.61457  4.61457  0.00000 -0.22914

   Total alpha = 25.00000, Total beta = 25.00000, Total charge = -0.00000

*** Psi4 exiting successfully. Buy a developer a beer!
