  ==> Input File <==

--------------------------------------------------------------------------
set {
	reference rhf
	basis 6-31G*
}

set_num_threads( 4 )
memory 2 gb

molecule MOL {
0 1

H	 -3.266401	 0.533501	 0.665616
C	 -2.222937	 0.314689	 0.530060
C	 -1.795780	 -0.994849	 0.338037
C	 -1.286533	 1.327809	 0.543770
H	 -2.511696	 -1.797412	 0.324423
C	 -0.458627	 -1.279258	 0.163879
H	 -1.598515	 2.346669	 0.691002
C	 0.066630	 1.057561	 0.369492
H	 -0.115173	 -2.286037	 0.014649
C	 0.481527	 -0.251105	 0.178872
H	 0.770355	 1.867000	 0.385174
O	 1.765256	 -0.628444	 0.000000
C	 2.778419	 0.335181	 0.000000
H	 2.731280	 0.961222	 -0.884976
H	 3.711703	 -0.207767	 0.000000
H	 2.731280	 0.961222	 0.884976

	symmetry c1
}
set optking {
	frozen_dihedral = ("
		10 12 13 14
	")
}

ee = optimize('scf')
oeprop('DIPOLE', 'QUADRUPOLE', 'MULLIKEN_CHARGES')
f=open( 'psi4out.xyz', 'w' )
f.write( "16  " )
f.write( str(ee) + "\n" )
f.write( MOL.save_string_xyz() )
f.close()
--------------------------------------------------------------------------

    Molecular point group: c1
  Charge       = 0
  Multiplicity = 1
  Basis Set: 6-31G*
  Basis Set:
  @DF-RHF Final Energy:  -344.58242180861805
    Total Energy =                       -344.5824218086182782
    Molecular point group: c1
  Basis Set: 6-31G*
  Basis Set:
  Basis Set: 6-31G*
  Basis Set:
  @DF-RHF Final Energy:  -344.58256336129080
    Total Energy =                       -344.5825633612905676
  Basis Set: 6-31G*
  Basis Set:
  Basis Set: 6-31G*
  Basis Set:
  @DF-RHF Final Energy:  -344.58261775554149
    Total Energy =                       -344.5826177555414347
  Basis Set: 6-31G*
  Basis Set:
  Charge       = 0
  Multiplicity = 1
  Basis Set: 6-31G*
  Basis Set:

    Orbital Energies (a.u.)
    -----------------------

    Doubly Occupied:

       1A    -20.584950     2A    -11.293920     3A    -11.279902
       4A    -11.232821     5A    -11.231307     6A    -11.223738
       7A    -11.219252     8A    -11.219144     9A     -1.414008
      10A     -1.145710    11A     -1.021664    12A     -1.012623
      13A     -0.941502    14A     -0.830340    15A     -0.804524
      16A     -0.721446    17A     -0.663770    18A     -0.661510
      19A     -0.656431    20A     -0.616613    21A     -0.586640
      22A     -0.575652    23A     -0.524248    24A     -0.520071
      25A     -0.508570    26A     -0.475711    27A     -0.461681
      28A     -0.334549    29A     -0.304965

  @DF-RHF Final Energy:  -344.58261977265721

   => Energetics <=

    Nuclear Repulsion Energy =            348.1008873807647319
    One-Electron Energy =               -1157.2324916239770118
    Two-Electron Energy =                 464.5489844705551832
    DFT Exchange-Correlation Energy =       0.0000000000000000
    Empirical Dispersion Energy =           0.0000000000000000
    PCM Polarization Energy =               0.0000000000000000
    EFP Energy =                            0.0000000000000000
    Total Energy =                       -344.5826197726570399
    Molecular point group: c1
  Basis Set: 6-31G*
  Basis Set:

  -Total Gradient:
     Atom            X                  Y                   Z
    ------   -----------------  -----------------  -----------------
       1        0.000006573383     0.000006796453     0.000012770994
       2        0.000004599396     0.000063422405    -0.000013067473
       3        0.000040093785    -0.000018857145    -0.000003436918
       4       -0.000073399083    -0.000011204036    -0.000018192238
       5        0.000001834921     0.000001939312    -0.000006833385
       6       -0.000041870784    -0.000016476977     0.000008236677
       7       -0.000010235715     0.000005002814     0.000008070042
       8       -0.000006786736     0.000021204634     0.000012476375
       9        0.000008480787     0.000001013265    -0.000004084986
      10        0.000149205198    -0.000232507037     0.001038194444
      11       -0.000046377994    -0.000015095286     0.000002205947
      12        0.000050704130     0.000160055860    -0.001608711499
      13       -0.000877877636     0.000806553424     0.001218026673
      14        0.000764016475    -0.000707817456    -0.000629398512
      15        0.000075651828     0.000003259161    -0.000003920250
      16       -0.000044611956    -0.000067289393    -0.000012335890

  **** Optimization is complete! (in 4 steps) ****
    Final optimized geometry and variables:
    Molecular point group: c1

    Geometry (in Angstrom), charge = 0, multiplicity = 1:

    H           -3.273852442594     0.538794639030     0.467056225315
    C           -2.232952529694     0.323854695361     0.307557183706
    C           -1.803331655721    -0.986136603056     0.123103395946
    C           -1.302644507049     1.342199595948     0.281775946173
    H           -2.514988051141    -1.792479742463     0.139596755077
    C           -0.469359368724    -1.265983705840    -0.079863409174
    H           -1.616819364309     2.361662323256     0.420008986322
    C            0.047163677934     1.076533350740     0.076293572675
    H           -0.123653135026    -2.272950195935    -0.222479689952
    C            0.465016668599    -0.232652476403    -0.102742692715
    H            0.745904539158     1.890210443704     0.054305024406
    O            1.745293581054    -0.603875202552    -0.316187305290
    C            2.769944038106     0.342059272720    -0.209895809518
    H            2.734021393628     1.059250933586    -1.023616731793
    H            3.696730399835    -0.209016901867    -0.273443387098
    H            2.732179124419     0.865867695244     0.738873660791

  Mulliken Charges: (a.u.)
   Center  Symbol    Alpha    Beta     Spin     Total
       1     H     0.40125  0.40125  0.00000  0.19750
       2     C     3.11203  3.11203  0.00000 -0.22406
       3     C     3.09188  3.09188  0.00000 -0.18376
       4     C     3.09101  3.09101  0.00000 -0.18201
       5     H     0.39880  0.39880  0.00000  0.20240
       6     C     3.12540  3.12540  0.00000 -0.25079
       7     H     0.39968  0.39968  0.00000  0.20065
       8     C     3.14464  3.14464  0.00000 -0.28927
       9     H     0.39296  0.39296  0.00000  0.21408
      10     C     2.78259  2.78259  0.00000  0.43482
      11     H     0.39737  0.39737  0.00000  0.20525
      12     O     4.32613  4.32613  0.00000 -0.65225
      13     C     3.09221  3.09221  0.00000 -0.18441
      14     H     0.41970  0.41970  0.00000  0.16060
      15     H     0.40495  0.40495  0.00000  0.19011
      16     H     0.41942  0.41942  0.00000  0.16116

   Total alpha = 29.00000, Total beta = 29.00000, Total charge =  0.00000
