  ==> Input File <==

--------------------------------------------------------------------------
set {
	reference rhf
	basis cc-pvtz
}

set_num_threads( 4 )
memory 2 gb

molecule MOL {
0 1

H	 -3.144994	 -1.202467	 -0.018751
O	 -2.321472	 -0.864941	 -0.318626
C	 -2.021813	 0.336996	 0.342658
C	 -0.669613	 0.837286	 -0.127252
H	 -2.780861	 1.084746	 0.127159
H	 -2.006390	 0.184138	 1.420053
C	 0.490865	 -0.082543	 0.241244
H	 -0.708709	 0.967192	 -1.204587
H	 -0.507562	 1.822272	 0.303070
C	 1.656640	 0.004551	 -0.739567
H	 0.133557	 -1.104783	 0.290343
H	 0.843443	 0.169356	 1.239422
C	 2.820061	 -0.908686	 -0.367764
H	 1.305406	 -0.248830	 -1.736128
H	 2.008690	 1.031615	 -0.793333
H	 2.507611	 -1.947213	 -0.340338
H	 3.630055	 -0.825548	 -1.083517
H	 3.216765	 -0.658663	 0.610785

	symmetry c1
}
set optking {
	frozen_dihedral = ("
		10 7 4 8
	")
}

ee = optimize('scf')
oeprop('DIPOLE', 'QUADRUPOLE', 'MULLIKEN_CHARGES')
f=open( 'psi4out.xyz', 'w' )
f.write( "18  " )
f.write( str(ee) + "\n" )
f.write( MOL.save_string_xyz() )
f.close()
--------------------------------------------------------------------------

    Molecular point group: c1
  Charge       = 0
  Multiplicity = 1
  Basis Set: CC-PVTZ
  Basis Set:
  @DF-RHF Final Energy:  -271.28469972540876
    Total Energy =                       -271.2846997254088137
    Molecular point group: c1
  Basis Set: CC-PVTZ
  Basis Set:
  Basis Set: CC-PVTZ
  Basis Set:
  @DF-RHF Final Energy:  -271.28487845991964
    Total Energy =                       -271.2848784599196961
  Basis Set: CC-PVTZ
  Basis Set:
  Basis Set: CC-PVTZ
  Basis Set:
  @DF-RHF Final Energy:  -271.28491146827730
    Total Energy =                       -271.2849114682773006
  Basis Set: CC-PVTZ
  Basis Set:
  Basis Set: CC-PVTZ
  Basis Set:
  @DF-RHF Final Energy:  -271.28491312319119
    Total Energy =                       -271.2849131231916431
  Basis Set: CC-PVTZ
  Basis Set:
  Charge       = 0
  Multiplicity = 1
  Basis Set: CC-PVTZ
  Basis Set:

    Orbital Energies (a.u.)
    -----------------------

    Doubly Occupied:

       1A    -20.546628     2A    -11.266379     3A    -11.210226
       4A    -11.208375     5A    -11.204880     6A    -11.202130
       7A     -1.364522     8A     -1.075384     9A     -1.009842
      10A     -0.914246    11A     -0.818669    12A     -0.784913
      13A     -0.708964    14A     -0.638609    15A     -0.629558
      16A     -0.584307    17A     -0.570477    18A     -0.559673
      19A     -0.523785    20A     -0.498076    21A     -0.491764
      22A     -0.468691    23A     -0.457594    24A     -0.448945
      25A     -0.431259

  @DF-RHF Final Energy:  -271.28491376839440

   => Energetics <=

    Nuclear Repulsion Energy =            249.8154187177783854
    One-Electron Energy =                -862.9648707487676802
    Two-Electron Energy =                 341.8645382625952607
    DFT Exchange-Correlation Energy =       0.0000000000000000
    Empirical Dispersion Energy =           0.0000000000000000
    PCM Polarization Energy =               0.0000000000000000
    EFP Energy =                            0.0000000000000000
    Total Energy =                       -271.2849137683940626
    Molecular point group: c1
  Basis Set: CC-PVTZ
  Basis Set:

  -Total Gradient:
     Atom            X                  Y                   Z
    ------   -----------------  -----------------  -----------------
       1       -0.000003021705     0.000014284445    -0.000001725852
       2       -0.000001248500     0.000030318774     0.000001581466
       3        0.000025372863    -0.000022061039     0.000019628972
       4       -0.003194689081    -0.004428505907    -0.000990695976
       5       -0.000008369827    -0.000019783723    -0.000009592621
       6       -0.000000217691     0.000005262225    -0.000000587396
       7        0.002032037268     0.003409500019     0.002154367246
       8        0.002232758805     0.002915556526     0.000298817266
       9       -0.000001212131     0.000007679902     0.000019096944
      10       -0.001084157202    -0.001925345518    -0.001491441055
      11        0.000000484067     0.000007360835     0.000008285175
      12       -0.000005053846     0.000010703723    -0.000009481561
      13        0.000008309002     0.000001975376     0.000003822589
      14       -0.000011511833     0.000004858887     0.000000406952
      15        0.000005574568    -0.000006141887     0.000000522426
      16        0.000000159712     0.000000448504     0.000000155899
      17        0.000006254128    -0.000002425198    -0.000000015975
      18       -0.000001468596    -0.000003685946    -0.000003144499

  **** Optimization is complete! (in 5 steps) ****
    Final optimized geometry and variables:
    Molecular point group: c1

    Geometry (in Angstrom), charge = 0, multiplicity = 1:

    H           -3.109345469892    -1.041979078977     0.160197197563
    O           -2.296396019356    -0.702130581677    -0.164655371885
    C           -1.961106845936     0.480832801958     0.513380647315
    C           -0.610027025391     0.963720778687     0.026114741739
    H           -2.710467058071     1.246007992098     0.328101114916
    H           -1.926543947769     0.306641868145     1.587243919712
    C            0.554677683693     0.036833368036     0.389159981038
    H           -0.649844728917     1.111284814877    -1.048266032365
    H           -0.435478327979     1.949333567823     0.450232567724
    C            1.727659764765     0.133862760104    -0.582363822066
    H            0.201236758018    -0.988355393695     0.396487451434
    H            0.892713329786     0.255447388085     1.398650878690
    C            2.902793178505    -0.755863660665    -0.192063391821
    H            1.382662697535    -0.137838902155    -1.575468798827
    H            2.064452757337     1.165843312541    -0.648013025444
    H            2.604024573718    -1.797827217038    -0.145230605664
    H            3.712196232961    -0.675764805001    -0.908818788451
    H            3.295452914889    -0.482034139985     0.781716125862

  Mulliken Charges: (a.u.)
   Center  Symbol    Alpha    Beta     Spin     Total
       1     H     0.39545  0.39545  0.00000  0.20910
       2     O     4.19865  4.19865  0.00000 -0.39730
       3     C     2.97402  2.97402  0.00000  0.05196
       4     C     3.09219  3.09219  0.00000 -0.18438
       5     H     0.46403  0.46403  0.00000  0.07194
       6     H     0.47304  0.47304  0.00000  0.05393
       7     C     3.08726  3.08726  0.00000 -0.17452
       8     H     0.45282  0.45282  0.00000  0.09436
       9     H     0.45339  0.45339  0.00000  0.09322
      10     C     3.08366  3.08366  0.00000 -0.16731
      11     H     0.44893  0.44893  0.00000  0.10213
      12     H     0.45720  0.45720  0.00000  0.08561
      13     C     3.15022  3.15022  0.00000 -0.30044
      14     H     0.45243  0.45243  0.00000  0.09514
      15     H     0.45659  0.45659  0.00000  0.08681
      16     H     0.45446  0.45446  0.00000  0.09108
      17     H     0.44933  0.44933  0.00000  0.10134
      18     H     0.45633  0.45633  0.00000  0.08733

   Total alpha = 25.00000, Total beta = 25.00000, Total charge = -0.00000
