                              Psi4 1.0.54 Driver

  ==> Input File <==

--------------------------------------------------------------------------
set {
	reference rhf
	basis cc-pvtz
}

set_num_threads( 4 )
memory 2 gb

molecule MOL {
0 1

H	 -1.367116	 1.306941	 -4.552589
C	 -0.838133	 1.110420	 -3.639500
C	 -0.952600	 1.984946	 -2.573788
C	 -0.044490	 -0.015888	 -3.532049
H	 -1.568799	 2.858972	 -2.657913
C	 -0.272553	 1.731742	 -1.400792
H	 0.043616	 -0.693465	 -4.359090
C	 0.637076	 -0.270800	 -2.358172
H	 -0.349867	 2.398176	 -0.565958
C	 0.524687	 0.603160	 -1.288559
H	 1.252539	 -1.142151	 -2.271671
C	 1.238974	 0.374429	 0.000004
O	 1.968286	 -0.725612	 -0.000027
O	 1.164528	 1.101455	 0.933316
C	 3.373556	 -0.568203	 0.000011
H	 3.695416	 -0.031588	 -0.879663
H	 3.782700	 -1.565294	 -0.000152
H	 3.695405	 -0.031851	 0.879862

	symmetry c1
}
set optking {
	frozen_dihedral = ("
		10 12 13 15
	")
}

ee,wfn = optimize('scf', return_wfn=True)
oeprop( wfn, 'DIPOLE', 'QUADRUPOLE', 'MULLIKEN_CHARGES')
f=open( 'psi4out.xyz', 'w' )
f.write( "18  " )
f.write( str(ee) + "\n" )
f.write( MOL.save_string_xyz() )
f.close()
--------------------------------------------------------------------------

    Molecular point group: c1
  Charge       = 0
  Multiplicity = 1
  Basis Set: CC-PVTZ
  Basis Set:
  @DF-RHF Final Energy:  -457.49366387357378
    Total Energy =                       -457.4936638735741781
    Molecular point group: c1
  Basis Set: CC-PVTZ
  Basis Set:
  Basis Set: CC-PVTZ
  Basis Set:
  @DF-RHF Final Energy:  -457.49186861668255
    Total Energy =                       -457.4918686166824955
  Basis Set: CC-PVTZ
  Basis Set:
  Basis Set: CC-PVTZ
  Basis Set:
  @DF-RHF Final Energy:  -457.49444023522614
    Total Energy =                       -457.4944402352268753
  Basis Set: CC-PVTZ
  Basis Set:
  Basis Set: CC-PVTZ
  Basis Set:
  @DF-RHF Final Energy:  -457.49449188226021
    Total Energy =                       -457.4944918822606041
  Basis Set: CC-PVTZ
  Basis Set:
  Basis Set: CC-PVTZ
  Basis Set:
  @DF-RHF Final Energy:  -457.49451550540738
    Total Energy =                       -457.4945155054067527
  Basis Set: CC-PVTZ
  Basis Set:
  Basis Set: CC-PVTZ
  Basis Set:
  @DF-RHF Final Energy:  -457.49454620786719
    Total Energy =                       -457.4945462078670744
  Basis Set: CC-PVTZ
  Basis Set:
  Charge       = 0
  Multiplicity = 1
  Basis Set: CC-PVTZ
  Basis Set:

    Orbital Energies (a.u.)
    -----------------------

    Doubly Occupied:

       1A    -20.582551     2A    -20.543682     3A    -11.373719
       4A    -11.286863     5A    -11.247738     6A    -11.247311
       7A    -11.246383     8A    -11.243530     9A    -11.239368
      10A    -11.238590    11A     -1.466116    12A     -1.370109
      13A     -1.173657    14A     -1.050332    15A     -1.032412
      16A     -0.975340    17A     -0.871432    18A     -0.842270
      19A     -0.781194    20A     -0.742728    21A     -0.688738
      22A     -0.679253    23A     -0.666127    24A     -0.640070
      25A     -0.632870    26A     -0.609359    27A     -0.600293
      28A     -0.560730    29A     -0.530944    30A     -0.524500
      31A     -0.507292    32A     -0.501825    33A     -0.463242
      34A     -0.447528    35A     -0.353648    36A     -0.349598

  @DF-RHF Final Energy:  -457.49454652280781

   => Energetics <=

    Nuclear Repulsion Energy =            495.6491686802343111
    One-Electron Energy =               -1605.6647420861536375
    Two-Electron Energy =                 652.5210268831112899
    DFT Exchange-Correlation Energy =       0.0000000000000000
    Empirical Dispersion Energy =           0.0000000000000000
    PCM Polarization Energy =               0.0000000000000000
    EFP Energy =                            0.0000000000000000
    Total Energy =                       -457.4945465228081503
    Molecular point group: c1
  Basis Set: CC-PVTZ
  Basis Set:

  -Total Gradient:
     Atom            X                  Y                   Z
    ------   -----------------  -----------------  -----------------
       1       -0.000005974596     0.000002387623     0.000001959922
       2        0.000002064054     0.000032638792     0.000008329489
       3       -0.000019059398    -0.000017081075    -0.000023401564
       4        0.000030631491    -0.000012315307     0.000011602589
       5        0.000000172675     0.000004979105    -0.000001713324
       6        0.000019891712    -0.000021785095     0.000009108714
       7       -0.000003714454    -0.000000169602     0.000003391320
       8       -0.000029811370    -0.000017413358    -0.000020784570
       9       -0.000003717698     0.000005451312     0.000002101481
      10        0.003912931511     0.002059225212    -0.001856630632
      11        0.000006146149     0.000000316380     0.000006780739
      12       -0.005721416617    -0.003217305651     0.000336909331
      13        0.001919023860     0.001493481724     0.006616392476
      14       -0.000027593995     0.000047030486     0.000018460269
      15       -0.000055876421    -0.000337067300    -0.005113453492
      16       -0.000007273682    -0.000008068179    -0.000004508671
      17       -0.000003865557    -0.000004193000     0.000002569153
      18       -0.000012557665    -0.000010112067     0.000002886776

  **** Optimization is complete! (in 7 steps) ****
    Final optimized geometry and variables:
    Molecular point group: c1

    Geometry (in Angstrom), charge = 0, multiplicity = 1:

    H           -2.118204672400     0.844585601804    -3.253483353980
    C           -1.593631211841     0.641746193755    -2.339210860568
    C           -1.548187297060     1.602086042503    -1.342413120756
    C           -0.968566677160    -0.576482815823    -2.159938860547
    H           -2.035970909086     2.547107823218    -1.483004974880
    C           -0.876438359191     1.341570028097    -0.167943951299
    H           -1.008428566028    -1.321462065946    -2.930798395292
    C           -0.292269475194    -0.838096960949    -0.983050624111
    H           -0.833259376302     2.072580641149     0.613761249246
    C           -0.240427305575     0.120968330054     0.015186426387
    H            0.186910633920    -1.783973591984    -0.836390995110
    C            0.492802631834    -0.114016757559     1.291547067793
    O            1.132176154211    -1.292845348931     1.358707267595
    O            0.548078571739     0.676629845625     2.165409025098
    C            2.544183640606    -1.241018384868     1.320951306342
    H            2.882885641070    -0.855482119313     0.366387810358
    H            2.892918380111    -2.253504393659     1.443100653211
    H            2.925394714520    -0.623854024445     2.121935527125

  Mulliken Charges: (a.u.)
   Center  Symbol    Alpha    Beta     Spin     Total
       1     H     0.41971  0.41971  0.00000  0.16059
       2     C     3.06918  3.06918  0.00000 -0.13836
       3     C     3.07544  3.07544  0.00000 -0.15088
       4     C     3.07567  3.07567  0.00000 -0.15134
       5     H     0.42004  0.42004  0.00000  0.15992
       6     C     3.07699  3.07699  0.00000 -0.15398
       7     H     0.42106  0.42106  0.00000  0.15788
       8     C     3.09073  3.09073  0.00000 -0.18146
       9     H     0.40648  0.40648  0.00000  0.18705
      10     C     3.02307  3.02307  0.00000 -0.04614
      11     H     0.40808  0.40808  0.00000  0.18383
      12     C     2.76385  2.76385  0.00000  0.47231
      13     O     4.17181  4.17181  0.00000 -0.34363
      14     O     4.18723  4.18723  0.00000 -0.37446
      15     C     3.04277  3.04277  0.00000 -0.08554
      16     H     0.46163  0.46163  0.00000  0.07673
      17     H     0.44251  0.44251  0.00000  0.11497
      18     H     0.44375  0.44375  0.00000  0.11250

   Total alpha = 36.00000, Total beta = 36.00000, Total charge =  0.00000

*** Psi4 exiting successfully. Buy a developer a beer!
