  ==> Input File <==

--------------------------------------------------------------------------
set {
	reference rhf
	basis 6-31G*
}

set_num_threads( 4 )
memory 2 gb

molecule MOL {
0 1

H	 3.703483	 0.163962	 0.844512
O	 2.799040	 -0.012736	 1.084337
C	 2.077727	 -0.067559	 -0.035091
C	 0.624473	 -0.343591	 0.253101
O	 2.563813	 0.088351	 -1.107671
C	 -0.265902	 0.883932	 0.072916
H	 0.324016	 -1.163849	 -0.390541
H	 0.565024	 -0.726111	 1.268924
C	 -1.728698	 0.646073	 0.462102
H	 -0.209144	 1.219470	 -0.958188
H	 0.135059	 1.692851	 0.673903
C	 -2.482460	 -0.343073	 -0.431425
H	 -2.245265	 1.602650	 0.432430
H	 -1.779332	 0.308348	 1.496285
C	 -3.960546	 -0.461025	 -0.060175
H	 -2.395034	 -0.026811	 -1.468912
H	 -2.024850	 -1.327147	 -0.371646
H	 -4.472726	 -1.168004	 -0.705284
H	 -4.465146	 0.496508	 -0.151489
H	 -4.081218	 -0.800940	 0.964585

	symmetry c1
}
set optking {
	frozen_dihedral = ("
		5 3 4 7
	")
}

ee = optimize('scf')
oeprop('DIPOLE', 'QUADRUPOLE', 'MULLIKEN_CHARGES')
f=open( 'psi4out.xyz', 'w' )
f.write( "20  " )
f.write( str(ee) + "\n" )
f.write( MOL.save_string_xyz() )
f.close()
--------------------------------------------------------------------------

    Molecular point group: c1
  Charge       = 0
  Multiplicity = 1
  Basis Set: 6-31G*
  Basis Set:
  @DF-RHF Final Energy:  -383.94617560937706
    Total Energy =                       -383.9461756093770077
    Molecular point group: c1
  Basis Set: 6-31G*
  Basis Set:
  Basis Set: 6-31G*
  Basis Set:
  @DF-RHF Final Energy:  -383.94650712479154
    Total Energy =                       -383.9465071247914238
  Basis Set: 6-31G*
  Basis Set:
  Basis Set: 6-31G*
  Basis Set:
  @DF-RHF Final Energy:  -383.94694787363102
    Total Energy =                       -383.9469478736311316
  Basis Set: 6-31G*
  Basis Set:
  Basis Set: 6-31G*
  Basis Set:
  @DF-RHF Final Energy:  -383.94699924086098
    Total Energy =                       -383.9469992408611461
  Basis Set: 6-31G*
  Basis Set:
  Basis Set: 6-31G*
  Basis Set:
  @DF-RHF Final Energy:  -383.94700173946478
    Total Energy =                       -383.9470017394642696
  Basis Set: 6-31G*
  Basis Set:
  Charge       = 0
  Multiplicity = 1
  Basis Set: 6-31G*
  Basis Set:

    Orbital Energies (a.u.)
    -----------------------

    Doubly Occupied:

       1A    -20.614168     2A    -20.547783     3A    -11.379824
       4A    -11.238161     5A    -11.231878     6A    -11.223658
       7A    -11.221397     8A    -11.213292     9A     -1.474178
      10A     -1.363806    11A     -1.098589    12A     -1.041533
      13A     -0.960783    14A     -0.866539    15A     -0.821270
      16A     -0.785015    17A     -0.701077    18A     -0.687776
      19A     -0.650030    20A     -0.630457    21A     -0.618947
      22A     -0.593280    23A     -0.577362    24A     -0.556222
      25A     -0.539553    26A     -0.519275    27A     -0.496961
      28A     -0.483915    29A     -0.471426    30A     -0.468677
      31A     -0.458526    32A     -0.437021

  @DF-RHF Final Energy:  -383.94700232372509

   => Energetics <=

    Nuclear Repulsion Energy =            376.2912777566639306
    One-Electron Energy =               -1268.5318043650427171
    Two-Electron Energy =                 508.2935242846537562
    DFT Exchange-Correlation Energy =       0.0000000000000000
    Empirical Dispersion Energy =           0.0000000000000000
    PCM Polarization Energy =               0.0000000000000000
    EFP Energy =                            0.0000000000000000
    Total Energy =                       -383.9470023237250302
    Molecular point group: c1
  Basis Set: 6-31G*
  Basis Set:

  -Total Gradient:
     Atom            X                  Y                   Z
    ------   -----------------  -----------------  -----------------
       1        0.000017394203    -0.000008358734     0.000009160126
       2        0.000004202304     0.000013099050    -0.000000381434
       3        0.000012441475    -0.000080546379     0.000047261247
       4       -0.000018068707    -0.000001327844    -0.000103064581
       5       -0.000038986481     0.000049369800     0.000017472583
       6       -0.000018823192     0.000088691724     0.000005925111
       7        0.000015502193    -0.000065188085     0.000064847129
       8        0.000035865172     0.000013579839    -0.000054346487
       9        0.000022871929    -0.000032853670     0.000029016808
      10        0.000013609798    -0.000015549391     0.000013811560
      11       -0.000025146669     0.000041419691    -0.000020185059
      12       -0.000022266747     0.000012941792    -0.000007597954
      13        0.000029302154    -0.000005334150     0.000004650992
      14       -0.000011250508    -0.000008271453     0.000009591122
      15       -0.000001242359    -0.000006266794    -0.000015425734
      16       -0.000005172205    -0.000003382860    -0.000011647454
      17       -0.000011629445     0.000007940079     0.000010422470
      18       -0.000003719563     0.000000153376     0.000001403217
      19        0.000001402485     0.000000227469    -0.000000639600
      20        0.000003714157    -0.000000343460    -0.000000274059

  **** Optimization is complete! (in 6 steps) ****
    Final optimized geometry and variables:
    Molecular point group: c1

    Geometry (in Angstrom), charge = 0, multiplicity = 1:

    H            3.733394724768     0.164567209169     0.712993800636
    O            2.853914752117    -0.056642641284     1.004534315060
    C            2.066918926537    -0.113407447324    -0.067387537723
    C            0.631806795731    -0.426519532797     0.269143490973
    O            2.477006916467     0.090273789940    -1.164613314517
    C           -0.251057276332     0.816210871531     0.068179732483
    H            0.319384708474    -1.223855777169    -0.393773613481
    H            0.565538584531    -0.780387677474     1.290304232568
    C           -1.721929630497     0.593556116056     0.434120025486
    H           -0.170164573778     1.139314636185    -0.964803106663
    H            0.141174712699     1.624289192843     0.680428833644
    C           -2.466861422898    -0.394915301767    -0.467106352392
    H           -2.228263160644     1.555050889318     0.388663386892
    H           -1.791601079181     0.263786910080     1.469311553438
    C           -3.952851865406    -0.495377788444    -0.123113541025
    H           -2.355808038270    -0.087914422051    -1.504856694597
    H           -2.020035338454    -1.382467505207    -0.390379709251
    H           -4.458783348106    -1.203150096599    -0.772109758746
    H           -4.446665702376     0.465882417450    -0.232557233922
    H           -4.096588346893    -0.825335158932     0.901924616713

  Mulliken Charges: (a.u.)
   Center  Symbol    Alpha    Beta     Spin     Total
       1     H     0.26832  0.26832  0.00000  0.46335
       2     O     4.34716  4.34716  0.00000 -0.69433
       3     C     2.62960  2.62960  0.00000  0.74081
       4     C     3.20316  3.20316  0.00000 -0.40631
       5     O     4.28048  4.28048  0.00000 -0.56097
       6     C     3.16617  3.16617  0.00000 -0.33235
       7     H     0.39723  0.39723  0.00000  0.20555
       8     H     0.40091  0.40091  0.00000  0.19819
       9     C     3.15372  3.15372  0.00000 -0.30743
      10     H     0.40503  0.40503  0.00000  0.18993
      11     H     0.41273  0.41273  0.00000  0.17454
      12     C     3.15509  3.15509  0.00000 -0.31019
      13     H     0.41782  0.41782  0.00000  0.16436
      14     H     0.42185  0.42185  0.00000  0.15631
      15     C     3.23958  3.23958  0.00000 -0.47917
      16     H     0.41975  0.41975  0.00000  0.16050
      17     H     0.42178  0.42178  0.00000  0.15645
      18     H     0.41768  0.41768  0.00000  0.16464
      19     H     0.42071  0.42071  0.00000  0.15858
      20     H     0.42123  0.42123  0.00000  0.15753

   Total alpha = 32.00000, Total beta = 32.00000, Total charge =  0.00000
