                              Psi4 1.0.54 Driver

  ==> Input File <==

--------------------------------------------------------------------------
set {
	reference rhf
	basis cc-pvtz
}

set_num_threads( 4 )
memory 2 gb

molecule MOL {
0 1

H	 3.240043	 1.147017	 1.385324
N	 2.410327	 0.593283	 1.361508
C	 1.860978	 0.530248	 0.016256
H	 1.759224	 1.011079	 1.993061
C	 0.644130	 -0.381765	 -0.031064
H	 2.630575	 0.133996	 -0.637665
H	 1.590032	 1.510720	 -0.377721
C	 -0.678115	 0.376691	 0.025731
H	 0.693998	 -0.977147	 -0.936845
H	 0.693309	 -1.082142	 0.800523
C	 -1.900706	 -0.535531	 -0.022488
H	 -0.725296	 1.079516	 -0.802982
H	 -0.715474	 0.974884	 0.933278
C	 -3.220513	 0.226854	 0.028039
H	 -1.865036	 -1.134397	 -0.928236
H	 -1.857948	 -1.236381	 0.806820
H	 -3.309098	 0.911849	 -0.808725
H	 -4.066838	 -0.449485	 -0.008086
H	 -3.301685	 0.809374	 0.939860

	symmetry c1
}
set optking {
	frozen_dihedral = ("
		6 3 5 9
	")
}

ee,wfn = optimize('scf', return_wfn=True)
oeprop( wfn, 'DIPOLE', 'QUADRUPOLE', 'MULLIKEN_CHARGES')
f=open( 'psi4out.xyz', 'w' )
f.write( "19  " )
f.write( str(ee) + "\n" )
f.write( MOL.save_string_xyz() )
f.close()
--------------------------------------------------------------------------

    Molecular point group: c1
  Charge       = 0
  Multiplicity = 1
  Basis Set: CC-PVTZ
  Basis Set:
  @DF-RHF Final Energy:  -251.44335659779338
    Total Energy =                       -251.4433565977932403
    Molecular point group: c1
  Basis Set: CC-PVTZ
  Basis Set:
  Basis Set: CC-PVTZ
  Basis Set:
  @DF-RHF Final Energy:  -251.44376192140962
    Total Energy =                       -251.4437619214095889
  Basis Set: CC-PVTZ
  Basis Set:
  Basis Set: CC-PVTZ
  Basis Set:
  @DF-RHF Final Energy:  -251.44385361725486
    Total Energy =                       -251.4438536172547174
  Basis Set: CC-PVTZ
  Basis Set:
  Basis Set: CC-PVTZ
  Basis Set:
  @DF-RHF Final Energy:  -251.44385571809050
    Total Energy =                       -251.4438557180907310
  Basis Set: CC-PVTZ
  Basis Set:
  Charge       = 0
  Multiplicity = 1
  Basis Set: CC-PVTZ
  Basis Set:

    Orbital Energies (a.u.)
    -----------------------

    Doubly Occupied:

       1A    -15.526948     2A    -11.237978     3A    -11.212563
       4A    -11.211830     5A    -11.207469     6A    -11.206327
       7A     -1.177857     8A     -1.073884     9A     -0.998406
      10A     -0.904469    11A     -0.815133    12A     -0.787237
      13A     -0.667732    14A     -0.642083    15A     -0.617558
      16A     -0.588123    17A     -0.562381    18A     -0.550118
      19A     -0.534202    20A     -0.501356    21A     -0.485888
      22A     -0.465659    23A     -0.461881    24A     -0.445357
      25A     -0.382793

  @DF-RHF Final Energy:  -251.44385605335535

   => Energetics <=

    Nuclear Repulsion Energy =            247.8959464052811938
    One-Electron Energy =                -830.1491429060835117
    Two-Electron Energy =                 330.8093404474469708
    DFT Exchange-Correlation Energy =       0.0000000000000000
    Empirical Dispersion Energy =           0.0000000000000000
    PCM Polarization Energy =               0.0000000000000000
    EFP Energy =                            0.0000000000000000
    Total Energy =                       -251.4438560533553755
    Molecular point group: c1
  Basis Set: CC-PVTZ
  Basis Set:

  -Total Gradient:
     Atom            X                  Y                   Z
    ------   -----------------  -----------------  -----------------
       1        0.000050132497     0.000023608862     0.000035129530
       2        0.000001032151    -0.000019556815    -0.000060997531
       3        0.002153799637    -0.003478565502     0.004224605638
       4       -0.000018375050     0.000018672202     0.000005422053
       5       -0.002795027208     0.004145169570    -0.003133205372
       6       -0.001398838357     0.002201381421    -0.003023428971
       7       -0.000000913006     0.000041536119    -0.000000737373
       8        0.000059866648    -0.000040348213    -0.000002579713
       9        0.001968132940    -0.002881765507     0.001921214565
      10       -0.000003151348    -0.000010508960     0.000022253586
      11        0.000003875329     0.000013168693     0.000031566602
      12        0.000013678383     0.000006855441     0.000002768444
      13       -0.000003547937    -0.000018153021    -0.000007404410
      14       -0.000024575837    -0.000013634730    -0.000018900545
      15        0.000002927391     0.000005101091     0.000004330390
      16        0.000001302393     0.000003201746     0.000002048655
      17        0.000000016156     0.000005529951     0.000000584470
      18       -0.000014577199     0.000004418565    -0.000004986635
      19        0.000004242417    -0.000006110916     0.000002316616

  **** Optimization is complete! (in 5 steps) ****
    Final optimized geometry and variables:
    Molecular point group: c1

    Geometry (in Angstrom), charge = 0, multiplicity = 1:

    H            3.341595738570     1.034424873386     1.135053676068
    N            2.535083254688     0.447057982825     1.101247558341
    C            2.007465165577     0.368234621907    -0.253229378043
    H            1.861297646089     0.844152637618     1.722654996434
    C            0.767682217223    -0.529570897241    -0.328319253756
    H            2.782359166214    -0.022240492862    -0.901548180510
    H            1.756070851189     1.349444983575    -0.659643892599
    C           -0.557192279943     0.222359773641    -0.237880104350
    H            0.800133960527    -1.120546444130    -1.238370521490
    H            0.833122094744    -1.248848934500     0.482223600184
    C           -1.775283105938    -0.696392757831    -0.237054719773
    H           -0.633648476299     0.917916458287    -1.070055616305
    H           -0.570346665886     0.829791964524     0.665186568576
    C           -3.097962697774     0.058837261756    -0.159781202308
    H           -1.761716771344    -1.307716362381    -1.135352789962
    H           -1.703750512100    -1.385329238847     0.599889904319
    H           -3.214540716300     0.731833487160    -1.002836400598
    H           -3.940703189689    -0.622911875612    -0.162621671608
    H           -3.157116345260     0.653116468230     0.746155939334

  Mulliken Charges: (a.u.)
   Center  Symbol    Alpha    Beta     Spin     Total
       1     H     0.42997  0.42997  0.00000  0.14006
       2     N     3.68621  3.68621  0.00000 -0.37243
       3     C     3.03441  3.03441  0.00000 -0.06882
       4     H     0.43131  0.43131  0.00000  0.13738
       5     C     3.09856  3.09856  0.00000 -0.19712
       6     H     0.45246  0.45246  0.00000  0.09509
       7     H     0.46866  0.46866  0.00000  0.06268
       8     C     3.08385  3.08385  0.00000 -0.16770
       9     H     0.44998  0.44998  0.00000  0.10004
      10     H     0.44873  0.44873  0.00000  0.10254
      11     C     3.08507  3.08507  0.00000 -0.17014
      12     H     0.45502  0.45502  0.00000  0.08995
      13     H     0.45893  0.45893  0.00000  0.08214
      14     C     3.14976  3.14976  0.00000 -0.29953
      15     H     0.45441  0.45441  0.00000  0.09119
      16     H     0.45324  0.45324  0.00000  0.09352
      17     H     0.45543  0.45543  0.00000  0.08914
      18     H     0.44831  0.44831  0.00000  0.10338
      19     H     0.45568  0.45568  0.00000  0.08864

   Total alpha = 25.00000, Total beta = 25.00000, Total charge =  0.00000

*** Psi4 exiting successfully. Buy a developer a beer!
