  ==> Input File <==

--------------------------------------------------------------------------
set {
	reference rhf
	basis 6-31G*
}

set_num_threads( 4 )
memory 2 gb

molecule MOL {
0 1

H	 -3.420663	 1.227371	 -1.044276
O	 -3.452007	 0.283848	 -0.965577
C	 -3.181085	 -0.079926	 0.364119
C	 -1.765924	 0.277073	 0.805136
H	 -3.327791	 -1.152017	 0.410903
H	 -3.905698	 0.375695	 1.036898
C	 -0.677594	 -0.417312	 -0.014550
H	 -1.637766	 1.358238	 0.744969
H	 -1.659588	 0.017670	 1.857098
C	 0.539197	 0.473464	 -0.273620
H	 -1.098549	 -0.746743	 -0.959527
H	 -0.360470	 -1.317956	 0.508581
C	 1.626777	 -0.230431	 -1.089578
H	 0.214388	 1.375158	 -0.787299
H	 0.959199	 0.798430	 0.677484
C	 2.903891	 0.591096	 -1.299880
H	 1.220889	 -0.516254	 -2.058730
H	 1.892510	 -1.158389	 -0.587486
C	 2.719705	 1.844548	 -2.157399
H	 3.649284	 -0.045768	 -1.770077
H	 3.313737	 0.872778	 -0.331952
H	 2.299001	 1.594780	 -3.127844
H	 3.671609	 2.338037	 -2.328236
H	 2.060057	 2.565895	 -1.686564

	symmetry c1
}
set optking {
	frozen_dihedral = ("
		11 7 4 3
	")
}

ee = optimize('scf')
oeprop('DIPOLE', 'QUADRUPOLE', 'MULLIKEN_CHARGES')
f=open( 'psi4out.xyz', 'w' )
f.write( "24  " )
f.write( str(ee) + "\n" )
f.write( MOL.save_string_xyz() )
f.close()
--------------------------------------------------------------------------

    Molecular point group: c1
  Charge       = 0
  Multiplicity = 1
  Basis Set: 6-31G*
  Basis Set:
  @DF-RHF Final Energy:  -349.24420326734645
    Total Energy =                       -349.2442032673464496
    Molecular point group: c1
  Basis Set: 6-31G*
  Basis Set:
  Basis Set: 6-31G*
  Basis Set:
  @DF-RHF Final Energy:  -349.24436780665371
    Total Energy =                       -349.2443678066538837
  Basis Set: 6-31G*
  Basis Set:
  Basis Set: 6-31G*
  Basis Set:
  @DF-RHF Final Energy:  -349.24443677419561
    Total Energy =                       -349.2444367741952078
  Basis Set: 6-31G*
  Basis Set:
  Charge       = 0
  Multiplicity = 1
  Basis Set: 6-31G*
  Basis Set:

    Orbital Energies (a.u.)
    -----------------------

    Doubly Occupied:

       1A    -20.554186     2A    -11.267844     3A    -11.217286
       4A    -11.213861     5A    -11.212471     6A    -11.211174
       7A    -11.210433     8A    -11.207045     9A     -1.361024
      10A     -1.087420    11A     -1.046898    12A     -0.985542
      13A     -0.914491    14A     -0.850409    15A     -0.801883
      16A     -0.776364    17A     -0.679471    18A     -0.651086
      19A     -0.624846    20A     -0.620643    21A     -0.597073
      22A     -0.582501    23A     -0.559769    24A     -0.534656
      25A     -0.521144    26A     -0.511691    27A     -0.495545
      28A     -0.472097    29A     -0.466298    30A     -0.456103
      31A     -0.453130    32A     -0.452167    33A     -0.420440

  @DF-RHF Final Energy:  -349.24443680026332

   => Energetics <=

    Nuclear Repulsion Energy =            386.6571352979816538
    One-Electron Energy =               -1239.7691621295232380
    Two-Electron Energy =                 503.8675900312781550
    DFT Exchange-Correlation Energy =       0.0000000000000000
    Empirical Dispersion Energy =           0.0000000000000000
    PCM Polarization Energy =               0.0000000000000000
    EFP Energy =                            0.0000000000000000
    Total Energy =                       -349.2444368002634292
    Molecular point group: c1
  Basis Set: 6-31G*
  Basis Set:

  -Total Gradient:
     Atom            X                  Y                   Z
    ------   -----------------  -----------------  -----------------
       1        0.000004044177    -0.000006747474     0.000005183358
       2        0.000036257796    -0.000034164445     0.000010405329
       3       -0.000074177618     0.002128144386    -0.001688567544
       4       -0.000166702985    -0.003680203770     0.002778411917
       5       -0.000005947171     0.000002990420    -0.000018322305
       6        0.000000909067    -0.000007714087     0.000012610597
       7        0.001109039263     0.004804116326    -0.002481975783
       8       -0.000008457965    -0.000001128843    -0.000008748958
       9       -0.000008098962     0.000022884787    -0.000014056348
      10       -0.000001302672     0.000012879068    -0.000094158806
      11       -0.000829056126    -0.003219960970     0.001477245555
      12       -0.000012797288    -0.000016845816    -0.000004323342
      13       -0.000039155625     0.000001933604     0.000034891153
      14       -0.000062049314    -0.000040889629     0.000026982972
      15        0.000010290639    -0.000009709017    -0.000028811723
      16        0.000009236598     0.000013067544     0.000049486191
      17       -0.000008709036     0.000050271815    -0.000006983985
      18       -0.000014401733    -0.000033274910    -0.000024270863
      19        0.000010404336     0.000008364813    -0.000015211919
      20        0.000003467699    -0.000007780833     0.000018375532
      21        0.000005635181     0.000021028076    -0.000000239352
      22       -0.000000276952     0.000002412365    -0.000004816641
      23       -0.000000634845    -0.000008483138     0.000002552477
      24        0.000042483539    -0.000001190272    -0.000025657514

  **** Optimization is complete! (in 4 steps) ****
    Final optimized geometry and variables:
    Molecular point group: c1

    Geometry (in Angstrom), charge = 0, multiplicity = 1:

    H           -3.230986092672     0.882792299356    -0.399859026215
    O           -3.260817022153    -0.062280658325    -0.342732721506
    C           -2.971796075440    -0.456711985018     0.973671059635
    C           -1.554119980099    -0.090185729580     1.400500841849
    H           -3.107960510183    -1.531178412176     0.994312183591
    H           -3.692295518771    -0.025760037862     1.666614600697
    C           -0.463181994060    -0.763976177208     0.549771557652
    H           -1.456672630063     0.993724082007     1.332240826748
    H           -1.425129630106    -0.333601875991     2.452123484499
    C            0.757599932095     0.122467546699     0.300122874560
    H           -0.891561525830    -1.084598283677    -0.394519296228
    H           -0.141769528776    -1.676694517661     1.048196121524
    C            1.855316055996    -0.587151490214    -0.495973888998
    H            0.436892227672     1.019311661287    -0.224074729863
    H            1.164083423098     0.454834582870     1.254806651109
    C            3.135017050673     0.232980325984    -0.696556737094
    H            1.461303453560    -0.880556420039    -1.467690668610
    H            2.115071927696    -1.511053384019     0.016815786913
    C            2.964145378740     1.474089979959    -1.574538150219
    H            3.888586329299    -0.409504185951    -1.145498428756
    H            3.528663381871     0.528489520000     0.274009939684
    H            2.559881186186     1.210342147678    -2.548179192380
    H            3.918431765111     1.966089384539    -1.736235560443
    H            2.296104766684     2.201271962487    -1.125037311604

  Mulliken Charges: (a.u.)
   Center  Symbol    Alpha    Beta     Spin     Total
       1     H     0.28329  0.28329  0.00000  0.43342
       2     O     4.36772  4.36772  0.00000 -0.73545
       3     C     2.99890  2.99890  0.00000  0.00220
       4     C     3.16897  3.16897  0.00000 -0.33794
       5     H     0.41627  0.41627  0.00000  0.16747
       6     H     0.42842  0.42842  0.00000  0.14317
       7     C     3.15727  3.15727  0.00000 -0.31455
       8     H     0.42779  0.42779  0.00000  0.14442
       9     H     0.41984  0.41984  0.00000  0.16032
      10     C     3.15423  3.15423  0.00000 -0.30846
      11     H     0.40659  0.40659  0.00000  0.18682
      12     H     0.42363  0.42363  0.00000  0.15273
      13     C     3.15314  3.15314  0.00000 -0.30628
      14     H     0.42284  0.42284  0.00000  0.15433
      15     H     0.42528  0.42528  0.00000  0.14945
      16     C     3.15229  3.15229  0.00000 -0.30458
      17     H     0.42263  0.42263  0.00000  0.15473
      18     H     0.42255  0.42255  0.00000  0.15490
      19     C     3.24087  3.24087  0.00000 -0.48174
      20     H     0.42114  0.42114  0.00000  0.15772
      21     H     0.42394  0.42394  0.00000  0.15212
      22     H     0.42178  0.42178  0.00000  0.15643
      23     H     0.41968  0.41968  0.00000  0.16064
      24     H     0.42093  0.42093  0.00000  0.15813

   Total alpha = 33.00000, Total beta = 33.00000, Total charge = -0.00000
