                              Psi4 1.0.54 Driver

  ==> Input File <==

--------------------------------------------------------------------------
set {
	reference rhf
	basis cc-pvtz
}

set_num_threads( 4 )
memory 2 gb

molecule MOL {
0 1

H	 -1.002705	 -0.598729	 -0.836725
N	 -0.712187	 0.000026	 -0.093397
C	 0.734067	 -0.000020	 0.038424
H	 -1.146438	 -0.334433	 0.740274
H	 1.140372	 -0.872115	 -0.458226
H	 1.140363	 0.872301	 -0.457869
H	 1.095085	 -0.000244	 1.065614

	symmetry c1
}
set optking {
	frozen_dihedral = ("
		1 2 3 7
	")
}

ee,wfn = optimize('scf', return_wfn=True)
oeprop( wfn, 'DIPOLE', 'QUADRUPOLE', 'MULLIKEN_CHARGES')
f=open( 'psi4out.xyz', 'w' )
f.write( "7  " )
f.write( str(ee) + "\n" )
f.write( MOL.save_string_xyz() )
f.close()
--------------------------------------------------------------------------

    Molecular point group: c1
  Charge       = 0
  Multiplicity = 1
  Basis Set: CC-PVTZ
  Basis Set:
  @DF-RHF Final Energy:   -95.25001394164440
    Total Energy =                        -95.2500139416443972
    Molecular point group: c1
  Basis Set: CC-PVTZ
  Basis Set:
  Basis Set: CC-PVTZ
  Basis Set:
  @DF-RHF Final Energy:   -95.25073989375335
    Total Energy =                        -95.2507398937533480
  Basis Set: CC-PVTZ
  Basis Set:
  Basis Set: CC-PVTZ
  Basis Set:
  @DF-RHF Final Energy:   -95.25125638192222
    Total Energy =                        -95.2512563819222464
  Basis Set: CC-PVTZ
  Basis Set:
  Basis Set: CC-PVTZ
  Basis Set:
  @DF-RHF Final Energy:   -95.25126201686095
    Total Energy =                        -95.2512620168609487
  Basis Set: CC-PVTZ
  Basis Set:
  Charge       = 0
  Multiplicity = 1
  Basis Set: CC-PVTZ
  Basis Set:

    Orbital Energies (a.u.)
    -----------------------

    Doubly Occupied:

       1A    -15.527665     2A    -11.235775     3A     -1.170489
       4A     -0.897940     5A     -0.664597     6A     -0.602025
       7A     -0.559654     8A     -0.516701     9A     -0.386208

  @DF-RHF Final Energy:   -95.25126251294984

   => Energetics <=

    Nuclear Repulsion Energy =             42.3142423623642685
    One-Electron Energy =                -212.0089005129503335
    Two-Electron Energy =                  74.4433956376362005
    DFT Exchange-Correlation Energy =       0.0000000000000000
    Empirical Dispersion Energy =           0.0000000000000000
    PCM Polarization Energy =               0.0000000000000000
    EFP Energy =                            0.0000000000000000
    Total Energy =                        -95.2512625129498645
    Molecular point group: c1
  Basis Set: CC-PVTZ
  Basis Set:

  -Total Gradient:
     Atom            X                  Y                   Z
    ------   -----------------  -----------------  -----------------
       1        0.000036543543    -0.001873606339     0.001696551756
       2        0.000012079522     0.001762179094    -0.002135474674
       3       -0.000245591565     0.002406676880     0.000295366610
       4        0.000002527254    -0.000001607564     0.000020879456
       5       -0.000009574850     0.000002453440    -0.000005695079
       6       -0.000030711093    -0.000001453424    -0.000005243619
       7        0.000234727188    -0.002294642087     0.000133615549

  **** Optimization is complete! (in 5 steps) ****
    Final optimized geometry and variables:
    Molecular point group: c1

    Geometry (in Angstrom), charge = 0, multiplicity = 1:

    H           -0.948603315238    -0.705432248504    -0.781669349835
    N           -0.716667293983    -0.045657050080    -0.071430415311
    C            0.727942157752     0.107018921603     0.058190961495
    H           -1.113235045132    -0.391960133946     0.774763069832
    H            1.283783268536    -0.733529568433    -0.348321600328
    H            1.064467889697     1.003878685696    -0.447365067512
    H            1.003731046606     0.187162345768     1.102202348528

  Mulliken Charges: (a.u.)
   Center  Symbol    Alpha    Beta     Spin     Total
       1     H     0.42914  0.42914  0.00000  0.14172
       2     N     3.68543  3.68543  0.00000 -0.37087
       3     C     3.06958  3.06958  0.00000 -0.13917
       4     H     0.42828  0.42828  0.00000  0.14343
       5     H     0.46811  0.46811  0.00000  0.06378
       6     H     0.45949  0.45949  0.00000  0.08102
       7     H     0.45996  0.45996  0.00000  0.08008

   Total alpha =  9.00000, Total beta =  9.00000, Total charge = -0.00000

*** Psi4 exiting successfully. Buy a developer a beer!
