  ==> Input File <==

--------------------------------------------------------------------------
set {
	reference rhf
	basis 6-31G*
}

set_num_threads( 4 )
memory 2 gb

molecule MOL {
0 1

H	 -1.864092	 0.784769	 -0.862322
N	 -1.852125	 0.165761	 -0.074816
C	 -0.563778	 -0.502042	 0.037919
H	 -2.583321	 -0.503967	 -0.221696
C	 0.575259	 0.508231	 -0.048326
H	 -0.482092	 -1.204004	 -0.786564
H	 -0.460411	 -1.085169	 0.956626
C	 1.954651	 -0.143624	 0.035137
H	 0.475158	 1.060484	 -0.977307
H	 0.469181	 1.234488	 0.755973
H	 2.103292	 -0.853109	 -0.774172
H	 2.742821	 0.599562	 -0.030094
H	 2.083613	 -0.679371	 0.971560

	symmetry c1
}
set optking {
	frozen_dihedral = ("
		1 2 3 6
	")
}

ee = optimize('scf')
oeprop('DIPOLE', 'QUADRUPOLE', 'MULLIKEN_CHARGES')
f=open( 'psi4out.xyz', 'w' )
f.write( "13  " )
f.write( str(ee) + "\n" )
f.write( MOL.save_string_xyz() )
f.close()
--------------------------------------------------------------------------

    Molecular point group: c1
  Charge       = 0
  Multiplicity = 1
  Basis Set: 6-31G*
  Basis Set:
  @DF-RHF Final Energy:  -173.27964290136032
    Total Energy =                       -173.2796429013603756
    Molecular point group: c1
  Basis Set: 6-31G*
  Basis Set:
  Basis Set: 6-31G*
  Basis Set:
  @DF-RHF Final Energy:  -173.28173124356704
    Total Energy =                       -173.2817312435671511
  Basis Set: 6-31G*
  Basis Set:
  Basis Set: 6-31G*
  Basis Set:
  @DF-RHF Final Energy:  -173.28200875320434
    Total Energy =                       -173.2820087532043090
  Basis Set: 6-31G*
  Basis Set:
  Basis Set: 6-31G*
  Basis Set:
  @DF-RHF Final Energy:  -173.28201221970988
    Total Energy =                       -173.2820122197098556
  Basis Set: 6-31G*
  Basis Set:
  Basis Set: 6-31G*
  Basis Set:
  @DF-RHF Final Energy:  -173.28201344316815
    Total Energy =                       -173.2820134431681254
  Basis Set: 6-31G*
  Basis Set:
  Charge       = 0
  Multiplicity = 1
  Basis Set: 6-31G*
  Basis Set:

    Orbital Energies (a.u.)
    -----------------------

    Doubly Occupied:

       1A    -15.531685     2A    -11.239784     3A    -11.214350
       4A    -11.210288     5A     -1.176280     6A     -1.036012
       7A     -0.898845     8A     -0.802062     9A     -0.656452
      10A     -0.635797    11A     -0.603141    12A     -0.563676
      13A     -0.534813    14A     -0.493074    15A     -0.476337
      16A     -0.470045    17A     -0.379742

  @DF-RHF Final Energy:  -173.28201362122704

   => Energetics <=

    Nuclear Repulsion Energy =            131.8443066781506161
    One-Electron Energy =                -494.4078727346169444
    Two-Electron Energy =                 189.2815524352393481
    DFT Exchange-Correlation Energy =       0.0000000000000000
    Empirical Dispersion Energy =           0.0000000000000000
    PCM Polarization Energy =               0.0000000000000000
    EFP Energy =                            0.0000000000000000
    Total Energy =                       -173.2820136212270086
    Molecular point group: c1
  Basis Set: 6-31G*
  Basis Set:

  -Total Gradient:
     Atom            X                  Y                   Z
    ------   -----------------  -----------------  -----------------
       1        0.000740467416     0.001475151222     0.001111370254
       2       -0.001152180900    -0.002238366449    -0.001059881843
       3        0.001123521794     0.002082838164    -0.001148607982
       4       -0.000005656036     0.000008478950    -0.000000036280
       5       -0.000007297061    -0.000029231364    -0.000017146623
       6       -0.000719364279    -0.001297848159     0.001103288492
       7        0.000004966147    -0.000011122159     0.000006929036
       8        0.000013032738     0.000014129381     0.000002849546
       9        0.000006152475    -0.000001860309     0.000005886974
      10       -0.000002136232    -0.000004222396    -0.000003537389
      11       -0.000005193458     0.000002651391    -0.000002394770
      12        0.000006971154    -0.000002713928     0.000003702707
      13       -0.000003283759     0.000002115658    -0.000002422121

  **** Optimization is complete! (in 6 steps) ****
    Final optimized geometry and variables:
    Molecular point group: c1

    Geometry (in Angstrom), charge = 0, multiplicity = 1:

    H           -1.909205598524     0.780573193462    -0.811713040815
    N           -1.854409164382     0.167779364022    -0.020890562165
    C           -0.564706642090    -0.504150584544     0.023459925894
    H           -2.605089506235    -0.490127943324    -0.097322098369
    C            0.574418297748     0.507337976545    -0.027306882491
    H           -0.436850901609    -1.243287423118    -0.771545181337
    H           -0.510469778213    -1.053507606004     0.959226599384
    C            1.952207805373    -0.144557598815     0.077418070491
    H            0.511666691198     1.070565164220    -0.957243038677
    H            0.435738400848     1.222375480266     0.777844253246
    H            2.120320849537    -0.846521001099    -0.734539877979
    H            2.740600419299     0.600125796053     0.037723438126
    H            2.058860980743    -0.688110078463     1.011831085236

  Mulliken Charges: (a.u.)
   Center  Symbol    Alpha    Beta     Spin     Total
       1     H     0.33516  0.33516  0.00000  0.32968
       2     N     3.92396  3.92396  0.00000 -0.84792
       3     C     3.05486  3.05486  0.00000 -0.10973
       4     H     0.33215  0.33215  0.00000  0.33569
       5     C     3.15575  3.15575  0.00000 -0.31150
       6     H     0.43543  0.43543  0.00000  0.12914
       7     H     0.42091  0.42091  0.00000  0.15819
       8     C     3.24319  3.24319  0.00000 -0.48639
       9     H     0.42693  0.42693  0.00000  0.14614
      10     H     0.41203  0.41203  0.00000  0.17593
      11     H     0.42182  0.42182  0.00000  0.15635
      12     H     0.41757  0.41757  0.00000  0.16486
      13     H     0.42023  0.42023  0.00000  0.15955

   Total alpha = 17.00000, Total beta = 17.00000, Total charge = -0.00000
