  ==> Input File <==

--------------------------------------------------------------------------
set {
	reference rhf
	basis 6-31G*
}

set_num_threads( 4 )
memory 2 gb

molecule MOL {
0 1

H	 2.591676	 2.013956	 0.335017
O	 3.341076	 1.666752	 -0.126416
C	 3.569581	 0.339145	 0.272707
C	 2.539767	 -0.640285	 -0.279495
H	 4.553106	 0.084646	 -0.100901
H	 3.608576	 0.269204	 1.359154
C	 2.268161	 -0.479143	 -1.777203
H	 2.882825	 -1.651666	 -0.077539
H	 1.611664	 -0.503784	 0.273098
C	 1.191229	 -1.439619	 -2.289571
H	 3.190948	 -0.642074	 -2.327007
H	 1.958516	 0.546046	 -1.980794
C	 0.819510	 -1.261703	 -3.766226
H	 1.516417	 -2.464705	 -2.121351
H	 0.293490	 -1.304638	 -1.689950
C	 1.933237	 -1.609881	 -4.757620
H	 -0.043141	 -1.889536	 -3.979476
H	 0.494856	 -0.235898	 -3.934039
C	 1.482352	 -1.518267	 -6.216985
H	 2.291069	 -2.618524	 -4.555861
H	 2.784614	 -0.949574	 -4.611149
C	 2.593980	 -1.859101	 -7.208841
H	 0.639612	 -2.187591	 -6.375990
H	 1.115408	 -0.513823	 -6.417807
H	 2.960207	 -2.870257	 -7.055007
H	 2.242998	 -1.787088	 -8.233664
H	 3.437650	 -1.183229	 -7.100300

	symmetry c1
}
set optking {
	frozen_dihedral = ("
		8 4 3 2
	")
}

ee = optimize('scf')
oeprop('DIPOLE', 'QUADRUPOLE', 'MULLIKEN_CHARGES')
f=open( 'psi4out.xyz', 'w' )
f.write( "27  " )
f.write( str(ee) + "\n" )
f.write( MOL.save_string_xyz() )
f.close()
--------------------------------------------------------------------------

    Molecular point group: c1
  Charge       = 0
  Multiplicity = 1
  Basis Set: 6-31G*
  Basis Set:
  @DF-RHF Final Energy:  -388.28112830320441
    Total Energy =                       -388.2811283032046958
    Molecular point group: c1
  Basis Set: 6-31G*
  Basis Set:
  Basis Set: 6-31G*
  Basis Set:
  @DF-RHF Final Energy:  -388.28144593845587
    Total Energy =                       -388.2814459384563861
  Basis Set: 6-31G*
  Basis Set:
  Basis Set: 6-31G*
  Basis Set:
  @DF-RHF Final Energy:  -388.28152337577700
    Total Energy =                       -388.2815233757767146
  Basis Set: 6-31G*
  Basis Set:
  Basis Set: 6-31G*
  Basis Set:
  @DF-RHF Final Energy:  -388.28152203446757
    Total Energy =                       -388.2815220344667750
  Basis Set: 6-31G*
  Basis Set:
  Basis Set: 6-31G*
  Basis Set:
  @DF-RHF Final Energy:  -388.28153364646033
    Total Energy =                       -388.2815336464602751
  Basis Set: 6-31G*
  Basis Set:
  Basis Set: 6-31G*
  Basis Set:
  @DF-RHF Final Energy:  -388.28152933696646
    Total Energy =                       -388.2815293369668552
  Basis Set: 6-31G*
  Basis Set:
  Basis Set: 6-31G*
  Basis Set:
  @DF-RHF Final Energy:  -388.28153416794567
    Total Energy =                       -388.2815341679462335
  Basis Set: 6-31G*
  Basis Set:
  Charge       = 0
  Multiplicity = 1
  Basis Set: 6-31G*
  Basis Set:

    Orbital Energies (a.u.)
    -----------------------

    Doubly Occupied:

       1A    -20.554062     2A    -11.267776     3A    -11.217074
       4A    -11.212606     5A    -11.212511     6A    -11.211371
       7A    -11.210205     8A    -11.209892     9A    -11.206265
      10A     -1.360368    11A     -1.090692    12A     -1.058045
      13A     -1.008949    14A     -0.944755    15A     -0.883786
      16A     -0.819627    17A     -0.800202    18A     -0.774017
      19A     -0.680672    20A     -0.650616    21A     -0.639637
      22A     -0.612725    23A     -0.604772    24A     -0.584124
      25A     -0.569484    26A     -0.557062    27A     -0.538087
      28A     -0.518199    29A     -0.507468    30A     -0.490677
      31A     -0.478685    32A     -0.467909    33A     -0.464895
      34A     -0.456129    35A     -0.454693    36A     -0.439262
      37A     -0.420730

  @DF-RHF Final Energy:  -388.28153414314124

   => Energetics <=

    Nuclear Repulsion Energy =            459.5992814311997563
    One-Electron Energy =               -1437.4055745448526977
    Two-Electron Energy =                 589.5247589705112432
    DFT Exchange-Correlation Energy =       0.0000000000000000
    Empirical Dispersion Energy =           0.0000000000000000
    PCM Polarization Energy =               0.0000000000000000
    EFP Energy =                            0.0000000000000000
    Total Energy =                       -388.2815341431416982
    Molecular point group: c1
  Basis Set: 6-31G*
  Basis Set:

  -Total Gradient:
     Atom            X                  Y                   Z
    ------   -----------------  -----------------  -----------------
       1       -0.000003810683     0.000008555056    -0.000003194332
       2        0.001386096796    -0.000447002938    -0.002149693327
       3       -0.001586149867     0.000605221955     0.002298877428
       4       -0.001264825887    -0.000004962049     0.002701126713
       5        0.000000286334    -0.000011523204     0.000000453025
       6       -0.000003130134    -0.000027630217    -0.000004892065
       7       -0.000003339830     0.000036113190    -0.000006128041
       8        0.001478459401    -0.000148874046    -0.002847627907
       9       -0.000004829789    -0.000001534819    -0.000010100990
      10       -0.000011447035     0.000015011807     0.000016881556
      11        0.000006100284     0.000008124742     0.000003235689
      12        0.000010244424    -0.000014128633    -0.000005931827
      13        0.000004795121     0.000002023996     0.000001862802
      14       -0.000002895853    -0.000001994985    -0.000002825071
      15       -0.000008049171    -0.000002722923    -0.000000092846
      16       -0.000002115837    -0.000005591404     0.000001112162
      17        0.000004569983    -0.000005119836     0.000000942246
      18       -0.000003781864    -0.000003299991     0.000001237897
      19        0.000000915952    -0.000002059027    -0.000000383827
      20       -0.000006536573    -0.000004329505    -0.000001484294
      21        0.000007066497    -0.000001416776     0.000007011750
      22        0.000002721852     0.000011137485    -0.000000043455
      23        0.000004003171    -0.000004452314    -0.000000327687
      24       -0.000004814135    -0.000001677972     0.000000268621
      25       -0.000003262899     0.000000345094     0.000000476120
      26        0.000000730125     0.000002994665    -0.000000530476
      27        0.000002999611    -0.000001207354    -0.000000229867

  **** Optimization is complete! (in 8 steps) ****
    Final optimized geometry and variables:
    Molecular point group: c1

    Geometry (in Angstrom), charge = 0, multiplicity = 1:

    H            0.426165455608     2.727672267230     3.117140821260
    O            1.208324630918     2.370024315303     2.719606201705
    C            1.365897499294     1.032025971549     3.117281072365
    C            0.268598477872     0.105894500816     2.598667898285
    H            2.322193117704     0.725336655998     2.711720817817
    H            1.436368696885     0.958691306607     4.200965891252
    C            0.012374197809     0.247159816546     1.095948741729
    H            0.573829306938    -0.918412406448     2.805451798346
    H           -0.656049979373     0.279069057382     3.148277249336
    C           -1.041986713263    -0.739462203720     0.586586181245
    H            0.950542402438     0.099555768371     0.567393888250
    H           -0.302524205661     1.262243668824     0.875175753566
    C           -1.415288108695    -0.572177023878    -0.890992353414
    H           -0.697782544719    -1.758698569181     0.756161858664
    H           -1.945079606672    -0.623660199064     1.183229677442
    C           -0.289160157620    -0.889593966995    -1.878499012691
    H           -2.260682225270    -1.222358468272    -1.107372786228
    H           -1.765212718143     0.445082148973    -1.059158312731
    C           -0.736273437439    -0.806096220231    -3.339499532306
    H            0.093021482212    -1.889733836250    -1.677760620275
    H            0.543724430645    -0.207909970765    -1.726141125292
    C            0.387979772061    -1.115515901765    -4.327439793216
    H           -1.561044355589    -1.496323342991    -3.504092667807
    H           -1.127601959644     0.189253052395    -3.539332454639
    H            0.778907441510    -2.117705545386    -4.175121582998
    H            0.039987018710    -1.049114266645    -5.353736971823
    H            1.213652250477    -0.418893928142    -4.212613150790

  Mulliken Charges: (a.u.)
   Center  Symbol    Alpha    Beta     Spin     Total
       1     H     0.28348  0.28348  0.00000  0.43304
       2     O     4.36782  4.36782  0.00000 -0.73563
       3     C     2.99499  2.99499  0.00000  0.01002
       4     C     3.17337  3.17337  0.00000 -0.34675
       5     H     0.41649  0.41649  0.00000  0.16702
       6     H     0.42787  0.42787  0.00000  0.14427
       7     C     3.15045  3.15045  0.00000 -0.30090
       8     H     0.42161  0.42161  0.00000  0.15678
       9     H     0.42672  0.42672  0.00000  0.14656
      10     C     3.15325  3.15325  0.00000 -0.30650
      11     H     0.42026  0.42026  0.00000  0.15949
      12     H     0.41607  0.41607  0.00000  0.16786
      13     C     3.15268  3.15268  0.00000 -0.30536
      14     H     0.42507  0.42507  0.00000  0.14985
      15     H     0.42392  0.42392  0.00000  0.15216
      16     C     3.15289  3.15289  0.00000 -0.30579
      17     H     0.42278  0.42278  0.00000  0.15444
      18     H     0.42385  0.42385  0.00000  0.15231
      19     C     3.15108  3.15108  0.00000 -0.30216
      20     H     0.42538  0.42538  0.00000  0.14925
      21     H     0.42046  0.42046  0.00000  0.15908
      22     C     3.23914  3.23914  0.00000 -0.47829
      23     H     0.42376  0.42376  0.00000  0.15248
      24     H     0.42301  0.42301  0.00000  0.15398
      25     H     0.42228  0.42228  0.00000  0.15544
      26     H     0.41982  0.41982  0.00000  0.16035
      27     H     0.42150  0.42150  0.00000  0.15699

   Total alpha = 37.00000, Total beta = 37.00000, Total charge = -0.00000
