  ==> Input File <==

--------------------------------------------------------------------------
set {
	reference rhf
	basis 6-31G*
}

set_num_threads( 4 )
memory 2 gb

molecule MOL {
0 1

H	 2.673430	 -0.328670	 -0.881579
N	 1.693933	 -0.124772	 -0.900903
C	 1.290794	 0.545251	 0.321906
C	 0.927247	 -1.337744	 -1.119085
H	 1.874709	 1.452451	 0.435044
H	 1.451239	 -0.072019	 1.208966
C	 -0.186604	 0.897241	 0.233443
H	 1.247888	 -1.794167	 -2.049481
H	 1.065673	 -2.069061	 -0.319300
C	 -0.549927	 -0.984587	 -1.206655
H	 -0.330620	 1.635443	 -0.561174
H	 -0.508890	 1.348363	 1.166270
N	 -0.975995	 -0.298722	 0.000000
H	 -1.134592	 -1.892458	 -1.313817
H	 -0.718284	 -0.372461	 -2.097753
C	 -2.393863	 -0.024976	 0.000000
H	 -2.854032	 -0.467193	 -0.876721
H	 -2.854032	 -0.467193	 0.876721
H	 -2.623281	 1.044943	 0.000000

	symmetry c1
}
set optking {
	frozen_dihedral = ("
		7 13 16 19
	")
}

ee = optimize('scf')
oeprop('DIPOLE', 'QUADRUPOLE', 'MULLIKEN_CHARGES')
f=open( 'psi4out.xyz', 'w' )
f.write( "19  " )
f.write( str(ee) + "\n" )
f.write( MOL.save_string_xyz() )
f.close()
--------------------------------------------------------------------------

    Molecular point group: c1
  Charge       = 0
  Multiplicity = 1
  Basis Set: 6-31G*
  Basis Set:
  @DF-RHF Final Energy:  -305.19282586327131
    Total Energy =                       -305.1928258632713096
    Molecular point group: c1
  Basis Set: 6-31G*
  Basis Set:
  Basis Set: 6-31G*
  Basis Set:
  @DF-RHF Final Energy:  -305.19328416144674
    Total Energy =                       -305.1932841614469680
  Basis Set: 6-31G*
  Basis Set:
  Basis Set: 6-31G*
  Basis Set:
  @DF-RHF Final Energy:  -305.19340412637945
    Total Energy =                       -305.1934041263794484
  Basis Set: 6-31G*
  Basis Set:
  Basis Set: 6-31G*
  Basis Set:
  @DF-RHF Final Energy:  -305.19340681848291
    Total Energy =                       -305.1934068184829130
  Basis Set: 6-31G*
  Basis Set:
  Charge       = 0
  Multiplicity = 1
  Basis Set: 6-31G*
  Basis Set:

    Orbital Energies (a.u.)
    -----------------------

    Doubly Occupied:

       1A    -15.537686     2A    -15.535830     3A    -11.237636
       4A    -11.237615     5A    -11.236829     6A    -11.236792
       7A    -11.234682     8A     -1.243886     9A     -1.182713
      10A     -1.022168    11A     -0.963651    12A     -0.859784
      13A     -0.858025    14A     -0.756441    15A     -0.690120
      16A     -0.630086    17A     -0.623136    18A     -0.604324
      19A     -0.603489    20A     -0.579711    21A     -0.543925
      22A     -0.534635    23A     -0.512272    24A     -0.488019
      25A     -0.465439    26A     -0.455675    27A     -0.362487
      28A     -0.339212

  @DF-RHF Final Energy:  -305.19340718355613

   => Energetics <=

    Nuclear Repulsion Energy =            339.2788676680446542
    One-Electron Energy =               -1085.7920073740244788
    Two-Electron Energy =                 441.3197325224236920
    DFT Exchange-Correlation Energy =       0.0000000000000000
    Empirical Dispersion Energy =           0.0000000000000000
    PCM Polarization Energy =               0.0000000000000000
    EFP Energy =                            0.0000000000000000
    Total Energy =                       -305.1934071835561326
    Molecular point group: c1
  Basis Set: 6-31G*
  Basis Set:

  -Total Gradient:
     Atom            X                  Y                   Z
    ------   -----------------  -----------------  -----------------
       1        0.000000691941    -0.000001026105     0.000003028443
       2       -0.000009311378     0.000003049404    -0.000001525600
       3        0.000008051766     0.000000206678     0.000004946099
       4        0.000007771741    -0.000005247111    -0.000014134173
       5        0.000007962654     0.000002237393    -0.000000184485
       6       -0.000004788656     0.000003781984     0.000000253474
       7        0.000018892379     0.000244409887    -0.001114542217
       8        0.000012184790    -0.000003481806    -0.000003710313
       9       -0.000008738761     0.000002398609    -0.000003617046
      10       -0.000000373501    -0.000003369198    -0.000020252081
      11       -0.000006770035    -0.000007841453     0.000001878818
      12        0.000001141171    -0.000004738335    -0.000002384140
      13       -0.000014928975    -0.000346910816     0.002007404660
      14        0.000004380097     0.000004892092     0.000003110417
      15        0.000000182521    -0.000003225245     0.000005338424
      16       -0.000088594072     0.000160936545    -0.002361404274
      17        0.000010192765    -0.000009082072     0.000005943101
      18        0.000019487394    -0.000002043837    -0.000006985882
      19        0.000042566162    -0.000034946613     0.001496836775

  **** Optimization is complete! (in 5 steps) ****
    Final optimized geometry and variables:
    Molecular point group: c1

    Geometry (in Angstrom), charge = 0, multiplicity = 1:

    H            2.716686611242    -0.152438072290    -0.478113817456
    N            1.738583449433     0.056762209421    -0.508335006542
    C            1.326442378802     0.732330381698     0.708252565815
    C            0.967790365546    -1.152818348671    -0.730155810799
    H            1.914257245672     1.636702097962     0.825278341081
    H            1.474005126261     0.116365569612     1.598483718395
    C           -0.147782198986     1.092221876103     0.604270359692
    H            1.297069595792    -1.615572495658    -1.654574106230
    H            1.092612034104    -1.880843686424     0.074917482909
    C           -0.506648948534    -0.793986742647    -0.836613500264
    H           -0.279147918223     1.833940721419    -0.189062102209
    H           -0.473514770891     1.543188549997     1.535890658671
    N           -0.941968713113    -0.098519541945     0.361729726260
    H           -1.089242438775    -1.702942245266    -0.941696820504
    H           -0.662048911114    -0.191267238322    -1.736334886518
    C           -2.375879514041     0.150837442367     0.401848187396
    H           -2.872751308945    -0.259291128721    -0.470903956860
    H           -2.823167860035    -0.302177153631     1.282179336499
    H           -2.598847922336     1.214174045095     0.433451899730

  Mulliken Charges: (a.u.)
   Center  Symbol    Alpha    Beta     Spin     Total
       1     H     0.32963  0.32963  0.00000  0.34075
       2     N     3.85430  3.85430  0.00000 -0.70861
       3     C     3.06327  3.06327  0.00000 -0.12653
       4     C     3.06338  3.06338  0.00000 -0.12675
       5     H     0.41801  0.41801  0.00000  0.16397
       6     H     0.42791  0.42791  0.00000  0.14418
       7     C     3.05513  3.05513  0.00000 -0.11025
       8     H     0.41803  0.41803  0.00000  0.16393
       9     H     0.42792  0.42792  0.00000  0.14416
      10     C     3.05489  3.05489  0.00000 -0.10978
      11     H     0.42824  0.42824  0.00000  0.14353
      12     H     0.41826  0.41826  0.00000  0.16349
      13     N     3.79248  3.79248  0.00000 -0.58496
      14     H     0.41834  0.41834  0.00000  0.16331
      15     H     0.42846  0.42846  0.00000  0.14308
      16     C     3.13955  3.13955  0.00000 -0.27910
      17     H     0.42155  0.42155  0.00000  0.15690
      18     H     0.41672  0.41672  0.00000  0.16656
      19     H     0.42394  0.42394  0.00000  0.15212

   Total alpha = 28.00000, Total beta = 28.00000, Total charge =  0.00000
