                              Psi4 1.0.54 Driver

  ==> Input File <==

--------------------------------------------------------------------------
set {
	reference rhf
	basis cc-pvtz
}

set_num_threads( 4 )
memory 2 gb

molecule MOL {
0 1

H	 -2.266619	 1.169943	 0.000098
O	 -1.438073	 1.611259	 0.000041
C	 -0.408657	 0.734701	 0.000005
C	 -0.333038	 -0.139774	 -1.068164
C	 0.536658	 0.702293	 1.018553
H	 -1.081587	 -0.083170	 -1.833932
C	 0.690897	 -1.060815	 -1.133043
C	 1.554373	 -0.233376	 0.927401
C	 0.452748	 1.657271	 2.183533
H	 0.743182	 -1.736523	 -1.965308
C	 1.642670	 -1.112872	 -0.133120
H	 2.292843	 -0.271181	 1.706632
H	 -0.473121	 1.535454	 2.738733
H	 1.266143	 1.488751	 2.874496
H	 0.512423	 2.692959	 1.860864
H	 2.441996	 -1.826686	 -0.176914

	symmetry c1
}
set optking {
	frozen_dihedral = ("
		4 3 2 1
	")
}

ee,wfn = optimize('scf', return_wfn=True)
oeprop( wfn, 'DIPOLE', 'QUADRUPOLE', 'MULLIKEN_CHARGES')
f=open( 'psi4out.xyz', 'w' )
f.write( "16  " )
f.write( str(ee) + "\n" )
f.write( MOL.save_string_xyz() )
f.close()
--------------------------------------------------------------------------

    Molecular point group: c1
  Charge       = 0
  Multiplicity = 1
  Basis Set: CC-PVTZ
  Basis Set:
  @DF-RHF Final Energy:  -344.71546225830281
    Total Energy =                       -344.7154622583028640
    Molecular point group: c1
  Basis Set: CC-PVTZ
  Basis Set:
  Basis Set: CC-PVTZ
  Basis Set:
  @DF-RHF Final Energy:  -344.71701352063769
    Total Energy =                       -344.7170135206373516
  Basis Set: CC-PVTZ
  Basis Set:
  Basis Set: CC-PVTZ
  Basis Set:
  @DF-RHF Final Energy:  -344.71710718802069
    Total Energy =                       -344.7171071880205204
  Basis Set: CC-PVTZ
  Basis Set:
  Basis Set: CC-PVTZ
  Basis Set:
  @DF-RHF Final Energy:  -344.71711328627538
    Total Energy =                       -344.7171132862757190
  Basis Set: CC-PVTZ
  Basis Set:
  Charge       = 0
  Multiplicity = 1
  Basis Set: CC-PVTZ
  Basis Set:

    Orbital Energies (a.u.)
    -----------------------

    Doubly Occupied:

       1A    -20.573037     2A    -11.284852     3A    -11.231582
       4A    -11.227771     5A    -11.225786     6A    -11.223675
       7A    -11.221225     8A    -11.214719     9A     -1.400314
      10A     -1.153259    11A     -1.047422    12A     -1.006609
      13A     -0.933162    14A     -0.839067    15A     -0.804740
      16A     -0.732230    17A     -0.670981    18A     -0.658174
      19A     -0.622859    20A     -0.594973    21A     -0.574351
      22A     -0.564421    23A     -0.544014    24A     -0.527571
      25A     -0.502394    26A     -0.486865    27A     -0.469820
      28A     -0.333375    29A     -0.318192

  @DF-RHF Final Energy:  -344.71711495853208

   => Energetics <=

    Nuclear Repulsion Energy =            350.5578424690319252
    One-Electron Energy =               -1162.5750346899239958
    Two-Electron Energy =                 467.3000772623600483
    DFT Exchange-Correlation Energy =       0.0000000000000000
    Empirical Dispersion Energy =           0.0000000000000000
    PCM Polarization Energy =               0.0000000000000000
    EFP Energy =                            0.0000000000000000
    Total Energy =                       -344.7171149585320222
    Molecular point group: c1
  Basis Set: CC-PVTZ
  Basis Set:

  -Total Gradient:
     Atom            X                  Y                   Z
    ------   -----------------  -----------------  -----------------
       1        0.000038775812    -0.000071657589     0.002136265229
       2        0.000355346284     0.000636932123    -0.003026527619
       3       -0.001162804079    -0.001618789349     0.001702477408
       4        0.000847062637     0.001082161427    -0.000721936246
       5       -0.000168004993     0.000131167264    -0.000047626129
       6        0.000042171668    -0.000015461926     0.000021038688
       7       -0.000004648020    -0.000045197560    -0.000023154793
       8        0.000044805720    -0.000138915845    -0.000046965209
       9        0.000039697880     0.000029993744     0.000063909653
      10        0.000041628347    -0.000025319578     0.000003486183
      11        0.000017843774     0.000060454384     0.000050535162
      12       -0.000013847978     0.000007033134    -0.000010446363
      13       -0.000017299872     0.000002985726     0.000011950224
      14       -0.000038009032    -0.000021342011    -0.000055829894
      15       -0.000009959803     0.000011983645    -0.000003727853
      16       -0.000012758342    -0.000026027591    -0.000053448440

  **** Optimization is complete! (in 5 steps) ****
    Final optimized geometry and variables:
    Molecular point group: c1

    Geometry (in Angstrom), charge = 0, multiplicity = 1:

    H           -2.536363276966     0.914676142468    -0.204833884049
    O           -1.689132381603     1.322878011287    -0.194214797462
    C           -0.698638812317     0.383593976597    -0.249120285214
    C           -0.612638012956    -0.478984840891    -1.322981221416
    C            0.250626261786     0.366399250997     0.764544279753
    H           -1.347968029293    -0.418745883994    -2.103153937676
    C            0.415067422466    -1.400673784854    -1.391236555140
    C            1.277609752758    -0.557524075946     0.668708896100
    C            0.156237649233     1.328935618173     1.919565949542
    H            0.474757343733    -2.073224623581    -2.225373939225
    C            1.364969328469    -1.440309675438    -0.392446514933
    H            2.021886495883    -0.588659611559     1.442355156890
    H           -0.777253795491     1.207110164119     2.455736855855
    H            0.970085299585     1.170861467414     2.614178234897
    H            0.193643170066     2.355427569462     1.576581691399
    H            2.170785996264    -2.147291407705    -0.437851283473

  Mulliken Charges: (a.u.)
   Center  Symbol    Alpha    Beta     Spin     Total
       1     H     0.38542  0.38542  0.00000  0.22916
       2     O     4.18824  4.18824  0.00000 -0.37647
       3     C     2.88319  2.88319  0.00000  0.23363
       4     C     3.11775  3.11775  0.00000 -0.23551
       5     C     2.99240  2.99240  0.00000  0.01521
       6     H     0.42382  0.42382  0.00000  0.15235
       7     C     3.07551  3.07551  0.00000 -0.15102
       8     C     3.09126  3.09126  0.00000 -0.18252
       9     C     3.13918  3.13918  0.00000 -0.27836
      10     H     0.42241  0.42241  0.00000  0.15518
      11     C     3.08207  3.08207  0.00000 -0.16413
      12     H     0.42459  0.42459  0.00000  0.15083
      13     H     0.45176  0.45176  0.00000  0.09648
      14     H     0.45361  0.45361  0.00000  0.09279
      15     H     0.44451  0.44451  0.00000  0.11098
      16     H     0.42430  0.42430  0.00000  0.15140

   Total alpha = 29.00000, Total beta = 29.00000, Total charge = -0.00000

*** Psi4 exiting successfully. Buy a developer a beer!
