  ==> Input File <==

--------------------------------------------------------------------------
set {
	reference rhf
	basis 6-31G*
}

set_num_threads( 4 )
memory 2 gb

molecule MOL {
0 1

H	 3.856627	 0.327942	 -0.369657
N	 3.092854	 -0.246221	 -0.068770
C	 1.865559	 0.531981	 0.018834
H	 3.342103	 -0.611187	 0.830955
C	 0.645745	 -0.382037	 -0.029944
H	 1.841966	 1.207024	 -0.831236
H	 1.815756	 1.155410	 0.915079
C	 -0.679275	 0.379305	 0.025956
H	 0.698998	 -0.976915	 -0.937203
H	 0.693479	 -1.083846	 0.802235
C	 -1.903357	 -0.536963	 -0.023547
H	 -0.726309	 1.082987	 -0.803784
H	 -0.717680	 0.977832	 0.934877
C	 -3.225172	 0.228290	 0.028445
H	 -1.867824	 -1.134999	 -0.931459
H	 -1.860449	 -1.239604	 0.805977
H	 -3.313397	 0.915643	 -0.808262
H	 -4.073500	 -0.448134	 -0.008893
H	 -3.306061	 0.809945	 0.942516

	symmetry c1
}
set optking {
	frozen_dihedral = ("
		1 2 3 6
	")
}

ee = optimize('scf')
oeprop('DIPOLE', 'QUADRUPOLE', 'MULLIKEN_CHARGES')
f=open( 'psi4out.xyz', 'w' )
f.write( "19  " )
f.write( str(ee) + "\n" )
f.write( MOL.save_string_xyz() )
f.close()
--------------------------------------------------------------------------

    Molecular point group: c1
  Charge       = 0
  Multiplicity = 1
  Basis Set: 6-31G*
  Basis Set:
  @DF-RHF Final Energy:  -251.35102352854844
    Total Energy =                       -251.3510235285485237
    Molecular point group: c1
  Basis Set: 6-31G*
  Basis Set:
  Basis Set: 6-31G*
  Basis Set:
  @DF-RHF Final Energy:  -251.35111210307591
    Total Energy =                       -251.3511121030759341
  Basis Set: 6-31G*
  Basis Set:
  Basis Set: 6-31G*
  Basis Set:
  @DF-RHF Final Energy:  -251.35113365071169
    Total Energy =                       -251.3511336507116880
  Basis Set: 6-31G*
  Basis Set:
  Charge       = 0
  Multiplicity = 1
  Basis Set: 6-31G*
  Basis Set:

    Orbital Energies (a.u.)
    -----------------------

    Doubly Occupied:

       1A    -15.531550     2A    -11.239909     3A    -11.212938
       4A    -11.211355     5A    -11.206782     6A    -11.206665
       7A     -1.175164     8A     -1.071783     9A     -0.997516
      10A     -0.899748    11A     -0.811751    12A     -0.787501
      13A     -0.670159    14A     -0.638503    15A     -0.615722
      16A     -0.584845    17A     -0.565611    18A     -0.550910
      19A     -0.524942    20A     -0.500886    21A     -0.477206
      22A     -0.463767    23A     -0.459444    24A     -0.451695
      25A     -0.377938

  @DF-RHF Final Energy:  -251.35113458942448

   => Energetics <=

    Nuclear Repulsion Energy =            245.4845140969532622
    One-Electron Energy =                -825.2027066298919635
    Two-Electron Energy =                 328.3670579435141121
    DFT Exchange-Correlation Energy =       0.0000000000000000
    Empirical Dispersion Energy =           0.0000000000000000
    PCM Polarization Energy =               0.0000000000000000
    EFP Energy =                            0.0000000000000000
    Total Energy =                       -251.3511345894245892
    Molecular point group: c1
  Basis Set: 6-31G*
  Basis Set:

  -Total Gradient:
     Atom            X                  Y                   Z
    ------   -----------------  -----------------  -----------------
       1       -0.000496146238    -0.000494911502    -0.002109431532
       2        0.000850948608     0.000902592729     0.002891659503
       3       -0.001372984614    -0.001823469768    -0.001741683729
       4       -0.000084344741     0.000023639033    -0.000058722520
       5        0.000046786855    -0.000026480006    -0.000041508156
       6        0.000979221292     0.001330970553     0.001091299383
       7       -0.000007296608     0.000043140767    -0.000023307110
       8        0.000046342593     0.000027751922     0.000025055236
       9        0.000020504479     0.000020237113    -0.000027622892
      10       -0.000004716168     0.000011597412    -0.000027434060
      11        0.000006394792    -0.000021761650     0.000034439554
      12        0.000005975045    -0.000018277498    -0.000013159673
      13        0.000005429471     0.000022437797    -0.000011332460
      14        0.000004670925     0.000003104074     0.000008551098
      15        0.000003438518     0.000012868461     0.000004393930
      16       -0.000004702590    -0.000012570739     0.000000753346
      17        0.000001734716     0.000001248156    -0.000000327796
      18        0.000001512972    -0.000001022457    -0.000001823383
      19       -0.000002769302    -0.000001094396     0.000000201262

  **** Optimization is complete! (in 4 steps) ****
    Final optimized geometry and variables:
    Molecular point group: c1

    Geometry (in Angstrom), charge = 0, multiplicity = 1:

    H            3.868344136318     0.327484983334    -0.332570559471
    N            3.096290869092    -0.242265005576    -0.049449303349
    C            1.863099283740     0.530052028866     0.009367445172
    H            3.320392684323    -0.639132182007     0.841780849582
    C            0.643836898108    -0.384059798129    -0.039352762755
    H            1.853099077480     1.205030275152    -0.840977941702
    H            1.804454734319     1.164852853354     0.896846338871
    C           -0.681448365022     0.376166430017     0.022068720517
    H            0.696496728033    -0.977398150342    -0.947521926760
    H            0.697227308326    -1.087745476157     0.790255190211
    C           -1.905316170906    -0.540750846071    -0.020966806715
    H           -0.733312722713     1.079632880674    -0.807836972175
    H           -0.716363988481     0.975675865932     0.930657472895
    C           -3.227471918528     0.223348271085     0.038613474324
    H           -1.874378507735    -1.138517961316    -0.929186135387
    H           -1.857165937572    -1.243675990881     0.808003068279
    H           -3.321021621163     0.910825144271    -0.797428148563
    H           -4.075562863623    -0.453719859116     0.005951955832
    H           -3.303701143851     0.804806827150     0.953238466616

  Mulliken Charges: (a.u.)
   Center  Symbol    Alpha    Beta     Spin     Total
       1     H     0.33133  0.33133  0.00000  0.33735
       2     N     3.92468  3.92468  0.00000 -0.84937
       3     C     3.06265  3.06265  0.00000 -0.12531
       4     H     0.33370  0.33370  0.00000  0.33260
       5     C     3.14613  3.14613  0.00000 -0.29226
       6     H     0.42201  0.42201  0.00000  0.15599
       7     H     0.43362  0.43362  0.00000  0.13276
       8     C     3.15579  3.15579  0.00000 -0.31157
       9     H     0.41462  0.41462  0.00000  0.17077
      10     H     0.42674  0.42674  0.00000  0.14653
      11     C     3.15058  3.15058  0.00000 -0.30116
      12     H     0.42446  0.42446  0.00000  0.15108
      13     H     0.42528  0.42528  0.00000  0.14944
      14     C     3.23921  3.23921  0.00000 -0.47841
      15     H     0.42204  0.42204  0.00000  0.15591
      16     H     0.42322  0.42322  0.00000  0.15356
      17     H     0.42201  0.42201  0.00000  0.15597
      18     H     0.41954  0.41954  0.00000  0.16093
      19     H     0.42240  0.42240  0.00000  0.15520

   Total alpha = 25.00000, Total beta = 25.00000, Total charge = -0.00000
