                              Psi4 1.0.54 Driver

  ==> Input File <==

--------------------------------------------------------------------------
set {
	reference rhf
	basis cc-pvtz
}

set_num_threads( 4 )
memory 2 gb

molecule MOL {
0 1

H	 0.805786	 6.866325	 0.095377
C	 -0.203917	 6.515622	 -0.084552
C	 -0.242422	 4.998354	 -0.231994
H	 -0.820041	 6.840817	 0.746625
H	 -0.570208	 7.007210	 -0.980081
C	 -1.649743	 4.468441	 -0.497720
H	 0.151820	 4.541467	 0.668432
H	 0.412337	 4.700279	 -1.047633
C	 -1.718205	 2.952811	 -0.656040
H	 -2.308155	 4.768868	 0.307926
H	 -2.033680	 4.923514	 -1.406172
C	 -1.518730	 2.170766	 0.631243
H	 -2.695630	 2.665589	 -1.035393
H	 -1.002488	 2.606378	 -1.395805
C	 -1.180025	 0.697761	 0.509157
O	 -1.642251	 2.681789	 1.697486
C	 -2.285431	 -0.137488	 -0.145671
H	 -0.980640	 0.334594	 1.508254
H	 -0.265532	 0.602935	 -0.070419
C	 -3.646545	 0.082747	 0.508954
H	 -2.348635	 0.118247	 -1.199806
H	 -2.034895	 -1.192387	 -0.096473
C	 -4.757412	 -0.737227	 -0.138149
H	 -3.900211	 1.137405	 0.459735
H	 -3.580878	 -0.166775	 1.564416
H	 -4.867876	 -0.486707	 -1.187777
H	 -4.549650	 -1.800049	 -0.072540
H	 -5.709585	 -0.556397	 0.346597

	symmetry c1
}
set optking {
	frozen_dihedral = ("
		12 15 17 21
	")
}

ee,wfn = optimize('scf', return_wfn=True)
oeprop( wfn, 'DIPOLE', 'QUADRUPOLE', 'MULLIKEN_CHARGES')
f=open( 'psi4out.xyz', 'w' )
f.write( "28  " )
f.write( str(ee) + "\n" )
f.write( MOL.save_string_xyz() )
f.close()
--------------------------------------------------------------------------

    Molecular point group: c1
  Charge       = 0
  Multiplicity = 1
  Basis Set: CC-PVTZ
  Basis Set:
  @DF-RHF Final Energy:  -426.31798894473570
    Total Energy =                       -426.3179889447358164
    Molecular point group: c1
  Basis Set: CC-PVTZ
  Basis Set:
  Basis Set: CC-PVTZ
  Basis Set:
  @DF-RHF Final Energy:  -426.31865238414309
    Total Energy =                       -426.3186523841435474
  Basis Set: CC-PVTZ
  Basis Set:
  Basis Set: CC-PVTZ
  Basis Set:
  @DF-RHF Final Energy:  -426.31747005701709
    Total Energy =                       -426.3174700570170899
  Basis Set: CC-PVTZ
  Basis Set:
  Basis Set: CC-PVTZ
  Basis Set:
  @DF-RHF Final Energy:  -426.31879679762915
    Total Energy =                       -426.3187967976293749
  Basis Set: CC-PVTZ
  Basis Set:
  Basis Set: CC-PVTZ
  Basis Set:
  @DF-RHF Final Energy:  -426.31882253656784
    Total Energy =                       -426.3188225365670405
  Basis Set: CC-PVTZ
  Basis Set:
  Basis Set: CC-PVTZ
  Basis Set:
  @DF-RHF Final Energy:  -426.31882616857865
    Total Energy =                       -426.3188261685788802
  Basis Set: CC-PVTZ
  Basis Set:
  Basis Set: CC-PVTZ
  Basis Set:
  @DF-RHF Final Energy:  -426.31882768783669
    Total Energy =                       -426.3188276878363467
  Basis Set: CC-PVTZ
  Basis Set:
  Charge       = 0
  Multiplicity = 1
  Basis Set: CC-PVTZ
  Basis Set:

    Orbital Energies (a.u.)
    -----------------------

    Doubly Occupied:

       1A    -20.537057     2A    -11.316541     3A    -11.229490
       4A    -11.228473     5A    -11.226919     6A    -11.220862
       7A    -11.214656     8A    -11.212796     9A    -11.210178
      10A    -11.203624    11A     -1.396997    12A     -1.095295
      13A     -1.078015    14A     -1.021725    15A     -0.991898
      16A     -0.907351    17A     -0.874448    18A     -0.813607
      19A     -0.797611    20A     -0.721937    21A     -0.665454
      22A     -0.655038    23A     -0.630311    24A     -0.616057
      25A     -0.610053    26A     -0.586794    27A     -0.585195
      28A     -0.573436    29A     -0.546854    30A     -0.534936
      31A     -0.518664    32A     -0.510007    33A     -0.503521
      34A     -0.485894    35A     -0.476205    36A     -0.471973
      37A     -0.468600    38A     -0.464052    39A     -0.457713
      40A     -0.394734

  @DF-RHF Final Energy:  -426.31882799535515

   => Energetics <=

    Nuclear Repulsion Energy =            542.4520710528991003
    One-Electron Energy =               -1653.4318626037872946
    Two-Electron Energy =                 684.6609635555328168
    DFT Exchange-Correlation Energy =       0.0000000000000000
    Empirical Dispersion Energy =           0.0000000000000000
    PCM Polarization Energy =               0.0000000000000000
    EFP Energy =                            0.0000000000000000
    Total Energy =                       -426.3188279953553774
    Molecular point group: c1
  Basis Set: CC-PVTZ
  Basis Set:

  -Total Gradient:
     Atom            X                  Y                   Z
    ------   -----------------  -----------------  -----------------
       1       -0.000007604069    -0.000000595549    -0.000002913342
       2       -0.000000303130     0.000000143173    -0.000005922231
       3        0.000000906266     0.000006664497    -0.000000030706
       4        0.000005934309    -0.000005102836    -0.000007617508
       5        0.000004566045    -0.000006040176     0.000011809013
       6       -0.000004496083    -0.000022399782    -0.000009629059
       7       -0.000009819410     0.000003248753    -0.000010311053
       8       -0.000005166126     0.000002558267     0.000007828845
       9        0.000018445136     0.000026672813     0.000013990128
      10        0.000008499635    -0.000000570989    -0.000006946305
      11        0.000005916528    -0.000000742582     0.000012504296
      12       -0.000590725590    -0.000187490523     0.001549241365
      13        0.000002861568    -0.000004948892    -0.000003421980
      14       -0.000013455494     0.000002276594     0.000012621026
      15        0.001129878705    -0.000096871894    -0.002251180665
      16        0.000016783838    -0.000050979884    -0.000066982523
      17       -0.001877317267     0.001988295637     0.001303414023
      18        0.000004966793     0.000004195168    -0.000005586064
      19       -0.000003406162     0.000008925679     0.000010627943
      20       -0.000013950571    -0.000018930208     0.000000332583
      21        0.001310670117    -0.001689154979    -0.000560066952
      22        0.000005165793     0.000036663139     0.000010024282
      23       -0.000001959512     0.000014367430     0.000002504905
      24        0.000006767715    -0.000006870418    -0.000000504123
      25       -0.000009357544    -0.000000013079    -0.000006868672
      26       -0.000000762657     0.000000021491     0.000006401945
      27        0.000003067305    -0.000000268178     0.000003899005
      28        0.000013893860    -0.000003052667    -0.000007218171

  **** Optimization is complete! (in 8 steps) ****
    Final optimized geometry and variables:
    Molecular point group: c1

    Geometry (in Angstrom), charge = 0, multiplicity = 1:

    H            2.838495867039     4.444022271165    -0.070777264306
    C            1.822404718070     4.110738616235    -0.247731409225
    C            1.760905547255     2.596734535630    -0.418397519370
    H            1.217971142186     4.431589392488     0.593659179742
    H            1.455994274507     4.621722164033    -1.132304405017
    C            0.344172718788     2.091772693987    -0.682889932915
    H            2.154093949083     2.119575401342     0.471440251063
    H            2.405099208092     2.302287710611    -1.243691005960
    C            0.250458466295     0.579954543170    -0.862196704492
    H           -0.304915174413     2.392081896996     0.130614927031
    H           -0.037385287214     2.565837190282    -1.582599250283
    C            0.423225104515    -0.227721061976     0.412684496979
    H           -0.723547308380     0.313202395907    -1.264251102269
    H            0.972426393980     0.230585823889    -1.594905734810
    C            0.621342131537    -1.724855171468     0.262215107558
    O            0.393402751411     0.279975879990     1.486950325056
    C           -0.587019906526    -2.473126251349    -0.318831580276
    H            0.852912684701    -2.108104430248     1.247070818760
    H            1.484307424155    -1.895076196603    -0.374086419972
    C           -1.891579256262    -2.254064106582     0.442816350403
    H           -0.714667188379    -2.220775119895    -1.367368461893
    H           -0.346777730601    -3.531797354653    -0.305066491111
    C           -3.044221677816    -3.079521546060    -0.118730137628
    H           -2.162760491543    -1.203089050683     0.424971113179
    H           -1.739201917917    -2.504907539242     1.488010422568
    H           -3.239128373982    -2.827168789189    -1.155906205514
    H           -2.824381612139    -4.140899376830    -0.073735455908
    H           -3.956357638392    -2.906867073174     0.440029321025

  Mulliken Charges: (a.u.)
   Center  Symbol    Alpha    Beta     Spin     Total
       1     H     0.44868  0.44868  0.00000  0.10265
       2     C     3.15190  3.15190  0.00000 -0.30380
       3     C     3.08423  3.08423  0.00000 -0.16847
       4     H     0.45192  0.45192  0.00000  0.09617
       5     H     0.45705  0.45705  0.00000  0.08589
       6     C     3.08720  3.08720  0.00000 -0.17441
       7     H     0.44510  0.44510  0.00000  0.10981
       8     H     0.45861  0.45861  0.00000  0.08277
       9     C     3.12744  3.12744  0.00000 -0.25488
      10     H     0.44483  0.44483  0.00000  0.11034
      11     H     0.44782  0.44782  0.00000  0.10436
      12     C     2.86042  2.86042  0.00000  0.27916
      13     H     0.43435  0.43435  0.00000  0.13129
      14     H     0.44246  0.44246  0.00000  0.11509
      15     C     3.10572  3.10572  0.00000 -0.21144
      16     O     4.18138  4.18138  0.00000 -0.36276
      17     C     3.11639  3.11639  0.00000 -0.23277
      18     H     0.43755  0.43755  0.00000  0.12491
      19     H     0.44065  0.44065  0.00000  0.11871
      20     C     3.08341  3.08341  0.00000 -0.16683
      21     H     0.44873  0.44873  0.00000  0.10255
      22     H     0.44091  0.44091  0.00000  0.11818
      23     C     3.15071  3.15071  0.00000 -0.30143
      24     H     0.45070  0.45070  0.00000  0.09861
      25     H     0.44625  0.44625  0.00000  0.10750
      26     H     0.45557  0.45557  0.00000  0.08886
      27     H     0.45411  0.45411  0.00000  0.09178
      28     H     0.44592  0.44592  0.00000  0.10816

   Total alpha = 40.00000, Total beta = 40.00000, Total charge =  0.00000

*** Psi4 exiting successfully. Buy a developer a beer!
