                              Psi4 1.0.54 Driver

  ==> Input File <==

--------------------------------------------------------------------------
set {
	reference rhf
	basis cc-pvtz
}

set_num_threads( 4 )
memory 2 gb

molecule MOL {
0 1

H	 -2.831826	 0.439977	 0.215074
O	 -2.041679	 -0.058866	 0.103463
C	 -0.959304	 0.780994	 -0.094939
C	 0.354905	 0.037902	 -0.006215
H	 -0.985899	 1.279578	 -1.057596
H	 -0.969809	 1.529522	 0.682889
F	 0.412060	 -0.931028	 -0.902708
F	 1.359641	 0.856111	 -0.239961
F	 0.545380	 -0.506387	 1.171682

	symmetry c1
}
set optking {
	frozen_dihedral = ("
		1 2 3 5
	")
}

ee,wfn = optimize('scf', return_wfn=True)
oeprop( wfn, 'DIPOLE', 'QUADRUPOLE', 'MULLIKEN_CHARGES')
f=open( 'psi4out.xyz', 'w' )
f.write( "9  " )
f.write( str(ee) + "\n" )
f.write( MOL.save_string_xyz() )
f.close()
--------------------------------------------------------------------------

    Molecular point group: c1
  Charge       = 0
  Multiplicity = 1
  Basis Set: CC-PVTZ
  Basis Set:
  @DF-RHF Final Energy:  -450.84295629821162
    Total Energy =                       -450.8429562982114476
    Molecular point group: c1
  Basis Set: CC-PVTZ
  Basis Set:
  Basis Set: CC-PVTZ
  Basis Set:
  @DF-RHF Final Energy:  -450.84432430475437
    Total Energy =                       -450.8443243047541387
  Basis Set: CC-PVTZ
  Basis Set:
  Basis Set: CC-PVTZ
  Basis Set:
  @DF-RHF Final Energy:  -450.84458518047182
    Total Energy =                       -450.8445851804715971
  Basis Set: CC-PVTZ
  Basis Set:
  Basis Set: CC-PVTZ
  Basis Set:
  @DF-RHF Final Energy:  -450.84459639367810
    Total Energy =                       -450.8445963936781595
  Basis Set: CC-PVTZ
  Basis Set:
  Basis Set: CC-PVTZ
  Basis Set:
  @DF-RHF Final Energy:  -450.84459843270787
    Total Energy =                       -450.8445984327075848
  Basis Set: CC-PVTZ
  Basis Set:
  Charge       = 0
  Multiplicity = 1
  Basis Set: CC-PVTZ
  Basis Set:

    Orbital Energies (a.u.)
    -----------------------

    Doubly Occupied:

       1A    -26.333633     2A    -26.330115     3A    -26.330046
       4A    -20.582683     5A    -11.490918     6A    -11.310030
       7A     -1.741965     8A     -1.638125     9A     -1.636610
      10A     -1.406463    11A     -1.050856    12A     -0.923372
      13A     -0.833325    14A     -0.831607    15A     -0.788136
      16A     -0.738263    17A     -0.714296    18A     -0.703998
      19A     -0.673223    20A     -0.657292    21A     -0.643265
      22A     -0.641851    23A     -0.600490    24A     -0.530483
      25A     -0.483750

  @DF-RHF Final Energy:  -450.84459854978644

   => Energetics <=

    Nuclear Repulsion Energy =            277.8437436701495358
    One-Electron Energy =               -1178.1470993879520393
    Two-Electron Energy =                 449.4587571680158931
    DFT Exchange-Correlation Energy =       0.0000000000000000
    Empirical Dispersion Energy =           0.0000000000000000
    PCM Polarization Energy =               0.0000000000000000
    EFP Energy =                            0.0000000000000000
    Total Energy =                       -450.8445985497866673
    Molecular point group: c1
  Basis Set: CC-PVTZ
  Basis Set:

  -Total Gradient:
     Atom            X                  Y                   Z
    ------   -----------------  -----------------  -----------------
       1        0.000019871178     0.000006658512     0.000163437115
       2        0.000000728930    -0.000036128911    -0.000196517499
       3       -0.000110821971     0.000126178715     0.000084416507
       4        0.000043235945     0.000001106756    -0.000000095114
       5        0.000095379725    -0.000092468967    -0.000054554438
       6       -0.000005298497    -0.000013717838    -0.000000691487
       7       -0.000022305899    -0.000007310228    -0.000004200017
       8       -0.000019212192    -0.000007454311     0.000026481706
       9       -0.000001577222     0.000023136271    -0.000018276772

  **** Optimization is complete! (in 6 steps) ****
    Final optimized geometry and variables:
    Molecular point group: c1

    Geometry (in Angstrom), charge = 0, multiplicity = 1:

    H           -2.811523928243     0.327331320904     0.159035841378
    O           -1.991099743435    -0.124122589456     0.085783846254
    C           -0.957612117562     0.779052285987    -0.110823175307
    C            0.349840505161     0.029454868699    -0.017957494064
    H           -0.992905080139     1.241684322339    -1.091008298454
    H           -0.933718909044     1.555571265327     0.645293445242
    F            0.441289416404    -0.918332043247    -0.920991030322
    F            1.349434372861     0.868161618796    -0.215531607438
    F            0.520836466780    -0.521761458916     1.160850209647

  Mulliken Charges: (a.u.)
   Center  Symbol    Alpha    Beta     Spin     Total
       1     H     0.39037  0.39037  0.00000  0.21927
       2     O     4.18471  4.18471  0.00000 -0.36942
       3     C     2.98604  2.98604  0.00000  0.02792
       4     C     2.67635  2.67635  0.00000  0.64729
       5     H     0.46536  0.46536  0.00000  0.06929
       6     H     0.46514  0.46514  0.00000  0.06972
       7     F     4.60882  4.60882  0.00000 -0.21764
       8     F     4.61429  4.61429  0.00000 -0.22858
       9     F     4.60892  4.60892  0.00000 -0.21784

   Total alpha = 25.00000, Total beta = 25.00000, Total charge = -0.00000

*** Psi4 exiting successfully. Buy a developer a beer!
