  ==> Input File <==

--------------------------------------------------------------------------
set {
	reference rhf
	basis 6-31G*
}

set_num_threads( 4 )
memory 2 gb

molecule MOL {
0 1

O	 -2.324811	 1.361668	 -0.277141
C	 -2.105949	 0.203097	 -0.092081
C	 -0.889235	 -0.467034	 -0.705952
C	 -3.002726	 -0.644460	 0.782455
C	 -1.276300	 -1.257073	 -1.966571
H	 -0.478813	 -1.145205	 0.034279
H	 -0.128663	 0.269704	 -0.948385
C	 -0.077147	 -1.972994	 -2.592751
H	 -2.047439	 -1.969367	 -1.695711
H	 -1.714710	 -0.583229	 -2.701062
C	 -0.393856	 -2.719923	 -3.893462
H	 0.340071	 -2.671646	 -1.869881
H	 0.702225	 -1.241024	 -2.794366
C	 -1.339841	 -3.910486	 -3.727124
H	 0.541091	 -3.073402	 -4.320799
H	 -0.812339	 -2.022112	 -4.615971
H	 -0.950614	 -4.619717	 -3.001714
H	 -1.464283	 -4.436636	 -4.668442
H	 -2.325596	 -3.603970	 -3.393768
H	 -3.496582	 -1.399307	 0.176174
H	 -3.747939	 -0.023774	 1.260148
H	 -2.421318	 -1.168775	 1.535358

	symmetry c1
}
set optking {
	frozen_dihedral = ("
		6 3 2 1
	")
}

ee = optimize('scf')
oeprop('DIPOLE', 'QUADRUPOLE', 'MULLIKEN_CHARGES')
f=open( 'psi4out.xyz', 'w' )
f.write( "22  " )
f.write( str(ee) + "\n" )
f.write( MOL.save_string_xyz() )
f.close()
--------------------------------------------------------------------------

    Molecular point group: c1
  Charge       = 0
  Multiplicity = 1
  Basis Set: 6-31G*
  Basis Set:
  @DF-RHF Final Energy:  -348.09703123093561
    Total Energy =                       -348.0970312309358405
    Molecular point group: c1
  Basis Set: 6-31G*
  Basis Set:
  Basis Set: 6-31G*
  Basis Set:
  @DF-RHF Final Energy:  -348.09628367261911
    Total Energy =                       -348.0962836726193927
  Basis Set: 6-31G*
  Basis Set:
  Basis Set: 6-31G*
  Basis Set:
  @DF-RHF Final Energy:  -348.09708569505074
    Total Energy =                       -348.0970856950505663
  Basis Set: 6-31G*
  Basis Set:
  Basis Set: 6-31G*
  Basis Set:
  @DF-RHF Final Energy:  -348.09792514502243
    Total Energy =                       -348.0979251450224865
  Basis Set: 6-31G*
  Basis Set:
  @DF-RHF Final Energy:  -348.09777708102149
    Total Energy =                       -348.0977770810216043
  @DF-RHF Final Energy:  -348.09796099426148
    Total Energy =                       -348.0979609942617117
  Basis Set: 6-31G*
  Basis Set:
  @DF-RHF Final Energy:  -348.09805308005252
    Total Energy =                       -348.0980530800521819
  Basis Set: 6-31G*
  Basis Set:
  Basis Set: 6-31G*
  Basis Set:
  @DF-RHF Final Energy:  -348.09795136259612
    Total Energy =                       -348.0979513625964614
  Basis Set: 6-31G*
  Basis Set:
  Basis Set: 6-31G*
  Basis Set:
  @DF-RHF Final Energy:  -348.09808173069092
    Total Energy =                       -348.0980817306909785
  Basis Set: 6-31G*
  Basis Set:
  Charge       = 0
  Multiplicity = 1
  Basis Set: 6-31G*
  Basis Set:

    Orbital Energies (a.u.)
    -----------------------

    Doubly Occupied:

       1A    -20.547646     2A    -11.324139     3A    -11.231719
       4A    -11.229283     5A    -11.227625     6A    -11.223900
       7A    -11.221971     8A    -11.214310     9A     -1.392992
      10A     -1.097506    11A     -1.045453    12A     -0.998452
      13A     -0.939318    14A     -0.860469    15A     -0.788172
      16A     -0.733122    17A     -0.661454    18A     -0.647453
      19A     -0.626790    20A     -0.619658    21A     -0.597997
      22A     -0.588078    23A     -0.553037    24A     -0.548349
      25A     -0.535929    26A     -0.520116    27A     -0.499169
      28A     -0.489345    29A     -0.471455    30A     -0.466756
      31A     -0.462392    32A     -0.396210

  @DF-RHF Final Energy:  -348.09808116224190

   => Energetics <=

    Nuclear Repulsion Energy =            372.8286394077231307
    One-Electron Energy =               -1210.3329111584830571
    Two-Electron Energy =                 489.4061905885180863
    DFT Exchange-Correlation Energy =       0.0000000000000000
    Empirical Dispersion Energy =           0.0000000000000000
    PCM Polarization Energy =               0.0000000000000000
    EFP Energy =                            0.0000000000000000
    Total Energy =                       -348.0980811622418400
    Molecular point group: c1
  Basis Set: 6-31G*
  Basis Set:

  -Total Gradient:
     Atom            X                  Y                   Z
    ------   -----------------  -----------------  -----------------
       1        0.000444368181     0.000181549389     0.000611475515
       2       -0.000528715457    -0.000113501514    -0.000725507909
       3       -0.000421105843    -0.000668607178    -0.000101223311
       4       -0.000039307470     0.000014553717    -0.000065783371
       5        0.000001779197    -0.000077436709     0.000030289679
       6        0.000474807581     0.000625135375     0.000228673342
       7        0.000041712578     0.000017797267     0.000004138111
       8       -0.000011347244     0.000027073716     0.000022396688
       9        0.000001398057     0.000031537872     0.000027184784
      10        0.000033772874    -0.000044136397    -0.000038175393
      11        0.000004428071     0.000038231030    -0.000034490507
      12       -0.000009031266    -0.000021698480    -0.000018286199
      13       -0.000011908926     0.000026921100     0.000062288200
      14       -0.000010872032    -0.000002443557     0.000007034436
      15       -0.000014078708    -0.000007764879     0.000005442009
      16        0.000016588391    -0.000004982224    -0.000041425408
      17        0.000001339931    -0.000004510421    -0.000013844656
      18       -0.000011189042     0.000009139810     0.000001394195
      19        0.000004134312    -0.000021022411     0.000001047100
      20        0.000004489099    -0.000008593766     0.000019980242
      21        0.000004236339    -0.000001010505     0.000013991122
      22        0.000024501380     0.000003768759     0.000003401331

  **** Optimization is complete! (in 10 steps) ****
    Final optimized geometry and variables:
    Molecular point group: c1

    Geometry (in Angstrom), charge = 0, multiplicity = 1:

    O           -0.862977922939     2.549974921952     1.255779204376
    C           -0.655440853220     1.396587649230     1.481083977778
    C            0.535000287174     0.678838638589     0.871411675614
    C           -1.562684273715     0.596481999892     2.391913038434
    C            0.146977556284    -0.112830532928    -0.387992246320
    H            0.978742904320     0.010840807173     1.605917489172
    H            1.270096929727     1.433196858554     0.616662480843
    C            1.353656664944    -0.806668499005    -1.025565173362
    H           -0.613613514694    -0.847055539745    -0.139465097488
    H           -0.299922756987     0.570333520520    -1.105863281650
    C            1.050858014372    -1.518027765226    -2.349235560909
    H            1.771858077462    -1.522724255131    -0.319916032178
    H            2.128001020460    -0.063513882852    -1.200855445675
    C            0.103355362299    -2.712910472175    -2.227537647434
    H            1.990422412384    -1.860103868988    -2.775532627446
    H            0.640572114820    -0.800728718610    -3.056723181771
    H            0.483245105089    -3.441938891763    -1.516692959358
    H           -0.008581339023    -3.213437361936    -3.184162584674
    H           -0.887523842525    -2.415663385798    -1.900214765628
    H           -1.830748568388    -0.357612297742     1.950343329350
    H           -2.456377090689     1.164535641211     2.609836163155
    H           -1.040221976449     0.385338864278     3.321518290972

  Mulliken Charges: (a.u.)
   Center  Symbol    Alpha    Beta     Spin     Total
       1     O     4.26077  4.26077  0.00000 -0.52155
       2     C     2.73684  2.73684  0.00000  0.52632
       3     C     3.20102  3.20102  0.00000 -0.40203
       4     C     3.28965  3.28965  0.00000 -0.57930
       5     C     3.16551  3.16551  0.00000 -0.33101
       6     H     0.41603  0.41603  0.00000  0.16793
       7     H     0.40024  0.40024  0.00000  0.19953
       8     C     3.15252  3.15252  0.00000 -0.30504
       9     H     0.41805  0.41805  0.00000  0.16389
      10     H     0.40986  0.40986  0.00000  0.18027
      11     C     3.15352  3.15352  0.00000 -0.30703
      12     H     0.42315  0.42315  0.00000  0.15370
      13     H     0.41814  0.41814  0.00000  0.16371
      14     C     3.24205  3.24205  0.00000 -0.48410
      15     H     0.41898  0.41898  0.00000  0.16204
      16     H     0.42068  0.42068  0.00000  0.15864
      17     H     0.42207  0.42207  0.00000  0.15586
      18     H     0.41721  0.41721  0.00000  0.16557
      19     H     0.42047  0.42047  0.00000  0.15906
      20     H     0.41001  0.41001  0.00000  0.17999
      21     H     0.39680  0.39680  0.00000  0.20640
      22     H     0.40642  0.40642  0.00000  0.18715

   Total alpha = 32.00000, Total beta = 32.00000, Total charge = -0.00000
