  ==> Input File <==

--------------------------------------------------------------------------
set {
	reference rhf
	basis 6-31G*
}

set_num_threads( 4 )
memory 2 gb

molecule MOL {
0 1

H	 -3.420663	 1.227371	 -1.044276
O	 -3.452007	 0.283848	 -0.965577
C	 -3.181085	 -0.079926	 0.364119
C	 -1.765924	 0.277073	 0.805136
H	 -3.327791	 -1.152017	 0.410903
H	 -3.905698	 0.375695	 1.036898
C	 -1.460114	 -0.114569	 2.251378
H	 -1.053374	 -0.205184	 0.135313
H	 -1.626806	 1.348872	 0.674310
C	 -0.030664	 0.227568	 2.676576
H	 -1.635224	 -1.178621	 2.377237
H	 -2.163440	 0.390458	 2.911434
C	 0.266113	 -0.162003	 4.127178
H	 0.666305	 -0.271771	 2.007761
H	 0.138463	 1.296345	 2.551217
C	 1.657914	 0.240989	 4.627820
H	 0.140937	 -1.237407	 4.243505
H	 -0.479154	 0.300530	 4.770960
C	 2.816203	 -0.478078	 3.933765
H	 1.711876	 0.038446	 5.694757
H	 1.782371	 1.316396	 4.517305
H	 2.711667	 -1.556623	 4.017149
H	 3.765420	 -0.203425	 4.383643
H	 2.873780	 -0.231844	 2.878674

	symmetry c1
}
set optking {
	frozen_dihedral = ("
		7 4 3 2
	")
}

ee = optimize('scf')
oeprop('DIPOLE', 'QUADRUPOLE', 'MULLIKEN_CHARGES')
f=open( 'psi4out.xyz', 'w' )
f.write( "24  " )
f.write( str(ee) + "\n" )
f.write( MOL.save_string_xyz() )
f.close()
--------------------------------------------------------------------------

    Molecular point group: c1
  Charge       = 0
  Multiplicity = 1
  Basis Set: 6-31G*
  Basis Set:
  @DF-RHF Final Energy:  -349.24737970063893
    Total Energy =                       -349.2473797006387031
    Molecular point group: c1
  Basis Set: 6-31G*
  Basis Set:
  Basis Set: 6-31G*
  Basis Set:
  @DF-RHF Final Energy:  -349.24748025714757
    Total Energy =                       -349.2474802571475720
  Basis Set: 6-31G*
  Basis Set:
  Basis Set: 6-31G*
  Basis Set:
  @DF-RHF Final Energy:  -349.24749191573528
    Total Energy =                       -349.2474919157355089
  Basis Set: 6-31G*
  Basis Set:
  Basis Set: 6-31G*
  Basis Set:
  @DF-RHF Final Energy:  -349.24749059897550
    Total Energy =                       -349.2474905989755030
  Basis Set: 6-31G*
  Basis Set:
  Basis Set: 6-31G*
  Basis Set:
  @DF-RHF Final Energy:  -349.24749212105854
    Total Energy =                       -349.2474921210585990
  Basis Set: 6-31G*
  Basis Set:
  Charge       = 0
  Multiplicity = 1
  Basis Set: 6-31G*
  Basis Set:

    Orbital Energies (a.u.)
    -----------------------

    Doubly Occupied:

       1A    -20.552088     2A    -11.266742     3A    -11.219778
       4A    -11.216609     5A    -11.216559     6A    -11.216361
       7A    -11.215084     8A    -11.209023     9A     -1.359062
      10A     -1.092977    11A     -1.051639    12A     -0.986764
      13A     -0.914635    14A     -0.850970    15A     -0.805397
      16A     -0.779380    17A     -0.692425    18A     -0.651793
      19A     -0.625471    20A     -0.606872    21A     -0.604461
      22A     -0.588233    23A     -0.559194    24A     -0.536443
      25A     -0.526605    26A     -0.514123    27A     -0.488542
      28A     -0.483100    29A     -0.472231    30A     -0.462077
      31A     -0.456744    32A     -0.453597    33A     -0.419939

  @DF-RHF Final Energy:  -349.24749302686428

   => Energetics <=

    Nuclear Repulsion Energy =            379.8684104461035531
    One-Electron Energy =               -1226.0419688717583995
    Two-Electron Energy =                 496.9260653987909109
    DFT Exchange-Correlation Energy =       0.0000000000000000
    Empirical Dispersion Energy =           0.0000000000000000
    PCM Polarization Energy =               0.0000000000000000
    EFP Energy =                            0.0000000000000000
    Total Energy =                       -349.2474930268639355
    Molecular point group: c1
  Basis Set: 6-31G*
  Basis Set:

  -Total Gradient:
     Atom            X                  Y                   Z
    ------   -----------------  -----------------  -----------------
       1       -0.000001263813     0.000004674118    -0.000002914679
       2       -0.000131296716     0.000380440934     0.000128092586
       3        0.000131129588    -0.000379100833    -0.000122623756
       4        0.000110541562    -0.000328421770    -0.000091674254
       5        0.000001584046    -0.000008535540     0.000007761223
       6        0.000000668422     0.000006907046    -0.000010890384
       7       -0.000109174951     0.000328899682     0.000125381185
       8        0.000011934161    -0.000005808057    -0.000004153465
       9       -0.000003826710    -0.000009491834    -0.000002886327
      10        0.000003655790    -0.000000253598    -0.000008457060
      11        0.000001891031     0.000010476996     0.000001369110
      12       -0.000008528401     0.000002771487    -0.000009799142
      13       -0.000009409921    -0.000005148688    -0.000001435147
      14        0.000004027998     0.000000249351    -0.000005294026
      15       -0.000000541853     0.000003727138     0.000001375025
      16       -0.000002813801     0.000002407595    -0.000005376915
      17        0.000000308029    -0.000001016597     0.000003215032
      18       -0.000000621387    -0.000001661339    -0.000000261727
      19        0.000002395652    -0.000000143045    -0.000001458709
      20       -0.000003568349    -0.000000980618    -0.000001366042
      21        0.000001308899     0.000000805499     0.000001734342
      22        0.000001122541    -0.000000272591     0.000001122225
      23        0.000000581788     0.000000584601    -0.000001237676
      24       -0.000000103602    -0.000001109939    -0.000000221418

  **** Optimization is complete! (in 6 steps) ****
    Final optimized geometry and variables:
    Molecular point group: c1

    Geometry (in Angstrom), charge = 0, multiplicity = 1:

    H           -2.709484124961     1.191433796709    -3.216602894709
    O           -2.768482972250     0.250559377406    -3.126264159413
    C           -2.499146455019    -0.106021628700    -1.795501992176
    C           -1.076336618823     0.238924742065    -1.372627767998
    H           -2.658038932225    -1.175532953689    -1.737871001383
    H           -3.215495649093     0.362914631415    -1.121980355807
    C           -0.775062968388    -0.146634320685     0.076525567161
    H           -0.385294558645    -0.258907423510    -2.047491366042
    H           -0.918750437364     1.309829556915    -1.501752369329
    C            0.652958541301     0.196394732469     0.506225859471
    H           -0.941291410082    -1.214679649516     0.207159815908
    H           -1.479473542365     0.354083534120     0.738665714083
    C            0.948862814127    -0.198799892878     1.955367288135
    H            1.350708996877    -0.297351686356    -0.164931854609
    H            0.816768199532     1.266265509775     0.385693550968
    C            2.338584264722     0.207624001305     2.458987917857
    H            0.828615113062    -1.275331760901     2.066695939235
    H            0.201053181590     0.257756050105     2.600708748585
    C            3.500168164019    -0.503796199129     1.762641528640
    H            2.392059806504     0.000618857640     3.525000831527
    H            2.458517716168     1.283997699823     2.353298798815
    H            3.400275695676    -1.583062837902     1.841654925162
    H            4.447750648237    -0.226852437316     2.214400958281
    H            3.557482154172    -0.253135446708     0.708646444214

  Mulliken Charges: (a.u.)
   Center  Symbol    Alpha    Beta     Spin     Total
       1     H     0.28338  0.28338  0.00000  0.43323
       2     O     4.37091  4.37091  0.00000 -0.74183
       3     C     2.98796  2.98796  0.00000  0.02408
       4     C     3.16735  3.16735  0.00000 -0.33470
       5     H     0.41654  0.41654  0.00000  0.16692
       6     H     0.43190  0.43190  0.00000  0.13620
       7     C     3.15963  3.15963  0.00000 -0.31926
       8     H     0.41397  0.41397  0.00000  0.17206
       9     H     0.42896  0.42896  0.00000  0.14208
      10     C     3.15288  3.15288  0.00000 -0.30576
      11     H     0.42137  0.42137  0.00000  0.15727
      12     H     0.42311  0.42311  0.00000  0.15378
      13     C     3.15264  3.15264  0.00000 -0.30528
      14     H     0.41999  0.41999  0.00000  0.16002
      15     H     0.42409  0.42409  0.00000  0.15181
      16     C     3.15243  3.15243  0.00000 -0.30486
      17     H     0.42380  0.42380  0.00000  0.15239
      18     H     0.42250  0.42250  0.00000  0.15499
      19     C     3.24131  3.24131  0.00000 -0.48262
      20     H     0.42078  0.42078  0.00000  0.15845
      21     H     0.42346  0.42346  0.00000  0.15309
      22     H     0.42205  0.42205  0.00000  0.15590
      23     H     0.41907  0.41907  0.00000  0.16186
      24     H     0.41991  0.41991  0.00000  0.16018

   Total alpha = 33.00000, Total beta = 33.00000, Total charge = -0.00000
