  ==> Input File <==

--------------------------------------------------------------------------
set {
	reference rhf
	basis cc-pvtz
}

set_num_threads( 4 )
memory 2 gb

molecule MOL {
0 1

H	 1.962320	 0.405961	 0.507325
C	 1.120837	 0.447109	 -0.168637
O	 -0.000000	 0.000000	 0.518769
H	 0.996034	 1.472542	 -0.510351
H	 1.334657	 -0.178996	 -1.032425
C	 -1.165153	 0.000000	 -0.236961
H	 -1.229451	 0.882440	 -0.870223
H	 -2.002557	 0.000000	 0.445289
H	 -1.229451	 -0.882440	 -0.870223

	symmetry c1
}
set optking {
	frozen_dihedral = ("
		2 3 6 7
	")
}

ee = optimize('scf')
oeprop('DIPOLE', 'QUADRUPOLE', 'MULLIKEN_CHARGES')
f=open( 'psi4out.xyz', 'w' )
f.write( "9  " )
f.write( str(ee) + "\n" )
f.write( MOL.save_string_xyz() )
f.close()
--------------------------------------------------------------------------

    Molecular point group: c1
  Charge       = 0
  Multiplicity = 1
  Basis Set: CC-PVTZ
  Basis Set:
  @DF-RHF Final Energy:  -154.12617231458154
    Total Energy =                       -154.1261723145815097
    Molecular point group: c1
  Basis Set: CC-PVTZ
  Basis Set:
  Basis Set: CC-PVTZ
  Basis Set:
  @DF-RHF Final Energy:  -154.12621663135872
    Total Energy =                       -154.1262166313586874
  Basis Set: CC-PVTZ
  Basis Set:
  Charge       = 0
  Multiplicity = 1
  Basis Set: CC-PVTZ
  Basis Set:

    Orbital Energies (a.u.)
    -----------------------

    Doubly Occupied:

       1A    -20.549473     2A    -11.263410     3A    -11.263126
       4A     -1.381564     5A     -0.975848     6A     -0.872839
       7A     -0.662586     8A     -0.655787     9A     -0.646717
      10A     -0.552882    11A     -0.529787    12A     -0.477012
      13A     -0.418641

  @DF-RHF Final Energy:  -154.12622895880423

   => Energetics <=

    Nuclear Repulsion Energy =             84.7906635653539666
    One-Electron Energy =                -377.3344428703235849
    Two-Electron Energy =                 138.4175503461655694
    DFT Exchange-Correlation Energy =       0.0000000000000000
    Empirical Dispersion Energy =           0.0000000000000000
    PCM Polarization Energy =               0.0000000000000000
    EFP Energy =                            0.0000000000000000
    Total Energy =                       -154.1262289588040630
    Molecular point group: c1
  Basis Set: CC-PVTZ
  Basis Set:

  -Total Gradient:
     Atom            X                  Y                   Z
    ------   -----------------  -----------------  -----------------
       1       -0.000059130945    -0.000023040235     0.000038793375
       2       -0.000359952632     0.001931374594     0.000456320721
       3        0.000937293334    -0.003100386428    -0.001249212676
       4        0.000007396832     0.000008633116     0.000017105811
       5        0.000011856337     0.000002977259     0.000012421112
       6       -0.001619642009     0.002422713451     0.002512931472
       7        0.001142194109    -0.001298122099    -0.001862096219
       8       -0.000046652751     0.000002538836     0.000039226964
       9       -0.000013362275     0.000053311506     0.000034509440

  **** Optimization is complete! (in 3 steps) ****
    Final optimized geometry and variables:
    Molecular point group: c1

    Geometry (in Angstrom), charge = 0, multiplicity = 1:

    H            1.980173830956     0.242296735956     0.483917988795
    C            1.139915089315     0.289988406569    -0.193499857474
    O            0.015532284852    -0.148470384856     0.493936554275
    H            1.021516796474     1.316161368913    -0.534023926094
    H            1.353656941488    -0.336507957166    -1.057493372067
    C           -1.154673983344    -0.154385445669    -0.256914774131
    H           -1.224066541689     0.720766549349    -0.898393733355
    H           -1.994024918017    -0.165747667593     0.423390226843
    H           -1.208033118547    -1.035237503933    -0.893518886255

  Mulliken Charges: (a.u.)
   Center  Symbol    Alpha    Beta     Spin     Total
       1     H     0.44874  0.44874  0.00000  0.10252
       2     C     3.02192  3.02192  0.00000 -0.04384
       3     O     4.16870  4.16870  0.00000 -0.33740
       4     H     0.47203  0.47203  0.00000  0.05594
       5     H     0.47377  0.47377  0.00000  0.05246
       6     C     3.02046  3.02046  0.00000 -0.04092
       7     H     0.47553  0.47553  0.00000  0.04894
       8     H     0.44983  0.44983  0.00000  0.10033
       9     H     0.46902  0.46902  0.00000  0.06196

   Total alpha = 13.00000, Total beta = 13.00000, Total charge =  0.00000
