  ==> Input File <==

--------------------------------------------------------------------------
set {
	reference rhf
	basis 6-31G*
}

set_num_threads( 4 )
memory 2 gb

molecule MOL {
0 1

H	 3.264554	 1.068809	 2.238421
N	 2.432771	 0.510570	 2.245675
C	 1.522815	 0.926693	 1.188155
H	 2.007446	 0.636685	 3.144576
C	 0.302525	 0.013290	 1.139754
H	 2.058957	 0.858913	 0.246446
H	 1.195050	 1.964504	 1.287744
C	 -0.679275	 0.379305	 0.025956
H	 0.644896	 -1.010224	 1.017129
H	 -0.210617	 0.053852	 2.100158
C	 -1.903357	 -0.536963	 -0.023547
H	 -0.166275	 0.341841	 -0.933875
H	 -1.008985	 1.409156	 0.154589
C	 -3.225172	 0.228290	 0.028445
H	 -1.867824	 -1.134999	 -0.931459
H	 -1.860449	 -1.239604	 0.805977
H	 -3.313397	 0.915643	 -0.808262
H	 -4.073500	 -0.448134	 -0.008893
H	 -3.306061	 0.809945	 0.942516

	symmetry c1
}
set optking {
	frozen_dihedral = ("
		12 8 11 15
	")
}

ee = optimize('scf')
oeprop('DIPOLE', 'QUADRUPOLE', 'MULLIKEN_CHARGES')
f=open( 'psi4out.xyz', 'w' )
f.write( "19  " )
f.write( str(ee) + "\n" )
f.write( MOL.save_string_xyz() )
f.close()
--------------------------------------------------------------------------

    Molecular point group: c1
  Charge       = 0
  Multiplicity = 1
  Basis Set: 6-31G*
  Basis Set:
  @DF-RHF Final Energy:  -251.34596277889517
    Total Energy =                       -251.3459627788952275
    Molecular point group: c1
  Basis Set: 6-31G*
  Basis Set:
  Basis Set: 6-31G*
  Basis Set:
  @DF-RHF Final Energy:  -251.34619279252706
    Total Energy =                       -251.3461927925270629
  Basis Set: 6-31G*
  Basis Set:
  Basis Set: 6-31G*
  Basis Set:
  @DF-RHF Final Energy:  -251.34627395662446
    Total Energy =                       -251.3462739566243727
  Basis Set: 6-31G*
  Basis Set:
  Charge       = 0
  Multiplicity = 1
  Basis Set: 6-31G*
  Basis Set:

    Orbital Energies (a.u.)
    -----------------------

    Doubly Occupied:

       1A    -15.532475     2A    -11.239494     3A    -11.213669
       4A    -11.212489     5A    -11.209751     6A    -11.207879
       7A     -1.176500     8A     -1.070266     9A     -0.997901
      10A     -0.899541    11A     -0.815019    12A     -0.788425
      13A     -0.662610    14A     -0.639894    15A     -0.612999
      16A     -0.593979    17A     -0.562509    18A     -0.557019
      19A     -0.520326    20A     -0.499523    21A     -0.486560
      22A     -0.464861    23A     -0.454380    24A     -0.447766
      25A     -0.380893

  @DF-RHF Final Energy:  -251.34627407940914

   => Energetics <=

    Nuclear Repulsion Energy =            246.0632235243632238
    One-Electron Energy =                -826.3255402937946883
    Two-Electron Energy =                 328.9160426900224365
    DFT Exchange-Correlation Energy =       0.0000000000000000
    Empirical Dispersion Energy =           0.0000000000000000
    PCM Polarization Energy =               0.0000000000000000
    EFP Energy =                            0.0000000000000000
    Total Energy =                       -251.3462740794089996
    Molecular point group: c1
  Basis Set: 6-31G*
  Basis Set:

  -Total Gradient:
     Atom            X                  Y                   Z
    ------   -----------------  -----------------  -----------------
       1        0.000018881909    -0.000006805473     0.000017356106
       2        0.000032989051     0.000012214190    -0.000011220725
       3       -0.000000615889    -0.000013904426     0.000002539436
       4       -0.000001261251     0.000002229626    -0.000003542404
       5       -0.000047555717     0.000029517594    -0.000030063641
       6        0.000006231510     0.000011498119     0.000000026141
       7        0.000004841422    -0.000004053746     0.000001590417
       8       -0.001228576503     0.001658507658    -0.000777509456
       9       -0.000021412727    -0.000006059945     0.000015645632
      10        0.000003008099     0.000016545929    -0.000000800414
      11        0.001155377051    -0.001594143610     0.001018432877
      12        0.000860909971    -0.001158120141     0.000507123383
      13       -0.000015553155    -0.000004055493     0.000006303421
      14        0.000019258508    -0.000024917639     0.000001606181
      15       -0.000796173164     0.001085021222    -0.000750784672
      16        0.000004916853     0.000004748492     0.000001269594
      17        0.000010233278     0.000003796112     0.000008307081
      18       -0.000010205072    -0.000005539894    -0.000007460103
      19        0.000004705829    -0.000006478576     0.000001181147

  **** Optimization is complete! (in 4 steps) ****
    Final optimized geometry and variables:
    Molecular point group: c1

    Geometry (in Angstrom), charge = 0, multiplicity = 1:

    H            3.514525094523     0.790293329366     1.436972375899
    N            2.679884722402     0.236408849568     1.448517455978
    C            1.767192350061     0.656064821377     0.394586437604
    H            2.259291981681     0.365717054141     2.349197186052
    C            0.542129923296    -0.250489165286     0.352392927091
    H            2.298725603279     0.584764405015    -0.549596057719
    H            1.445375024664     1.695796698455     0.494485884715
    C           -0.445760407388     0.120814456886    -0.756263497264
    H            0.877109423416    -1.276182386619     0.227169255654
    H            0.032903659210    -0.208266259386     1.315087276680
    C           -1.679303712060    -0.808618432281    -0.812419430505
    H            0.078334327031     0.093214594162    -1.708424273887
    H           -0.767131815119     1.150401279343    -0.615736007221
    C           -3.008731093457    -0.052911473536    -0.779422381143
    H           -1.646245334943    -1.409045054883    -1.716920232896
    H           -1.651381159333    -1.508514565511     0.018258105766
    H           -3.089207530350     0.634126066367    -1.617204178973
    H           -3.851963438830    -0.735317922464    -0.828547545009
    H           -3.105077434108     0.528717498007     0.133381626580

  Mulliken Charges: (a.u.)
   Center  Symbol    Alpha    Beta     Spin     Total
       1     H     0.33251  0.33251  0.00000  0.33498
       2     N     3.92181  3.92181  0.00000 -0.84361
       3     C     3.06080  3.06080  0.00000 -0.12160
       4     H     0.33538  0.33538  0.00000  0.32924
       5     C     3.15356  3.15356  0.00000 -0.30712
       6     H     0.42092  0.42092  0.00000  0.15817
       7     H     0.43481  0.43481  0.00000  0.13038
       8     C     3.15892  3.15892  0.00000 -0.31784
       9     H     0.41270  0.41270  0.00000  0.17459
      10     H     0.42777  0.42777  0.00000  0.14446
      11     C     3.15414  3.15414  0.00000 -0.30828
      12     H     0.42089  0.42089  0.00000  0.15822
      13     H     0.42175  0.42175  0.00000  0.15650
      14     C     3.23989  3.23989  0.00000 -0.47978
      15     H     0.41997  0.41997  0.00000  0.16007
      16     H     0.41908  0.41908  0.00000  0.16183
      17     H     0.42176  0.42176  0.00000  0.15648
      18     H     0.42064  0.42064  0.00000  0.15871
      19     H     0.42270  0.42270  0.00000  0.15461

   Total alpha = 25.00000, Total beta = 25.00000, Total charge = -0.00000
