                              Psi4 1.0.54 Driver

  ==> Input File <==

--------------------------------------------------------------------------
set {
	reference rhf
	basis cc-pvtz
}

set_num_threads( 4 )
memory 2 gb

molecule MOL {
0 1

H	 1.348116	 -1.300694	 -0.345546
C	 0.788096	 -0.429819	 0.000000
N	 -0.537714	 -0.645117	 0.000000
O	 1.333201	 0.575690	 0.329441
C	 -1.522613	 0.412524	 0.000000
H	 -0.845894	 -1.585866	 0.000000
H	 -2.150256	 0.356137	 -0.880771
H	 -1.005621	 1.357208	 0.000000
H	 -2.150256	 0.356137	 0.880771

	symmetry c1
}
set optking {
	frozen_dihedral = ("
		1 2 3 6
	")
}

ee,wfn = optimize('scf', return_wfn=True)
oeprop( wfn, 'DIPOLE', 'QUADRUPOLE', 'MULLIKEN_CHARGES')
f=open( 'psi4out.xyz', 'w' )
f.write( "9  " )
f.write( str(ee) + "\n" )
f.write( MOL.save_string_xyz() )
f.close()
--------------------------------------------------------------------------

    Molecular point group: c1
  Charge       = 0
  Multiplicity = 1
  Basis Set: CC-PVTZ
  Basis Set:
  @DF-RHF Final Energy:  -208.03903929057589
    Total Energy =                       -208.0390392905757722
    Molecular point group: c1
  Basis Set: CC-PVTZ
  Basis Set:
  Basis Set: CC-PVTZ
  Basis Set:
  @DF-RHF Final Energy:  -208.03939962747532
    Total Energy =                       -208.0393996274753476
  Basis Set: CC-PVTZ
  Basis Set:
  Basis Set: CC-PVTZ
  Basis Set:
  @DF-RHF Final Energy:  -208.04141952968541
    Total Energy =                       -208.0414195296855269
  Basis Set: CC-PVTZ
  Basis Set:
  Basis Set: CC-PVTZ
  Basis Set:
  @DF-RHF Final Energy:  -208.04244974275238
    Total Energy =                       -208.0424497427523818
  Basis Set: CC-PVTZ
  Basis Set:
  @DF-RHF Final Energy:  -208.04268057251591
    Total Energy =                       -208.0426805725158488
  @DF-RHF Final Energy:  -208.04275658613852
    Total Energy =                       -208.0427565861385801
  @DF-RHF Final Energy:  -208.04289468403107
    Total Energy =                       -208.0428946840310402
  @DF-RHF Final Energy:  -208.04289136269787
    Total Energy =                       -208.0428913626979011
  Basis Set: CC-PVTZ
  Basis Set:
  @DF-RHF Final Energy:  -208.04311310163851
    Total Energy =                       -208.0431131016385109
  Basis Set: CC-PVTZ
  Basis Set:
  Basis Set: CC-PVTZ
  Basis Set:
  @DF-RHF Final Energy:  -208.04319429613557
    Total Energy =                       -208.0431942961355674
  Basis Set: CC-PVTZ
  Basis Set:
  Basis Set: CC-PVTZ
  Basis Set:
  @DF-RHF Final Energy:  -208.04320871390098
    Total Energy =                       -208.0432087139009241
  Basis Set: CC-PVTZ
  Basis Set:
  Charge       = 0
  Multiplicity = 1
  Basis Set: CC-PVTZ
  Basis Set:

    Orbital Energies (a.u.)
    -----------------------

    Doubly Occupied:

       1A    -20.520430     2A    -15.584098     3A    -11.337563
       4A    -11.259001     5A     -1.397062     6A     -1.239168
       7A     -0.967787     8A     -0.807652     9A     -0.747742
      10A     -0.647272    11A     -0.631665    12A     -0.593926
      13A     -0.556685    14A     -0.538905    15A     -0.431072
      16A     -0.399586

  @DF-RHF Final Energy:  -208.04320928220767

   => Energetics <=

    Nuclear Repulsion Energy =            122.9209436714420463
    One-Electron Energy =                -526.6090810160669662
    Two-Electron Energy =                 195.6449280624171934
    DFT Exchange-Correlation Energy =       0.0000000000000000
    Empirical Dispersion Energy =           0.0000000000000000
    PCM Polarization Energy =               0.0000000000000000
    EFP Energy =                            0.0000000000000000
    Total Energy =                       -208.0432092822077266
    Molecular point group: c1
  Basis Set: CC-PVTZ
  Basis Set:

  -Total Gradient:
     Atom            X                  Y                   Z
    ------   -----------------  -----------------  -----------------
       1        0.000541811228     0.000783152409    -0.001983161550
       2       -0.000872435780    -0.001023956734     0.003400519991
       3        0.001067288955     0.000338932184    -0.003675018953
       4       -0.000058569227    -0.000060175672    -0.000038693431
       5        0.000068420725     0.000023840626    -0.000084388072
       6       -0.000694830158    -0.000093655125     0.002377344783
       7       -0.000054295210     0.000023655485    -0.000004527861
       8       -0.000028639618     0.000060247007     0.000009959372
       9        0.000031249084    -0.000052040179    -0.000002034278

  **** Optimization is complete! (in 12 steps) ****
    Final optimized geometry and variables:
    Molecular point group: c1

    Geometry (in Angstrom), charge = 0, multiplicity = 1:

    H            1.398328669572    -1.312993057946    -0.206995747095
    C            0.787891638157    -0.432440512997     0.002181037442
    N           -0.493476556858    -0.582895569379    -0.388237486936
    O            1.248276413774     0.555803165405     0.476682549319
    C           -1.486436560461     0.433293654435    -0.111028255930
    H           -0.810197995036    -1.513149617309    -0.517854696389
    H           -2.374158910254     0.222734482515    -0.690334582380
    H           -1.101182720724     1.398488164735    -0.399596492202
    H           -1.749850734089     0.472717458476     0.939816354388

  Mulliken Charges: (a.u.)
   Center  Symbol    Alpha    Beta     Spin     Total
       1     H     0.46283  0.46283  0.00000  0.07435
       2     C     2.88050  2.88050  0.00000  0.23900
       3     N     3.60453  3.60453  0.00000 -0.20906
       4     O     4.21035  4.21035  0.00000 -0.42069
       5     C     3.07879  3.07879  0.00000 -0.15757
       6     H     0.41486  0.41486  0.00000  0.17028
       7     H     0.45300  0.45300  0.00000  0.09401
       8     H     0.43957  0.43957  0.00000  0.12085
       9     H     0.45558  0.45558  0.00000  0.08884

   Total alpha = 16.00000, Total beta = 16.00000, Total charge = -0.00000

*** Psi4 exiting successfully. Buy a developer a beer!
