  ==> Input File <==

--------------------------------------------------------------------------
set {
	reference rhf
	basis cc-pvtz
}

set_num_threads( 4 )
memory 2 gb

molecule MOL {
0 1

H	 2.550622	 -0.928661	 1.113216
N	 1.573185	 -0.735769	 1.131069
C	 0.822549	 -1.842726	 0.573366
C	 1.283528	 0.505384	 0.441517
H	 1.047880	 -2.741696	 1.134108
H	 1.073281	 -2.027963	 -0.472789
C	 -0.662525	 -1.544114	 0.670635
H	 1.842895	 1.307910	 0.906719
H	 1.563385	 0.468503	 -0.612968
C	 -0.202150	 0.800920	 0.538960
H	 -0.950418	 -1.512508	 1.725486
H	 -1.223522	 -2.343492	 0.201172
N	 -0.976577	 -0.298712	 -0.000000
H	 -0.430267	 1.697149	 -0.025713
H	 -0.458327	 0.994078	 1.584739
C	 -2.391156	 -0.021003	 -0.000000
H	 -2.853954	 -0.458728	 -0.875714
H	 -2.853954	 -0.458728	 0.875714
H	 -2.614037	 1.049773	 -0.000000

	symmetry c1
}
set optking {
	frozen_dihedral = ("
		7 13 16 19
	")
}

ee = optimize('scf')
oeprop('DIPOLE', 'QUADRUPOLE', 'MULLIKEN_CHARGES')
f=open( 'psi4out.xyz', 'w' )
f.write( "19  " )
f.write( str(ee) + "\n" )
f.write( MOL.save_string_xyz() )
f.close()
--------------------------------------------------------------------------

    Molecular point group: c1
  Charge       = 0
  Multiplicity = 1
  Basis Set: CC-PVTZ
  Basis Set:
  @DF-RHF Final Energy:  -305.30472257418347
    Total Energy =                       -305.3047225741829607
    Molecular point group: c1
  Basis Set: CC-PVTZ
  Basis Set:
  Basis Set: CC-PVTZ
  Basis Set:
  @DF-RHF Final Energy:  -305.30542222619033
    Total Energy =                       -305.3054222261904442
  Basis Set: CC-PVTZ
  Basis Set:
  Basis Set: CC-PVTZ
  Basis Set:
  @DF-RHF Final Energy:  -305.30551525295101
    Total Energy =                       -305.3055152529510110
  Basis Set: CC-PVTZ
  Basis Set:
  Charge       = 0
  Multiplicity = 1
  Basis Set: CC-PVTZ
  Basis Set:

    Orbital Energies (a.u.)
    -----------------------

    Doubly Occupied:

       1A    -15.535917     2A    -15.530868     3A    -11.236890
       4A    -11.236835     5A    -11.235871     6A    -11.235653
       7A    -11.233045     8A     -1.247898     9A     -1.186629
      10A     -1.023430    11A     -0.965185    12A     -0.861101
      13A     -0.858855    14A     -0.758121    15A     -0.692422
      16A     -0.632912    17A     -0.625614    18A     -0.608514
      19A     -0.605365    20A     -0.581223    21A     -0.543754
      22A     -0.533257    23A     -0.511959    24A     -0.489184
      25A     -0.466360    26A     -0.457533    27A     -0.365620
      28A     -0.347320

  @DF-RHF Final Energy:  -305.30551773282804

   => Energetics <=

    Nuclear Repulsion Energy =            340.0978532859467691
    One-Electron Energy =               -1087.5920627993027665
    Two-Electron Energy =                 442.1886917805279040
    DFT Exchange-Correlation Energy =       0.0000000000000000
    Empirical Dispersion Energy =           0.0000000000000000
    PCM Polarization Energy =               0.0000000000000000
    EFP Energy =                            0.0000000000000000
    Total Energy =                       -305.3055177328281502
    Molecular point group: c1
  Basis Set: CC-PVTZ
  Basis Set:

  -Total Gradient:
     Atom            X                  Y                   Z
    ------   -----------------  -----------------  -----------------
       1       -0.000016367849     0.000021062836    -0.000001862268
       2       -0.000014055228    -0.000004192582    -0.000000248298
       3        0.000023246826     0.000056045922    -0.000097345042
       4        0.000063597347     0.000082404977     0.000099732411
       5       -0.000030472221     0.000021621581    -0.000003377498
       6        0.000030092358    -0.000023331169    -0.000026043040
       7        0.000249748604     0.001908832749     0.003187421147
       8        0.000078311595    -0.000003024488     0.000010885272
       9       -0.000039882599    -0.000010864077     0.000031907625
      10        0.000010158762    -0.000116519943    -0.000134593933
      11       -0.000032397321     0.000005398284     0.000021873803
      12       -0.000007929519     0.000008413450    -0.000000940213
      13       -0.000506115392    -0.002518115252    -0.002974737049
      14        0.000016524743    -0.000009581282     0.000015886722
      15        0.000042889432     0.000003059020    -0.000011593392
      16        0.000162114360     0.000643631029    -0.004986950662
      17       -0.000014783485    -0.000012715017    -0.000016412355
      18        0.000002252687    -0.000011876324     0.000019693262
      19       -0.000016933104    -0.000040249715     0.004866703508

  **** Optimization is complete! (in 4 steps) ****
    Final optimized geometry and variables:
    Molecular point group: c1

    Geometry (in Angstrom), charge = 0, multiplicity = 1:

    H            2.643868278701    -0.482789776656     0.623995443973
    N            1.666291014654    -0.291008388301     0.648490381776
    C            0.912410153245    -1.395192054062     0.090445883755
    C            1.371198495838     0.953161380335    -0.032653894237
    H            1.135017217056    -2.295422869699     0.650517594724
    H            1.160856029759    -1.581043334735    -0.956204550471
    C           -0.570955339078    -1.090737812646     0.191433572078
    H            1.930396511053     1.754588891494     0.435105103146
    H            1.647433770411     0.922878769814    -1.088387535195
    C           -0.115025824693     1.247101223967     0.067976770177
    H           -0.855605443040    -1.048379113837     1.246277365654
    H           -1.136257931863    -1.893833365294    -0.268011637361
    N           -0.888450530313     0.151017654848    -0.485648446150
    H           -0.338204560277     2.148321522705    -0.489608270450
    H           -0.369169862610     1.432014865564     1.115727427941
    C           -2.313948383486     0.413375034688    -0.492000268078
    H           -2.789350725169    -0.034598025973    -1.356405262110
    H           -2.805343884955     0.023943621191     0.401195171649
    H           -2.502117324291     1.478804534211    -0.495494661612

  Mulliken Charges: (a.u.)
   Center  Symbol    Alpha    Beta     Spin     Total
       1     H     0.44001  0.44001  0.00000  0.11998
       2     N     3.64287  3.64287  0.00000 -0.28574
       3     C     3.04133  3.04133  0.00000 -0.08266
       4     C     3.04200  3.04200  0.00000 -0.08401
       5     H     0.45260  0.45260  0.00000  0.09480
       6     H     0.46545  0.46545  0.00000  0.06910
       7     C     3.03568  3.03568  0.00000 -0.07136
       8     H     0.45259  0.45259  0.00000  0.09482
       9     H     0.46564  0.46564  0.00000  0.06873
      10     C     3.03324  3.03324  0.00000 -0.06648
      11     H     0.46768  0.46768  0.00000  0.06465
      12     H     0.45378  0.45378  0.00000  0.09244
      13     N     3.61663  3.61663  0.00000 -0.23327
      14     H     0.45398  0.45398  0.00000  0.09204
      15     H     0.46916  0.46916  0.00000  0.06167
      16     C     3.09465  3.09465  0.00000 -0.18931
      17     H     0.44937  0.44937  0.00000  0.10126
      18     H     0.46746  0.46746  0.00000  0.06507
      19     H     0.45588  0.45588  0.00000  0.08824

   Total alpha = 28.00000, Total beta = 28.00000, Total charge =  0.00000
