  ==> Input File <==

--------------------------------------------------------------------------
set {
	reference rhf
	basis 6-31G*
}

set_num_threads( 1 )
memory 2 gb

molecule MOL {
0 1

H	 -3.963194	 0.840429	 -0.442076
C	 -3.272722	 0.214904	 0.089551
C	 -2.076860	 -0.007332	 -0.404944
H	 -3.584024	 -0.216370	 1.022291
O	 -1.180634	 -0.819263	 0.215062
H	 -1.743266	 0.420813	 -1.333708
C	 0.051604	 -1.018856	 -0.387932
C	 1.043764	 0.054862	 -0.001873
H	 -0.017620	 -1.041351	 -1.469781
H	 0.437898	 -1.966374	 -0.042284
F	 2.212596	 -0.199467	 -0.571921
F	 0.652529	 1.252447	 -0.405055
F	 1.230877	 0.110694	 1.300533

	symmetry c1
}
set optking {
	frozen_dihedral = ("
		11 8 7 9,
		3 5 7 9,
		6 3 2 1
	")
}

ee = energy('scf')
oeprop('DIPOLE', 'QUADRUPOLE', 'MULLIKEN_CHARGES')
f=open( 'psi4out.xyz', 'w' )
f.write( "13  " )
f.write( str(ee) + "\n" )
f.write( MOL.save_string_xyz() )
f.close()
--------------------------------------------------------------------------

    Molecular point group: c1

    Geometry (in Angstrom), charge = 0, multiplicity = 1:

       Center              X                  Y                   Z               Mass
    ------------   -----------------  -----------------  -----------------  -----------------
           H         -3.954808438111     0.856705937769    -0.432882123268     1.007825032070
           C         -3.264336438111     0.231180937769     0.098744876732    12.000000000000
           C         -2.068474438111     0.008944937769    -0.395750123268    12.000000000000
           H         -3.575638438111    -0.200093062231     1.031484876732     1.007825032070
           O         -1.172248438111    -0.802986062231     0.224255876732    15.994914619560
           H         -1.734880438111     0.437089937769    -1.324514123268     1.007825032070
           C          0.059989561889    -1.002579062231    -0.378738123268    12.000000000000
           C          1.052149561889     0.071138937769     0.007320876732    12.000000000000
           H         -0.009234438111    -1.025074062231    -1.460587123268     1.007825032070
           H          0.446283561889    -1.950097062231    -0.033090123268     1.007825032070
           F          2.220981561889    -0.183190062231    -0.562727123268    18.998403224000
           F          0.660914561889     1.268723937769    -0.395861123268    18.998403224000
           F          1.239262561889     0.126970937769     1.309726876732    18.998403224000

  Charge       = 0
  Multiplicity = 1
  Basis Set: 6-31G*
  Basis Set:

    Orbital Energies (a.u.)
    -----------------------

    Doubly Occupied:

       1A    -26.345036     2A    -26.344816     3A    -26.340996
       4A    -20.608253     5A    -11.503655     6A    -11.319027
       7A    -11.299290     8A    -11.215745     9A     -1.742395
      10A     -1.640594    11A     -1.638862    12A     -1.438211
      13A     -1.084418    14A     -1.016533    15A     -0.925826
      16A     -0.836947    17A     -0.831602    18A     -0.822657
      19A     -0.790218    20A     -0.723452    21A     -0.711705
      22A     -0.697839    23A     -0.676057    24A     -0.660252
      25A     -0.655202    26A     -0.643765    27A     -0.632373
      28A     -0.586584    29A     -0.563179    30A     -0.526003
      31A     -0.511862    32A     -0.351248

  @DF-RHF Final Energy:  -527.53584932351066

   => Energetics <=

    Nuclear Repulsion Energy =            413.1311530682761486
    One-Electron Energy =               -1549.9646651726243363
    Two-Electron Energy =                 609.2976627808375270
    DFT Exchange-Correlation Energy =       0.0000000000000000
    Empirical Dispersion Energy =           0.0000000000000000
    PCM Polarization Energy =               0.0000000000000000
    EFP Energy =                            0.0000000000000000
    Total Energy =                       -527.5358493235107744

  Mulliken Charges: (a.u.)
   Center  Symbol    Alpha    Beta     Spin     Total
       1     H     0.40702  0.40702  0.00000  0.18597
       2     C     3.23614  3.23614  0.00000 -0.47227
       3     C     2.89583  2.89583  0.00000  0.20833
       4     H     0.40203  0.40203  0.00000  0.19594
       5     O     4.30196  4.30196  0.00000 -0.60392
       6     H     0.40536  0.40536  0.00000  0.18928
       7     C     3.06466  3.06466  0.00000 -0.12931
       8     C     2.45582  2.45582  0.00000  1.08835
       9     H     0.40508  0.40508  0.00000  0.18985
      10     H     0.38921  0.38921  0.00000  0.22158
      11     F     4.68279  4.68279  0.00000 -0.36558
      12     F     4.67973  4.67973  0.00000 -0.35945
      13     F     4.67437  4.67437  0.00000 -0.34875

   Total alpha = 32.00000, Total beta = 32.00000, Total charge =  0.00000
