  ==> Input File <==

--------------------------------------------------------------------------
set {
	reference rhf
	basis 6-31G*
}

set_num_threads( 4 )
memory 2 gb

molecule MOL {
0 1

O	 2.160596	 -0.260288	 -0.434342
C	 1.122059	 0.121804	 -0.000188
C	 -0.170150	 -0.657997	 -0.000612
O	 0.962379	 1.316268	 0.555450
C	 -1.412532	 0.227344	 -0.000452
H	 -0.153702	 -1.313099	 -0.867402
H	 -0.153924	 -1.313811	 0.865644
C	 -2.706999	 -0.587347	 -0.000541
H	 -1.388000	 0.879466	 -0.868000
H	 -1.387972	 0.879138	 0.867341
C	 -3.956778	 0.291888	 0.000910
H	 -2.726114	 -1.239230	 -0.871609
H	 -2.725217	 -1.240844	 0.869333
H	 -3.985213	 0.933254	 -0.875158
H	 -4.860123	 -0.309979	 0.000519
H	 -3.984618	 0.931166	 0.878514
C	 2.103080	 2.152815	 0.619736
H	 2.884456	 1.685862	 1.201883
H	 1.774860	 3.063263	 1.096501
H	 2.476537	 2.363056	 -0.372148

	symmetry c1
}
set optking {
	frozen_dihedral = ("
		1 2 3 6
	")
}

ee = optimize('scf')
oeprop('DIPOLE', 'QUADRUPOLE', 'MULLIKEN_CHARGES')
f=open( 'psi4out.xyz', 'w' )
f.write( "20  " )
f.write( str(ee) + "\n" )
f.write( MOL.save_string_xyz() )
f.close()
--------------------------------------------------------------------------

    Molecular point group: c1
  Charge       = 0
  Multiplicity = 1
  Basis Set: 6-31G*
  Basis Set:
  @DF-RHF Final Energy:  -383.93842501035505
    Total Energy =                       -383.9384250103548766
    Molecular point group: c1
  Basis Set: 6-31G*
  Basis Set:
  Basis Set: 6-31G*
  Basis Set:
  @DF-RHF Final Energy:  -383.93787097877464
    Total Energy =                       -383.9378709787748676
  Basis Set: 6-31G*
  Basis Set:
  Basis Set: 6-31G*
  Basis Set:
  @DF-RHF Final Energy:  -383.93864651502014
    Total Energy =                       -383.9386465150200820
  Basis Set: 6-31G*
  Basis Set:
  Basis Set: 6-31G*
  Basis Set:
  @DF-RHF Final Energy:  -383.93940664056458
    Total Energy =                       -383.9394066405649255
  Basis Set: 6-31G*
  Basis Set:
  Basis Set: 6-31G*
  Basis Set:
  @DF-RHF Final Energy:  -383.93941933577850
    Total Energy =                       -383.9394193357786662
  Basis Set: 6-31G*
  Basis Set:
  Basis Set: 6-31G*
  Basis Set:
  @DF-RHF Final Energy:  -383.93942229578300
    Total Energy =                       -383.9394222957827196
  Basis Set: 6-31G*
  Basis Set:
  Basis Set: 6-31G*
  Basis Set:
  @DF-RHF Final Energy:  -383.93942337603590
    Total Energy =                       -383.9394233760358475
  Basis Set: 6-31G*
  Basis Set:
  Charge       = 0
  Multiplicity = 1
  Basis Set: 6-31G*
  Basis Set:

    Orbital Energies (a.u.)
    -----------------------

    Doubly Occupied:

       1A    -20.605935     2A    -20.541683     3A    -11.372184
       4A    -11.281551     5A    -11.235693     6A    -11.224523
       7A    -11.222731     8A    -11.213539     9A     -1.470004
      10A     -1.361150    11A     -1.091584    12A     -1.024080
      13A     -0.966684    14A     -0.892216    15A     -0.806209
      16A     -0.774728    17A     -0.693197    18A     -0.683149
      19A     -0.671368    20A     -0.647656    21A     -0.594532
      22A     -0.591817    23A     -0.580415    24A     -0.544138
      25A     -0.531168    26A     -0.523369    27A     -0.504995
      28A     -0.491477    29A     -0.479961    30A     -0.473400
      31A     -0.453581    32A     -0.427877

  @DF-RHF Final Energy:  -383.93942360728875

   => Energetics <=

    Nuclear Repulsion Energy =            383.6183594820251983
    One-Electron Energy =               -1283.1623789050208870
    Two-Electron Energy =                 515.6045958157069435
    DFT Exchange-Correlation Energy =       0.0000000000000000
    Empirical Dispersion Energy =           0.0000000000000000
    PCM Polarization Energy =               0.0000000000000000
    EFP Energy =                            0.0000000000000000
    Total Energy =                       -383.9394236072887452
    Molecular point group: c1
  Basis Set: 6-31G*
  Basis Set:

  -Total Gradient:
     Atom            X                  Y                   Z
    ------   -----------------  -----------------  -----------------
       1        0.000220593381    -0.000370587947     0.000871365704
       2       -0.000383407734     0.000626025622    -0.001385851408
       3        0.000563073615    -0.000949742054     0.001017317596
       4        0.000014526950     0.000041240050     0.000023607419
       5       -0.000021327536     0.000010592701    -0.000020544701
       6       -0.000382195902     0.000652256044    -0.000519016899
       7        0.000002554534    -0.000003927315    -0.000001789681
       8        0.000001558115    -0.000000945131     0.000027538431
       9        0.000001837186     0.000011725329    -0.000004941197
      10       -0.000014330467    -0.000010621881    -0.000007121725
      11        0.000006644720     0.000003787706    -0.000006711780
      12        0.000001965640     0.000004348512     0.000002145895
      13       -0.000003053878    -0.000007321550     0.000003903954
      14        0.000001389055     0.000004008177     0.000002486552
      15        0.000003704843    -0.000001798746    -0.000004760477
      16       -0.000002251742    -0.000003406359     0.000002526912
      17       -0.000008077284    -0.000005716831    -0.000000657067
      18       -0.000000571953    -0.000000022924    -0.000000498659
      19       -0.000002636957     0.000000243048     0.000000674777
      20        0.000000005409    -0.000000136453     0.000000326354

  **** Optimization is complete! (in 8 steps) ****
    Final optimized geometry and variables:
    Molecular point group: c1

    Geometry (in Angstrom), charge = 0, multiplicity = 1:

    O            2.341173189935    -0.631065047318    -0.532002910157
    C            1.325661183337    -0.189491395315    -0.097648358733
    C            0.020060990572    -0.951516476170    -0.076363777649
    O            1.239874491854     1.009657314594     0.459514628760
    C           -1.253539050303    -0.104141824189    -0.082281644424
    H            0.044829073520    -1.620043245181    -0.928635709149
    H            0.047778671162    -1.578878882732     0.812026609389
    C           -2.516303109792    -0.967149168046    -0.112361372159
    H           -1.246237685812     0.555623720314    -0.946491608691
    H           -1.269149083711     0.536789088975     0.792271376326
    C           -3.798780530161    -0.136401016788    -0.116938851620
    H           -2.497893957337    -1.607494056058    -0.991499235120
    H           -2.520134832951    -1.631727114378     0.749188877714
    H           -3.840405371255     0.515302571271    -0.984938980108
    H           -4.677937041818    -0.772550725537    -0.138494511701
    H           -3.863826999663     0.488905491705     0.768815202754
    C            2.429820690561     1.775751131663     0.519024605248
    H            3.181691287906     1.263085096175     1.101315855182
    H            2.157944173159     2.705907419057     0.993152311728
    H            2.813068023756     1.958549214114    -0.474320993984

  Mulliken Charges: (a.u.)
   Center  Symbol    Alpha    Beta     Spin     Total
       1     O     4.28860  4.28860  0.00000 -0.57721
       2     C     2.60629  2.60629  0.00000  0.78742
       3     C     3.20824  3.20824  0.00000 -0.41648
       4     O     4.30334  4.30334  0.00000 -0.60668
       5     C     3.15377  3.15377  0.00000 -0.30755
       6     H     0.39786  0.39786  0.00000  0.20427
       7     H     0.40046  0.40046  0.00000  0.19907
       8     C     3.15444  3.15444  0.00000 -0.30888
       9     H     0.41784  0.41784  0.00000  0.16431
      10     H     0.40991  0.40991  0.00000  0.18018
      11     C     3.23951  3.23951  0.00000 -0.47901
      12     H     0.42110  0.42110  0.00000  0.15780
      13     H     0.42194  0.42194  0.00000  0.15612
      14     H     0.42049  0.42049  0.00000  0.15903
      15     H     0.41778  0.41778  0.00000  0.16444
      16     H     0.42047  0.42047  0.00000  0.15907
      17     C     3.09256  3.09256  0.00000 -0.18511
      18     H     0.40852  0.40852  0.00000  0.18297
      19     H     0.40868  0.40868  0.00000  0.18265
      20     H     0.40820  0.40820  0.00000  0.18360

   Total alpha = 32.00000, Total beta = 32.00000, Total charge = -0.00000
