  ==> Input File <==

--------------------------------------------------------------------------
set {
	reference rhf
	basis 6-31G*
}

set_num_threads( 4 )
memory 2 gb

molecule MOL {
0 1

O	 -2.324811	 1.361668	 -0.277141
C	 -2.105949	 0.203097	 -0.092081
C	 -0.889235	 -0.467034	 -0.705952
C	 -3.002726	 -0.644460	 0.782455
C	 -1.307507	 -1.622960	 -1.629005
H	 -0.282199	 -0.853478	 0.105512
H	 -0.294506	 0.253819	 -1.259751
C	 -0.102285	 -2.342216	 -2.239515
H	 -1.912741	 -2.313697	 -1.052846
H	 -1.940482	 -1.242270	 -2.429108
C	 -0.463868	 -3.460316	 -3.223978
H	 0.512387	 -2.752296	 -1.440303
H	 0.516962	 -1.612077	 -2.756505
C	 -1.177586	 -4.656306	 -2.591356
H	 0.451145	 -3.809000	 -3.696061
H	 -1.079595	 -3.051081	 -4.022410
H	 -0.588278	 -5.079001	 -1.782177
H	 -1.339063	 -5.439520	 -3.325454
H	 -2.147163	 -4.385009	 -2.187488
H	 -3.496582	 -1.399307	 0.176174
H	 -3.747939	 -0.023774	 1.260148
H	 -2.421318	 -1.168775	 1.535358

	symmetry c1
}
set optking {
	frozen_dihedral = ("
		6 3 2 1
	")
}

ee = optimize('scf')
oeprop('DIPOLE', 'QUADRUPOLE', 'MULLIKEN_CHARGES')
f=open( 'psi4out.xyz', 'w' )
f.write( "22  " )
f.write( str(ee) + "\n" )
f.write( MOL.save_string_xyz() )
f.close()
--------------------------------------------------------------------------

    Molecular point group: c1
  Charge       = 0
  Multiplicity = 1
  Basis Set: 6-31G*
  Basis Set:
  @DF-RHF Final Energy:  -348.09645890716024
    Total Energy =                       -348.0964589071606952
    Molecular point group: c1
  Basis Set: 6-31G*
  Basis Set:
  Basis Set: 6-31G*
  Basis Set:
  @DF-RHF Final Energy:  -348.09750540262087
    Total Energy =                       -348.0975054026206408
  Basis Set: 6-31G*
  Basis Set:
  Basis Set: 6-31G*
  Basis Set:
  @DF-RHF Final Energy:  -348.09768722313288
    Total Energy =                       -348.0976872231331072
  Basis Set: 6-31G*
  Basis Set:
  Basis Set: 6-31G*
  Basis Set:
  @DF-RHF Final Energy:  -348.09774115814554
    Total Energy =                       -348.0977411581453111
  Basis Set: 6-31G*
  Basis Set:
  @DF-RHF Final Energy:  -348.09777339549140
    Total Energy =                       -348.0977733954916289
  @DF-RHF Final Energy:  -348.09777233151988
    Total Energy =                       -348.0977723315197636
  @DF-RHF Final Energy:  -348.09778558073037
    Total Energy =                       -348.0977855807300898
  Basis Set: 6-31G*
  Basis Set:
  @DF-RHF Final Energy:  -348.09779095684206
    Total Energy =                       -348.0977909568421182
  Basis Set: 6-31G*
  Basis Set:
  Basis Set: 6-31G*
  Basis Set:
  @DF-RHF Final Energy:  -348.09779293882849
    Total Energy =                       -348.0977929388284338
  Basis Set: 6-31G*
  Basis Set:
  Basis Set: 6-31G*
  Basis Set:
  @DF-RHF Final Energy:  -348.09779419583600
    Total Energy =                       -348.0977941958361157
  Basis Set: 6-31G*
  Basis Set:
  Charge       = 0
  Multiplicity = 1
  Basis Set: 6-31G*
  Basis Set:

    Orbital Energies (a.u.)
    -----------------------

    Doubly Occupied:

       1A    -20.547758     2A    -11.324226     3A    -11.232579
       4A    -11.229600     5A    -11.227339     6A    -11.224686
       7A    -11.222876     8A    -11.215223     9A     -1.392958
      10A     -1.098680    11A     -1.046092    12A     -0.996975
      13A     -0.940413    14A     -0.862316    15A     -0.789209
      16A     -0.732795    17A     -0.661848    18A     -0.647450
      19A     -0.627559    20A     -0.621552    21A     -0.597226
      22A     -0.588672    23A     -0.553701    24A     -0.548027
      25A     -0.537830    26A     -0.517142    27A     -0.499526
      28A     -0.491105    29A     -0.473401    30A     -0.467179
      31A     -0.463482    32A     -0.396456

  @DF-RHF Final Energy:  -348.09779463198191

   => Energetics <=

    Nuclear Repulsion Energy =            372.9112835342578478
    One-Electron Energy =               -1210.4663933109104619
    Two-Electron Energy =                 489.4573151446707016
    DFT Exchange-Correlation Energy =       0.0000000000000000
    Empirical Dispersion Energy =           0.0000000000000000
    PCM Polarization Energy =               0.0000000000000000
    EFP Energy =                            0.0000000000000000
    Total Energy =                       -348.0977946319819694
    Molecular point group: c1
  Basis Set: 6-31G*
  Basis Set:

  -Total Gradient:
     Atom            X                  Y                   Z
    ------   -----------------  -----------------  -----------------
       1       -0.000045929388     0.000044635993     0.000053217495
       2       -0.000012018571    -0.000051282725    -0.000003967787
       3        0.000052522596     0.000073189770     0.000065077144
       4       -0.000000230074     0.000041490224     0.000035711557
       5        0.000019954498    -0.000026400177     0.000041584292
       6        0.000010065594     0.000003273674    -0.000041741721
       7        0.000020958363    -0.000012587246    -0.000004531410
       8       -0.000055784939    -0.000046190053    -0.000013150493
       9        0.000025355402     0.000031798028    -0.000021360209
      10        0.000018468801    -0.000032149256    -0.000030106965
      11        0.000004260662    -0.000015479969    -0.000023448400
      12       -0.000018347784     0.000009133774     0.000011911250
      13       -0.000019984087    -0.000003082610    -0.000000037896
      14       -0.000004119242    -0.000000767469    -0.000007552943
      15        0.000004836668    -0.000013357616    -0.000011671873
      16       -0.000002118957    -0.000002635848     0.000001891116
      17        0.000002628154     0.000000128378     0.000003210874
      18        0.000006181662     0.000004256708    -0.000003031323
      19        0.000012694423    -0.000020848998    -0.000016959348
      20        0.000011147189    -0.000004863525    -0.000029058530
      21       -0.000016956521    -0.000014215393     0.000003976949
      22       -0.000013584451     0.000035954329    -0.000009961781

  **** Optimization is complete! (in 11 steps) ****
    Final optimized geometry and variables:
    Molecular point group: c1

    Geometry (in Angstrom), charge = 0, multiplicity = 1:

    O           -0.844668013414     2.849987167429     0.939022408051
    C           -0.664327770116     1.692038105713     1.164760009711
    C            0.513955729012     0.946841066506     0.564573761974
    C           -1.612622002998     0.915751713282     2.056668911148
    C            0.104216908199    -0.213210002590    -0.355583990989
    H            1.128102373715     0.561515776839     1.376660942859
    H            1.104188376629     1.672257430143     0.018036310248
    C            1.317152885759    -0.882557224445    -1.007563845549
    H           -0.461688186009    -0.946448582027     0.210194978207
    H           -0.558638213310     0.162844001562    -1.132328550309
    C            0.971098053986    -1.994347580651    -2.004525198408
    H            1.965841515856    -1.284912432656    -0.231076339318
    H            1.896858092260    -0.121754634231    -1.524760857150
    C            0.314396394436    -3.227385795662    -1.381172155729
    H            1.886391749667    -2.301930503609    -2.503644575956
    H            0.323570466530    -1.592124913352    -2.780716008033
    H            0.934521455843    -3.642933480575    -0.591373281781
    H            0.167564919195    -4.002594091074    -2.126613153116
    H           -0.657301530767    -3.000453949172    -0.954912306542
    H           -2.259935592184     0.290254407235     1.448666190440
    H           -2.226925997734     1.608181324825     2.615484424694
    H           -1.075555846888     0.263751520038     2.737815968470

  Mulliken Charges: (a.u.)
   Center  Symbol    Alpha    Beta     Spin     Total
       1     O     4.26066  4.26066  0.00000 -0.52133
       2     C     2.73391  2.73391  0.00000  0.53219
       3     C     3.20430  3.20430  0.00000 -0.40859
       4     C     3.29017  3.29017  0.00000 -0.58034
       5     C     3.16675  3.16675  0.00000 -0.33351
       6     H     0.41303  0.41303  0.00000  0.17395
       7     H     0.39942  0.39942  0.00000  0.20116
       8     C     3.15259  3.15259  0.00000 -0.30519
       9     H     0.41684  0.41684  0.00000  0.16632
      10     H     0.41407  0.41407  0.00000  0.17185
      11     C     3.15348  3.15348  0.00000 -0.30696
      12     H     0.42275  0.42275  0.00000  0.15450
      13     H     0.41775  0.41775  0.00000  0.16450
      14     C     3.24186  3.24186  0.00000 -0.48373
      15     H     0.41865  0.41865  0.00000  0.16269
      16     H     0.42121  0.42121  0.00000  0.15758
      17     H     0.42172  0.42172  0.00000  0.15655
      18     H     0.41714  0.41714  0.00000  0.16572
      19     H     0.42103  0.42103  0.00000  0.15794
      20     H     0.40445  0.40445  0.00000  0.19111
      21     H     0.39613  0.39613  0.00000  0.20774
      22     H     0.41207  0.41207  0.00000  0.17585

   Total alpha = 32.00000, Total beta = 32.00000, Total charge =  0.00000
