  ==> Input File <==

--------------------------------------------------------------------------
set {
	reference rhf
	basis 6-31G*
}

set_num_threads( 4 )
memory 2 gb

molecule MOL {
0 1

H	 -0.821032	 -1.655889	 0.000000
O	 -1.037828	 -0.728600	 0.000000
C	 0.100509	 -0.036935	 0.000000
C	 0.216329	 0.849043	 -1.207282
O	 0.903982	 -0.135345	 0.868314
H	 0.170305	 0.246711	 -2.107167
H	 1.149202	 1.390823	 -1.170211
H	 -0.616708	 1.541971	 -1.232127

	symmetry c1
}
set optking {
	frozen_dihedral = ("
		4 3 2 1
	")
}

ee = optimize('scf')
oeprop('DIPOLE', 'QUADRUPOLE', 'MULLIKEN_CHARGES')
f=open( 'psi4out.xyz', 'w' )
f.write( "8  " )
f.write( str(ee) + "\n" )
f.write( MOL.save_string_xyz() )
f.close()
--------------------------------------------------------------------------

    Molecular point group: c1
  Charge       = 0
  Multiplicity = 1
  Basis Set: 6-31G*
  Basis Set:
  @DF-RHF Final Energy:  -227.79358580672974
    Total Energy =                       -227.7935858067298227
    Molecular point group: c1
  Basis Set: 6-31G*
  Basis Set:
  Basis Set: 6-31G*
  Basis Set:
  @DF-RHF Final Energy:  -227.79239856213030
    Total Energy =                       -227.7923985621302450
  Basis Set: 6-31G*
  Basis Set:
  Basis Set: 6-31G*
  Basis Set:
  @DF-RHF Final Energy:  -227.79447996050109
    Total Energy =                       -227.7944799605010360
  Basis Set: 6-31G*
  Basis Set:
  Basis Set: 6-31G*
  Basis Set:
  @DF-RHF Final Energy:  -227.79476072910228
    Total Energy =                       -227.7947607291024497
  Basis Set: 6-31G*
  Basis Set:
  @DF-RHF Final Energy:  -227.79480004191208
    Total Energy =                       -227.7948000419120262
  @DF-RHF Final Energy:  -227.76958279993997
    Total Energy =                       -227.7695827999399114
  Basis Set: 6-31G*
  Basis Set:
  @DF-RHF Final Energy:  -227.79399679546373
    Total Energy =                       -227.7939967954636700
  Basis Set: 6-31G*
  Basis Set:
  Basis Set: 6-31G*
  Basis Set:
  @DF-RHF Final Energy:  -227.79481492298729
    Total Energy =                       -227.7948149229872854
  Basis Set: 6-31G*
  Basis Set:
  Basis Set: 6-31G*
  Basis Set:
  @DF-RHF Final Energy:  -227.79482056961010
    Total Energy =                       -227.7948205696101240
  Basis Set: 6-31G*
  Basis Set:
  Charge       = 0
  Multiplicity = 1
  Basis Set: 6-31G*
  Basis Set:

    Orbital Energies (a.u.)
    -----------------------

    Doubly Occupied:

       1A    -20.601084     2A    -20.560994     3A    -11.386655
       4A    -11.241247     5A     -1.466161     6A     -1.369055
       7A     -1.024003     8A     -0.827188     9A     -0.705177
      10A     -0.675614    11A     -0.657826    12A     -0.584578
      13A     -0.579114    14A     -0.527860    15A     -0.489485
      16A     -0.449786

  @DF-RHF Final Energy:  -227.79482068254967

   => Energetics <=

    Nuclear Repulsion Energy =            121.9237292507351924
    One-Electron Energy =                -553.1454483648298037
    Two-Electron Energy =                 203.4268984315448847
    DFT Exchange-Correlation Energy =       0.0000000000000000
    Empirical Dispersion Energy =           0.0000000000000000
    PCM Polarization Energy =               0.0000000000000000
    EFP Energy =                            0.0000000000000000
    Total Energy =                       -227.7948206825497550
    Molecular point group: c1
  Basis Set: 6-31G*
  Basis Set:

  -Total Gradient:
     Atom            X                  Y                   Z
    ------   -----------------  -----------------  -----------------
       1       -0.000459164024     0.000096165774    -0.011472855296
       2        0.001678900247    -0.002349061133     0.012695424016
       3       -0.004096920544     0.007354083007     0.002407628899
       4        0.002980392261    -0.005363734160    -0.003737131039
       5       -0.000097796308     0.000260285236     0.000105096826
       6       -0.000016394856    -0.000000469973     0.000003654581
       7        0.000008825122    -0.000003268186    -0.000022007696
       8        0.000002158103     0.000005999437     0.000020189708

  **** Optimization is complete! (in 10 steps) ****
    Final optimized geometry and variables:
    Molecular point group: c1

    Geometry (in Angstrom), charge = 0, multiplicity = 1:

    H           -0.942876455998    -1.591409290551     0.120850864977
    O           -1.100122796351    -0.654676185095     0.135185556772
    C            0.073557598328     0.019357264745     0.093553210356
    C            0.177930318898     0.917789932544    -1.106652474976
    O            0.933641868241    -0.159833765258     0.883835385403
    H            0.231430288560     0.291158217653    -1.990924197668
    H            1.064459895735     1.530568322065    -1.038455967164
    H           -0.705264133396     1.538095608721    -1.201273154341

  Mulliken Charges: (a.u.)
   Center  Symbol    Alpha    Beta     Spin     Total
       1     H     0.26478  0.26478  0.00000  0.47044
       2     O     4.36000  4.36000  0.00000 -0.72000
       3     C     2.64305  2.64305  0.00000  0.71391
       4     C     3.28259  3.28259  0.00000 -0.56518
       5     O     4.25276  4.25276  0.00000 -0.50551
       6     H     0.40229  0.40229  0.00000  0.19541
       7     H     0.39643  0.39643  0.00000  0.20714
       8     H     0.39810  0.39810  0.00000  0.20379

   Total alpha = 16.00000, Total beta = 16.00000, Total charge = -0.00000
