                              Psi4 1.0.54 Driver

  ==> Input File <==

--------------------------------------------------------------------------
set {
	reference rhf
	basis cc-pvtz
}

set_num_threads( 4 )
memory 2 gb

molecule MOL {
0 1

H	 -1.025129	 -2.176978	 1.097762
N	 -0.258069	 -1.546728	 0.997881
C	 -0.561396	 -0.500007	 0.035200
H	 0.529362	 -2.085330	 0.702592
C	 0.575129	 0.507849	 -0.048832
H	 -1.462305	 0.005490	 0.366943
H	 -0.769950	 -0.887691	 -0.963109
C	 1.951750	 -0.141983	 0.035101
H	 0.478254	 1.061643	 -0.975981
H	 0.467676	 1.231891	 0.755499
H	 2.101550	 -0.848142	 -0.774949
H	 2.738260	 0.600794	 -0.026526
H	 2.078939	 -0.679792	 0.968824

	symmetry c1
}
set optking {
	frozen_dihedral = ("
		6 3 5 9
	")
}

ee,wfn = optimize('scf', return_wfn=True)
oeprop( wfn, 'DIPOLE', 'QUADRUPOLE', 'MULLIKEN_CHARGES')
f=open( 'psi4out.xyz', 'w' )
f.write( "13  " )
f.write( str(ee) + "\n" )
f.write( MOL.save_string_xyz() )
f.close()
--------------------------------------------------------------------------

    Molecular point group: c1
  Charge       = 0
  Multiplicity = 1
  Basis Set: CC-PVTZ
  Basis Set:
  @DF-RHF Final Energy:  -173.34747791855978
    Total Energy =                       -173.3474779185598322
    Molecular point group: c1
  Basis Set: CC-PVTZ
  Basis Set:
  Basis Set: CC-PVTZ
  Basis Set:
  @DF-RHF Final Energy:  -173.34731957616927
    Total Energy =                       -173.3473195761692693
  Basis Set: CC-PVTZ
  Basis Set:
  Basis Set: CC-PVTZ
  Basis Set:
  @DF-RHF Final Energy:  -173.34905057839541
    Total Energy =                       -173.3490505783954632
  Basis Set: CC-PVTZ
  Basis Set:
  Basis Set: CC-PVTZ
  Basis Set:
  @DF-RHF Final Energy:  -173.34912767975928
    Total Energy =                       -173.3491276797591922
  Basis Set: CC-PVTZ
  Basis Set:
  Basis Set: CC-PVTZ
  Basis Set:
  @DF-RHF Final Energy:  -173.34913439271577
    Total Energy =                       -173.3491343927158255
  Basis Set: CC-PVTZ
  Basis Set:
  Charge       = 0
  Multiplicity = 1
  Basis Set: CC-PVTZ
  Basis Set:

    Orbital Energies (a.u.)
    -----------------------

    Doubly Occupied:

       1A    -15.526277     2A    -11.239119     3A    -11.210489
       4A    -11.204129     5A     -1.178028     6A     -1.030252
       7A     -0.908651     8A     -0.786196     9A     -0.670463
      10A     -0.643036    11A     -0.576899    12A     -0.562451
      13A     -0.550609    14A     -0.484838    15A     -0.477676
      16A     -0.467821    17A     -0.383168

  @DF-RHF Final Energy:  -173.34913558741314

   => Energetics <=

    Nuclear Repulsion Energy =            134.2757009504169616
    One-Electron Energy =                -499.4494653331207701
    Two-Electron Energy =                 191.8246287952906357
    DFT Exchange-Correlation Energy =       0.0000000000000000
    Empirical Dispersion Energy =           0.0000000000000000
    PCM Polarization Energy =               0.0000000000000000
    EFP Energy =                            0.0000000000000000
    Total Energy =                       -173.3491355874131443
    Molecular point group: c1
  Basis Set: CC-PVTZ
  Basis Set:

  -Total Gradient:
     Atom            X                  Y                   Z
    ------   -----------------  -----------------  -----------------
       1        0.000050151951     0.000031696722    -0.000018455533
       2       -0.000030506692    -0.000001776020     0.000023825387
       3       -0.001163633997     0.000596418506    -0.007195651260
       4       -0.000025945397     0.000045866074    -0.000000758632
       5       -0.003177058961     0.004576658293     0.004636419358
       6        0.001516996613    -0.001275444455     0.005352154115
       7       -0.000018080215     0.000021865394    -0.000003085093
       8       -0.000023710989     0.000003373401    -0.000007709414
       9        0.002886623139    -0.004003741121    -0.002777101629
      10        0.000002472457     0.000018371913     0.000000820425
      11        0.000024333122     0.000004546728     0.000017651572
      12       -0.000031886319    -0.000026136935     0.000009166723
      13       -0.000009754709     0.000008301501    -0.000037276020

  **** Optimization is complete! (in 6 steps) ****
    Final optimized geometry and variables:
    Molecular point group: c1

    Geometry (in Angstrom), charge = 0, multiplicity = 1:

    H           -1.613990689510    -1.542381575120     0.982533794903
    N           -0.765289430677    -1.052152324405     0.797115620513
    C           -0.987529612513     0.005891863157    -0.180740301869
    H           -0.106356711307    -1.724311945285     0.466965224772
    C            0.210730983319     0.951738710308    -0.289944430069
    H           -1.836375760941     0.569699424811     0.187542710336
    H           -1.240266365666    -0.379521814134    -1.167898966210
    C            1.564490192800     0.244934209008    -0.349630060376
    H            0.105432171934     1.518800178936    -1.210084973175
    H            0.205513544209     1.647245049641     0.540990336088
    H            1.601902983446    -0.468222441850    -1.168613074611
    H            2.360177521490     0.963143697743    -0.509195276848
    H            1.778254209374    -0.284210489775     0.569704287769

  Mulliken Charges: (a.u.)
   Center  Symbol    Alpha    Beta     Spin     Total
       1     H     0.42904  0.42904  0.00000  0.14193
       2     N     3.69333  3.69333  0.00000 -0.38667
       3     C     3.03317  3.03317  0.00000 -0.06634
       4     H     0.42756  0.42756  0.00000  0.14488
       5     C     3.07195  3.07195  0.00000 -0.14391
       6     H     0.45458  0.45458  0.00000  0.09085
       7     H     0.46455  0.46455  0.00000  0.07089
       8     C     3.16224  3.16224  0.00000 -0.32448
       9     H     0.45718  0.45718  0.00000  0.08563
      10     H     0.45411  0.45411  0.00000  0.09177
      11     H     0.45689  0.45689  0.00000  0.08621
      12     H     0.44701  0.44701  0.00000  0.10599
      13     H     0.44838  0.44838  0.00000  0.10325

   Total alpha = 17.00000, Total beta = 17.00000, Total charge = -0.00000

*** Psi4 exiting successfully. Buy a developer a beer!
