  ==> Input File <==

--------------------------------------------------------------------------
set {
	reference rhf
	basis 6-31G*
}

set_num_threads( 4 )
memory 2 gb

molecule MOL {
0 1

O	 -0.198696	 -2.259577	 -0.048862
C	 -1.278543	 -1.761562	 -0.025906
C	 -2.565246	 -2.546200	 -0.023491
O	 -1.481751	 -0.454642	 0.000584
H	 -2.571033	 -3.202319	 0.838678
H	 -3.430809	 -1.900701	 0.000382
H	 -2.594552	 -3.169091	 -0.909510
C	 -0.334255	 0.388708	 0.000906
C	 0.891947	 -0.504646	 0.000751
H	 -0.365390	 1.025305	 -0.873475
H	 -0.365484	 1.024911	 0.875569
C	 2.191998	 0.301789	 0.000897
H	 0.855148	 -1.151283	 -0.871571
H	 0.855132	 -1.151660	 0.872805
C	 3.441114	 -0.581407	 0.000108
H	 2.215074	 0.954890	 -0.869742
H	 2.215465	 0.953923	 0.872248
C	 4.739576	 0.224112	 -0.001102
H	 3.419457	 -1.233487	 -0.870178
H	 3.420834	 -1.233096	 0.870717
H	 4.804918	 0.861552	 -0.878265
H	 5.606527	 -0.429058	 -0.001824
H	 4.806469	 0.861674	 0.875853

	symmetry c1
}
set optking {
	frozen_dihedral = ("
		2 4 8 10
	")
}

ee = optimize('scf')
oeprop('DIPOLE', 'QUADRUPOLE', 'MULLIKEN_CHARGES')
f=open( 'psi4out.xyz', 'w' )
f.write( "23  " )
f.write( str(ee) + "\n" )
f.write( MOL.save_string_xyz() )
f.close()
--------------------------------------------------------------------------

    Molecular point group: c1
  Charge       = 0
  Multiplicity = 1
  Basis Set: 6-31G*
  Basis Set:
  @DF-RHF Final Energy:  -422.89494359222186
    Total Energy =                       -422.8949435922216935
    Molecular point group: c1
  Basis Set: 6-31G*
  Basis Set:
  Basis Set: 6-31G*
  Basis Set:
  @DF-RHF Final Energy:  -422.93593419540690
    Total Energy =                       -422.9359341954066167
  Basis Set: 6-31G*
  Basis Set:
  Basis Set: 6-31G*
  Basis Set:
  @DF-RHF Final Energy:  -422.95514135572222
    Total Energy =                       -422.9551413557220485
  Basis Set: 6-31G*
  Basis Set:
  Basis Set: 6-31G*
  Basis Set:
  @DF-RHF Final Energy:  -422.96251486100141
    Total Energy =                       -422.9625148610011820
  Basis Set: 6-31G*
  Basis Set:
  @DF-RHF Final Energy:  -422.96337592129987
    Total Energy =                       -422.9633759213000985
  @DF-RHF Final Energy:  -422.96639750790729
    Total Energy =                       -422.9663975079067768
  @DF-RHF Final Energy:  -422.96681843048674
    Total Energy =                       -422.9668184304860006
  Basis Set: 6-31G*
  Basis Set:
  @DF-RHF Final Energy:  -422.96685045732340
    Total Energy =                       -422.9668504573229484
  Basis Set: 6-31G*
  Basis Set:
  Basis Set: 6-31G*
  Basis Set:
  @DF-RHF Final Energy:  -422.96686710865333
    Total Energy =                       -422.9668671086534459
  Basis Set: 6-31G*
  Basis Set:
  Basis Set: 6-31G*
  Basis Set:
  @DF-RHF Final Energy:  -422.96687088196921
    Total Energy =                       -422.9668708819689300
  Basis Set: 6-31G*
  Basis Set:
  Charge       = 0
  Multiplicity = 1
  Basis Set: 6-31G*
  Basis Set:

    Orbital Energies (a.u.)
    -----------------------

    Doubly Occupied:

       1A    -20.600119     2A    -20.535807     3A    -11.375687
       4A    -11.288769     5A    -11.229019     6A    -11.220882
       7A    -11.217923     8A    -11.217500     9A    -11.210514
      10A     -1.459524    11A     -1.360090    12A     -1.091373
      13A     -1.039854    14A     -0.999526    15A     -0.933867
      16A     -0.858253    17A     -0.798143    18A     -0.747579
      19A     -0.688570    20A     -0.677040    21A     -0.670833
      22A     -0.642753    23A     -0.604681    24A     -0.588828
      25A     -0.579763    26A     -0.564235    27A     -0.557486
      28A     -0.530810    29A     -0.523873    30A     -0.514396
      31A     -0.496966    32A     -0.475769    33A     -0.468859
      34A     -0.452922    35A     -0.438040    36A     -0.425838

  @DF-RHF Final Energy:  -422.96687107863556

   => Energetics <=

    Nuclear Repulsion Energy =            457.0567615224850897
    One-Electron Energy =               -1481.8750818933135633
    Two-Electron Energy =                 601.8514492921916599
    DFT Exchange-Correlation Energy =       0.0000000000000000
    Empirical Dispersion Energy =           0.0000000000000000
    PCM Polarization Energy =               0.0000000000000000
    EFP Energy =                            0.0000000000000000
    Total Energy =                       -422.9668710786369275
    Molecular point group: c1
  Basis Set: 6-31G*
  Basis Set:

  -Total Gradient:
     Atom            X                  Y                   Z
    ------   -----------------  -----------------  -----------------
       1        0.000014455901     0.000002604225    -0.000016896334
       2       -0.000006955452    -0.000020241092     0.001022473289
       3       -0.000000457977    -0.000010583331     0.000004012610
       4       -0.000179111461     0.000087043368    -0.001412123336
       5       -0.000004059870    -0.000001357766    -0.000003035827
       6        0.000002033276     0.000003325210     0.000002755679
       7        0.000011231917     0.000005311003    -0.000007413998
       8        0.000475583053    -0.000870982174    -0.000129263416
       9       -0.000000828385     0.000050966517     0.000007917154
      10       -0.000310930239     0.000745065476     0.000545062001
      11        0.000038142709     0.000001670081     0.000003128627
      12       -0.000000086623     0.000000924064    -0.000013923434
      13       -0.000005601284     0.000008829624    -0.000006779229
      14       -0.000025055443     0.000001678573     0.000021947388
      15       -0.000010751820     0.000005742247    -0.000033275218
      16       -0.000010615935    -0.000004566892    -0.000002977433
      17        0.000008719330     0.000011074246    -0.000002206125
      18       -0.000009339844    -0.000010305119     0.000029108845
      19        0.000011238592     0.000007715632    -0.000006568707
      20        0.000008899012    -0.000003709919    -0.000008343965
      21       -0.000005795681    -0.000015456430     0.000000821023
      22        0.000002790798    -0.000001437734     0.000009121381
      23       -0.000003504564     0.000006690194    -0.000003540974

  **** Optimization is complete! (in 11 steps) ****
    Final optimized geometry and variables:
    Molecular point group: c1

    Geometry (in Angstrom), charge = 0, multiplicity = 1:

    O           -1.267302732874    -1.893931058227    -0.135433623912
    C           -2.129279505978    -1.081621628473    -0.035144041815
    C           -3.591210398737    -1.449423264675     0.053872936624
    O           -1.961661004242     0.227701749393     0.007731585390
    H           -3.733441501002    -2.094052576679     0.913145307166
    H           -4.226019321804    -0.580023531373     0.137424120738
    H           -3.858501573324    -2.018319860547    -0.828691794460
    C           -0.721431535753     0.944477291785    -0.017461456592
    C            0.596500651803     0.178755948467     0.000065643789
    H           -0.776902471735     1.571934124927    -0.898041287958
    H           -0.773139276584     1.596063985244     0.845402324128
    C            1.762037449081     1.173559073230     0.026365967129
    H            0.675609856052    -0.460695257194    -0.868457720623
    H            0.643967787743    -0.466992787827     0.867837096831
    C            3.126541971579     0.481639802197     0.033902043831
    H            1.702595530477     1.833673761944    -0.837952437203
    H            1.681967410959     1.812850984638     0.904445898384
    C            4.293577865452     1.467532711864     0.066040804842
    H            3.212236370429    -0.152336645817    -0.845341541695
    H            3.188300746765    -0.180404121734     0.894345464602
    H            4.279307099538     2.121266235259    -0.801543134764
    H            5.246344713399     0.947435341840     0.072026589282
    H            4.253722500654     2.094610766235     0.952314927957

  Mulliken Charges: (a.u.)
   Center  Symbol    Alpha    Beta     Spin     Total
       1     O     4.28279  4.28279  0.00000 -0.56558
       2     C     2.61553  2.61553  0.00000  0.76895
       3     C     3.28648  3.28648  0.00000 -0.57297
       4     O     4.32394  4.32394  0.00000 -0.64788
       5     H     0.39889  0.39889  0.00000  0.20223
       6     H     0.40052  0.40052  0.00000  0.19895
       7     H     0.39871  0.39871  0.00000  0.20257
       8     C     2.98159  2.98159  0.00000  0.03682
       9     C     3.17091  3.17091  0.00000 -0.34181
      10     H     0.41421  0.41421  0.00000  0.17158
      11     H     0.41399  0.41399  0.00000  0.17202
      12     C     3.16214  3.16214  0.00000 -0.32428
      13     H     0.40356  0.40356  0.00000  0.19287
      14     H     0.40768  0.40768  0.00000  0.18464
      15     C     3.15051  3.15051  0.00000 -0.30101
      16     H     0.42355  0.42355  0.00000  0.15290
      17     H     0.42367  0.42367  0.00000  0.15267
      18     C     3.23977  3.23977  0.00000 -0.47953
      19     H     0.41984  0.41984  0.00000  0.16032
      20     H     0.42014  0.42014  0.00000  0.15973
      21     H     0.42178  0.42178  0.00000  0.15643
      22     H     0.41795  0.41795  0.00000  0.16409
      23     H     0.42185  0.42185  0.00000  0.15631

   Total alpha = 36.00000, Total beta = 36.00000, Total charge = -0.00000
