  ==> Input File <==

--------------------------------------------------------------------------
set {
	reference rhf
	basis 6-31G*
}

set_num_threads( 1 )
memory 2 gb

molecule MOL {
0 1

H	 -3.261111	 -0.295142	 1.469456
C	 -3.306842	 -0.277400	 0.373456
C	 -2.660244	 0.921717	 -0.272021
O	 -3.838538	 -1.161155	 -0.216482
C	 -1.220012	 1.144545	 0.209990
H	 -2.705793	 0.797307	 -1.347733
H	 -3.263782	 1.790044	 -0.010477
C	 -0.252658	 0.041456	 -0.226725
H	 -0.873521	 2.100229	 -0.171974
H	 -1.211708	 1.231594	 1.295398
C	 1.180775	 0.282413	 0.250794
H	 -0.266029	 -0.034465	 -1.312038
H	 -0.597733	 -0.921000	 0.146291
C	 2.148627	 -0.814315	 -0.201312
H	 1.516199	 1.249228	 -0.115937
H	 1.192670	 0.346017	 1.338083
C	 3.580890	 -0.659131	 0.322722
H	 2.166869	 -0.852443	 -1.289387
H	 1.762857	 -1.776509	 0.128956
C	 4.625620	 -1.486342	 -0.428198
H	 3.595879	 -0.948271	 1.370635
H	 3.862944	 0.391378	 0.294474
H	 4.360769	 -2.540438	 -0.430267
H	 4.729850	 -1.169318	 -1.460480
H	 5.600554	 -1.392289	 0.040475

	symmetry c1
}
set optking {
	frozen_dihedral = ("
		6 3 5 8,
		6 3 2 4,
		3 5 8 12,
		12 8 11 14,
		8 11 14 18
	")
}

ee = energy('scf')
oeprop('DIPOLE', 'QUADRUPOLE', 'MULLIKEN_CHARGES')
f=open( 'psi4out.xyz', 'w' )
f.write( "25  " )
f.write( str(ee) + "\n" )
f.write( MOL.save_string_xyz() )
f.close()
--------------------------------------------------------------------------

    Molecular point group: c1

    Geometry (in Angstrom), charge = 0, multiplicity = 1:

       Center              X                  Y                   Z               Mass
    ------------   -----------------  -----------------  -----------------  -----------------
           H         -3.296200444824    -0.054920739439     1.494222530714     1.007825032070
           C         -3.341931444824    -0.037178739439     0.398222530714    12.000000000000
           C         -2.695333444824     1.161938260561    -0.247254469286    12.000000000000
           O         -3.873627444824    -0.920933739439    -0.191715469286    15.994914619560
           C         -1.255101444824     1.384766260561     0.234756530714    12.000000000000
           H         -2.740882444824     1.037528260561    -1.322966469286     1.007825032070
           H         -3.298871444824     2.030265260561     0.014289530714     1.007825032070
           C         -0.287747444824     0.281677260561    -0.201958469286    12.000000000000
           H         -0.908610444824     2.340450260561    -0.147207469286     1.007825032070
           H         -1.246797444824     1.471815260561     1.320164530714     1.007825032070
           C          1.145685555176     0.522634260561     0.275560530714    12.000000000000
           H         -0.301118444824     0.205756260561    -1.287271469286     1.007825032070
           H         -0.632822444824    -0.680778739439     0.171057530714     1.007825032070
           C          2.113537555176    -0.574093739439    -0.176545469286    12.000000000000
           H          1.481109555176     1.489449260561    -0.091170469286     1.007825032070
           H          1.157580555176     0.586238260561     1.362849530714     1.007825032070
           C          3.545800555176    -0.418909739439     0.347488530714    12.000000000000
           H          2.131779555176    -0.612221739439    -1.264620469286     1.007825032070
           H          1.727767555176    -1.536287739439     0.153722530714     1.007825032070
           C          4.590530555176    -1.246120739439    -0.403431469286    12.000000000000
           H          3.560789555176    -0.708049739439     1.395401530714     1.007825032070
           H          3.827854555176     0.631599260561     0.319240530714     1.007825032070
           H          4.325679555176    -2.300216739439    -0.405500469286     1.007825032070
           H          4.694760555176    -0.929096739439    -1.435713469286     1.007825032070
           H          5.565464555176    -1.152067739439     0.065241530714     1.007825032070

  Charge       = 0
  Multiplicity = 1
  Basis Set: 6-31G*
  Basis Set:

    Orbital Energies (a.u.)
    -----------------------

    Doubly Occupied:

       1A    -20.562071     2A    -11.326212     3A    -11.235492
       4A    -11.234761     5A    -11.224120     6A    -11.220858
       7A    -11.217693     8A    -11.216734     9A    -11.210778
      10A     -1.402054    11A     -1.103828    12A     -1.069023
      13A     -1.015376    14A     -0.943799    15A     -0.869073
      16A     -0.815215    17A     -0.793260    18A     -0.786924
      19A     -0.665042    20A     -0.663780    21A     -0.638679
      22A     -0.613877    23A     -0.608635    24A     -0.590892
      25A     -0.566661    26A     -0.556365    27A     -0.536344
      28A     -0.520270    29A     -0.509687    30A     -0.500273
      31A     -0.486277    32A     -0.478322    33A     -0.464000
      34A     -0.463055    35A     -0.441788    36A     -0.409629

  @DF-RHF Final Energy:  -387.12221148231799

   => Energetics <=

    Nuclear Repulsion Energy =            435.0440325450687169
    One-Electron Energy =               -1386.4105340869643896
    Two-Electron Energy =                 564.2442900595750643
    DFT Exchange-Correlation Energy =       0.0000000000000000
    Empirical Dispersion Energy =           0.0000000000000000
    PCM Polarization Energy =               0.0000000000000000
    EFP Energy =                            0.0000000000000000
    Total Energy =                       -387.1222114823206084

  Mulliken Charges: (a.u.)
   Center  Symbol    Alpha    Beta     Spin     Total
       1     H     0.43259  0.43259  0.00000  0.13483
       2     C     2.83086  2.83086  0.00000  0.33828
       3     C     3.20810  3.20810  0.00000 -0.41619
       4     O     4.23773  4.23773  0.00000 -0.47546
       5     C     3.16665  3.16665  0.00000 -0.33331
       6     H     0.39966  0.39966  0.00000  0.20068
       7     H     0.40664  0.40664  0.00000  0.18671
       8     C     3.15544  3.15544  0.00000 -0.31088
       9     H     0.41280  0.41280  0.00000  0.17440
      10     H     0.41954  0.41954  0.00000  0.16093
      11     C     3.15299  3.15299  0.00000 -0.30597
      12     H     0.41781  0.41781  0.00000  0.16438
      13     H     0.41825  0.41825  0.00000  0.16350
      14     C     3.15193  3.15193  0.00000 -0.30387
      15     H     0.42233  0.42233  0.00000  0.15533
      16     H     0.42331  0.42331  0.00000  0.15338
      17     C     3.15190  3.15190  0.00000 -0.30380
      18     H     0.42284  0.42284  0.00000  0.15432
      19     H     0.42189  0.42189  0.00000  0.15621
      20     C     3.23974  3.23974  0.00000 -0.47948
      21     H     0.42249  0.42249  0.00000  0.15502
      22     H     0.42330  0.42330  0.00000  0.15340
      23     H     0.42115  0.42115  0.00000  0.15770
      24     H     0.42089  0.42089  0.00000  0.15821
      25     H     0.41917  0.41917  0.00000  0.16167

   Total alpha = 36.00000, Total beta = 36.00000, Total charge =  0.00000
