  ==> Input File <==

--------------------------------------------------------------------------
set {
	reference rhf
	basis cc-pvtz
}

set_num_threads( 4 )
memory 2 gb

molecule MOL {
0 1

H	 -2.816458	 -0.841657	 -0.064679
N	 -1.878861	 -0.711874	 0.250184
C	 -1.341419	 0.551458	 -0.220231
H	 -1.333674	 -1.468530	 -0.105118
C	 -0.862336	 0.424768	 -1.648193
H	 -2.055787	 1.372195	 -0.169101
H	 -0.492799	 0.819922	 0.399302
O	 -1.960190	 0.165907	 -2.470030
H	 -0.373172	 1.347509	 -1.957129
H	 -0.139822	 -0.384942	 -1.720793
C	 -1.643345	 -0.040956	 -3.806457
H	 -2.563486	 -0.227198	 -4.341285
H	 -1.158103	 0.831120	 -4.239722
H	 -0.985634	 -0.897912	 -3.931374

	symmetry c1
}
set optking {
	frozen_dihedral = ("
		6 3 2 4
	")
}

ee = optimize('scf')
oeprop('DIPOLE', 'QUADRUPOLE', 'MULLIKEN_CHARGES')
f=open( 'psi4out.xyz', 'w' )
f.write( "14  " )
f.write( str(ee) + "\n" )
f.write( MOL.save_string_xyz() )
f.close()
--------------------------------------------------------------------------

    Molecular point group: c1
  Charge       = 0
  Multiplicity = 1
  Basis Set: CC-PVTZ
  Basis Set:
  @DF-RHF Final Energy:  -248.22221300015934
    Total Energy =                       -248.2222130001592859
    Molecular point group: c1
  Basis Set: CC-PVTZ
  Basis Set:
  Basis Set: CC-PVTZ
  Basis Set:
  @DF-RHF Final Energy:  -248.22420494730866
    Total Energy =                       -248.2242049473086354
  Basis Set: CC-PVTZ
  Basis Set:
  Basis Set: CC-PVTZ
  Basis Set:
  @DF-RHF Final Energy:  -248.22444185932258
    Total Energy =                       -248.2244418593226101
  Basis Set: CC-PVTZ
  Basis Set:
  Charge       = 0
  Multiplicity = 1
  Basis Set: CC-PVTZ
  Basis Set:

    Orbital Energies (a.u.)
    -----------------------

    Doubly Occupied:

       1A    -20.553934     2A    -15.525009     3A    -11.267780
       4A    -11.267088     5A    -11.240789     6A     -1.388298
       7A     -1.177381     8A     -1.001751     9A     -0.910288
      10A     -0.824089    11A     -0.687691    12A     -0.670349
      13A     -0.647732    14A     -0.638318    15A     -0.583098
      16A     -0.547004    17A     -0.531748    18A     -0.507215
      19A     -0.477343    20A     -0.423694    21A     -0.385814

  @DF-RHF Final Energy:  -248.22444665495146

   => Energetics <=

    Nuclear Repulsion Energy =            194.2933801853877753
    One-Electron Energy =                -722.5228312288990082
    Two-Electron Energy =                 280.0050043885598257
    DFT Exchange-Correlation Energy =       0.0000000000000000
    Empirical Dispersion Energy =           0.0000000000000000
    PCM Polarization Energy =               0.0000000000000000
    EFP Energy =                            0.0000000000000000
    Total Energy =                       -248.2244466549514641
    Molecular point group: c1
  Basis Set: CC-PVTZ
  Basis Set:

  -Total Gradient:
     Atom            X                  Y                   Z
    ------   -----------------  -----------------  -----------------
       1        0.000006767263     0.000034852707     0.000029302843
       2        0.002255602710     0.000177465042     0.002514652044
       3        0.000679901313     0.000724518942     0.002748834612
       4       -0.001977812228    -0.000231170258    -0.002570656381
       5        0.000091865808     0.000180422157     0.000090488673
       6       -0.000980414825    -0.000774396388    -0.002717831715
       7       -0.000002653023     0.000020586913     0.000000728380
       8        0.000046833160    -0.000062802040     0.000029540056
       9       -0.000021608762    -0.000019979578    -0.000010803967
      10       -0.000105788842    -0.000030488110    -0.000084813579
      11        0.000010438560    -0.000031856205     0.000022780120
      12       -0.000001689965     0.000003236436    -0.000026083413
      13        0.000001633578     0.000004446063    -0.000005832748
      14       -0.000003074747     0.000005164319    -0.000020304928

  **** Optimization is complete! (in 4 steps) ****
    Final optimized geometry and variables:
    Molecular point group: c1

    Geometry (in Angstrom), charge = 0, multiplicity = 1:

    H           -1.288278942394    -0.858539417788     1.578795996179
    N           -0.362320364662    -0.738923861938     1.931707651519
    C            0.217658559064     0.469008369018     1.371511427808
    H            0.144892733046    -1.546609504313     1.632657997965
    C            0.685675024769     0.354600810836    -0.067618700508
    H           -0.529675928433     1.252190470795     1.411678153443
    H            1.058652502234     0.782965576605     1.980534951865
    O           -0.406554464583     0.075593149226    -0.885974441554
    H            1.160224648122     1.286398886435    -0.374810287668
    H            1.432117365717    -0.436276129815    -0.158321809727
    C           -0.098205878250    -0.073288391283    -2.232038517510
    H           -1.015852230962    -0.284202800597    -2.761855398898
    H            0.342125698074     0.832671956383    -2.642716838172
    H            0.595796933903    -0.895391300451    -2.393455250424

  Mulliken Charges: (a.u.)
   Center  Symbol    Alpha    Beta     Spin     Total
       1     H     0.42653  0.42653  0.00000  0.14695
       2     N     3.68451  3.68451  0.00000 -0.36902
       3     C     3.02733  3.02733  0.00000 -0.05467
       4     H     0.43492  0.43492  0.00000  0.13016
       5     C     2.97082  2.97082  0.00000  0.05836
       6     H     0.45390  0.45390  0.00000  0.09219
       7     H     0.45599  0.45599  0.00000  0.08803
       8     O     4.17635  4.17635  0.00000 -0.35270
       9     H     0.47125  0.47125  0.00000  0.05750
      10     H     0.47783  0.47783  0.00000  0.04435
      11     C     3.03115  3.03115  0.00000 -0.06230
      12     H     0.44703  0.44703  0.00000  0.10594
      13     H     0.47071  0.47071  0.00000  0.05857
      14     H     0.47168  0.47168  0.00000  0.05663

   Total alpha = 21.00000, Total beta = 21.00000, Total charge = -0.00000
