  ==> Input File <==

--------------------------------------------------------------------------
set {
	reference rhf
	basis 6-31G*
}

set_num_threads( 1 )
memory 2 gb

molecule MOL {
0 1

H	 -2.172150	 0.880146	 0.502514
C	 -2.018062	 -0.000025	 -0.114509
O	 -0.774054	 0.001095	 -0.743181
H	 -2.760490	 0.003458	 -0.901350
H	 -2.173624	 -0.884374	 0.496163
C	 0.395487	 -0.249116	 0.015832
C	 1.519243	 -0.167506	 -1.014957
C	 0.595296	 0.822433	 1.092423
C	 0.360301	 -1.647401	 0.640873
H	 1.530054	 0.812490	 -1.478553
H	 1.366098	 -0.906374	 -1.793413
H	 2.485841	 -0.344112	 -0.554350
H	 0.547046	 1.812114	 0.650571
H	 1.565993	 0.705874	 1.563339
H	 -0.153586	 0.761199	 1.874714
H	 0.147403	 -2.392781	 -0.118162
H	 1.319610	 -1.882473	 1.090316
H	 -0.390724	 -1.728914	 1.419301

	symmetry c1
}
set optking {
	frozen_dihedral = ("
		2 3 6 7
	")
}

ee = energy('scf')
oeprop('DIPOLE', 'QUADRUPOLE', 'MULLIKEN_CHARGES')
f=open( 'psi4out.xyz', 'w' )
f.write( "18  " )
f.write( str(ee) + "\n" )
f.write( MOL.save_string_xyz() )
f.close()
--------------------------------------------------------------------------

    Molecular point group: c1

    Geometry (in Angstrom), charge = 0, multiplicity = 1:

       Center              X                  Y                   Z               Mass
    ------------   -----------------  -----------------  -----------------  -----------------
           H         -2.162704824262     1.085284064229     0.521569260016     1.007825032070
           C         -2.008616824262     0.205113064229    -0.095453739984    12.000000000000
           O         -0.764608824262     0.206233064229    -0.724125739984    15.994914619560
           H         -2.751044824262     0.208596064229    -0.882294739984     1.007825032070
           H         -2.164178824262    -0.679235935771     0.515218260016     1.007825032070
           C          0.404932175738    -0.043977935771     0.034887260016    12.000000000000
           C          1.528688175738     0.037632064229    -0.995901739984    12.000000000000
           C          0.604741175738     1.027571064229     1.111478260016    12.000000000000
           C          0.369746175738    -1.442262935771     0.659928260016    12.000000000000
           H          1.539499175738     1.017628064229    -1.459497739984     1.007825032070
           H          1.375543175738    -0.701235935771    -1.774357739984     1.007825032070
           H          2.495286175738    -0.138973935771    -0.535294739984     1.007825032070
           H          0.556491175738     2.017252064229     0.669626260016     1.007825032070
           H          1.575438175738     0.911012064229     1.582394260016     1.007825032070
           H         -0.144140824262     0.966337064229     1.893769260016     1.007825032070
           H          0.156848175738    -2.187642935771    -0.099106739984     1.007825032070
           H          1.329055175738    -1.677334935771     1.109371260016     1.007825032070
           H         -0.381278824262    -1.523775935771     1.438356260016     1.007825032070

  Charge       = 0
  Multiplicity = 1
  Basis Set: 6-31G*
  Basis Set:

    Orbital Energies (a.u.)
    -----------------------

    Doubly Occupied:

       1A    -20.546767     2A    -11.281344     3A    -11.260427
       4A    -11.208773     5A    -11.208599     6A    -11.203216
       7A     -1.370062     8A     -1.073048     9A     -0.945826
      10A     -0.939782    11A     -0.912386    12A     -0.752372
      13A     -0.655303    14A     -0.644239    15A     -0.637429
      16A     -0.592841    17A     -0.574656    18A     -0.552693
      19A     -0.534363    20A     -0.523695    21A     -0.514664
      22A     -0.487388    23A     -0.486404    24A     -0.438779
      25A     -0.404413

  @DF-RHF Final Energy:  -271.17522344667225

   => Energetics <=

    Nuclear Repulsion Energy =            272.2881643870350672
    One-Electron Energy =                -907.4274784430125464
    Two-Electron Energy =                 363.9640906093053445
    DFT Exchange-Correlation Energy =       0.0000000000000000
    Empirical Dispersion Energy =           0.0000000000000000
    PCM Polarization Energy =               0.0000000000000000
    EFP Energy =                            0.0000000000000000
    Total Energy =                       -271.1752234466721347

  Mulliken Charges: (a.u.)
   Center  Symbol    Alpha    Beta     Spin     Total
       1     H     0.42867  0.42867  0.00000  0.14267
       2     C     3.07932  3.07932  0.00000 -0.15865
       3     O     4.31855  4.31855  0.00000 -0.63711
       4     H     0.41322  0.41322  0.00000  0.17356
       5     H     0.43006  0.43006  0.00000  0.13989
       6     C     2.84258  2.84258  0.00000  0.31485
       7     C     3.23303  3.23303  0.00000 -0.46606
       8     C     3.24700  3.24700  0.00000 -0.49400
       9     C     3.24776  3.24776  0.00000 -0.49553
      10     H     0.41408  0.41408  0.00000  0.17184
      11     H     0.41413  0.41413  0.00000  0.17174
      12     H     0.42514  0.42514  0.00000  0.14973
      13     H     0.41333  0.41333  0.00000  0.17335
      14     H     0.41987  0.41987  0.00000  0.16027
      15     H     0.42040  0.42040  0.00000  0.15921
      16     H     0.41325  0.41325  0.00000  0.17350
      17     H     0.41947  0.41947  0.00000  0.16106
      18     H     0.42015  0.42015  0.00000  0.15970

   Total alpha = 25.00000, Total beta = 25.00000, Total charge = -0.00000
