                              Psi4 1.0.54 Driver

  ==> Input File <==

--------------------------------------------------------------------------
set {
	reference rhf
	basis cc-pvtz
}

set_num_threads( 4 )
memory 2 gb

molecule MOL {
0 1

H	 -2.137211	 -1.596497	 0.240758
O	 -2.321472	 -0.864941	 -0.318626
C	 -2.021813	 0.336996	 0.342658
C	 -0.669613	 0.837286	 -0.127252
H	 -2.780861	 1.084746	 0.127159
H	 -2.006390	 0.184138	 1.420053
C	 0.490865	 -0.082543	 0.241244
H	 -0.708709	 0.967192	 -1.204587
H	 -0.507562	 1.822272	 0.303070
C	 1.839800	 0.429565	 -0.255472
H	 0.305636	 -1.070211	 -0.165276
H	 0.527397	 -0.195943	 1.322876
C	 3.001144	 -0.485193	 0.119072
H	 1.804373	 0.541073	 -1.335756
H	 2.020437	 1.423114	 0.146921
H	 2.866892	 -1.477297	 -0.298806
H	 3.943543	 -0.095749	 -0.249061
H	 3.085064	 -0.590459	 1.195790

	symmetry c1
}
set optking {
	frozen_dihedral = ("
		1 2 3 4
	")
}

ee,wfn = optimize('scf', return_wfn=True)
oeprop( wfn, 'DIPOLE', 'QUADRUPOLE', 'MULLIKEN_CHARGES')
f=open( 'psi4out.xyz', 'w' )
f.write( "18  " )
f.write( str(ee) + "\n" )
f.write( MOL.save_string_xyz() )
f.close()
--------------------------------------------------------------------------

    Molecular point group: c1
  Charge       = 0
  Multiplicity = 1
  Basis Set: CC-PVTZ
  Basis Set:
  @DF-RHF Final Energy:  -271.28465579673906
    Total Energy =                       -271.2846557967392300
    Molecular point group: c1
  Basis Set: CC-PVTZ
  Basis Set:
  Basis Set: CC-PVTZ
  Basis Set:
  @DF-RHF Final Energy:  -271.28543926699615
    Total Energy =                       -271.2854392669961499
  Basis Set: CC-PVTZ
  Basis Set:
  Basis Set: CC-PVTZ
  Basis Set:
  @DF-RHF Final Energy:  -271.28567077154105
    Total Energy =                       -271.2856707715409357
  Basis Set: CC-PVTZ
  Basis Set:
  Basis Set: CC-PVTZ
  Basis Set:
  @DF-RHF Final Energy:  -271.28567389841243
    Total Energy =                       -271.2856738984124831
  Basis Set: CC-PVTZ
  Basis Set:
  Charge       = 0
  Multiplicity = 1
  Basis Set: CC-PVTZ
  Basis Set:

    Orbital Energies (a.u.)
    -----------------------

    Doubly Occupied:

       1A    -20.545552     2A    -11.266078     3A    -11.213984
       4A    -11.212549     5A    -11.211085     6A    -11.207183
       7A     -1.362977     8A     -1.080574     9A     -1.012151
      10A     -0.919667    11A     -0.825658    12A     -0.789045
      13A     -0.704697    14A     -0.643329    15A     -0.624132
      16A     -0.591969    17A     -0.575900    18A     -0.565949
      19A     -0.524515    20A     -0.506953    21A     -0.487008
      22A     -0.475826    23A     -0.465687    24A     -0.459909
      25A     -0.425387

  @DF-RHF Final Energy:  -271.28567434624460

   => Energetics <=

    Nuclear Repulsion Energy =            248.9832721072488084
    One-Electron Energy =                -861.1423676118056392
    Two-Electron Energy =                 340.8734211583121692
    DFT Exchange-Correlation Energy =       0.0000000000000000
    Empirical Dispersion Energy =           0.0000000000000000
    PCM Polarization Energy =               0.0000000000000000
    EFP Energy =                            0.0000000000000000
    Total Energy =                       -271.2856743462446616
    Molecular point group: c1
  Basis Set: CC-PVTZ
  Basis Set:

  -Total Gradient:
     Atom            X                  Y                   Z
    ------   -----------------  -----------------  -----------------
       1       -0.000842551870     0.000095825860     0.000336749830
       2        0.000940822250    -0.000027504362    -0.000613383360
       3        0.000137498227    -0.000348579405     0.000710496434
       4       -0.000276000939     0.000228819897    -0.000429818813
       5        0.000000985829     0.000009500207     0.000005480149
       6        0.000010679497    -0.000000980805    -0.000002598197
       7        0.000002892617     0.000006902080    -0.000015442200
       8        0.000015653264     0.000004293893    -0.000000325229
       9        0.000021455622    -0.000005009702    -0.000006719823
      10        0.000007351212     0.000013181661     0.000011001837
      11       -0.000016175556     0.000024205131    -0.000004575791
      12        0.000003999342    -0.000003180465    -0.000000409250
      13       -0.000005469440     0.000000379169     0.000009246353
      14       -0.000008615482    -0.000006842266     0.000004599858
      15        0.000005790559     0.000006909561    -0.000003836963
      16       -0.000000622896     0.000001747992    -0.000000014141
      17        0.000000309058     0.000002312608    -0.000000575395
      18        0.000001998703    -0.000001981053     0.000000124700

  **** Optimization is complete! (in 5 steps) ****
    Final optimized geometry and variables:
    Molecular point group: c1

    Geometry (in Angstrom), charge = 0, multiplicity = 1:

    H           -2.220086208558    -1.606895451921     0.294740057849
    O           -2.396436675287    -0.881059501378    -0.272291787093
    C           -2.021973447145     0.327783574532     0.340882752443
    C           -0.673516787018     0.829979102378    -0.149315959263
    H           -2.787507524860     1.054738908052     0.099317205168
    H           -2.012470002245     0.219739500586     1.422459353619
    C            0.498401184803    -0.071666494673     0.225957151261
    H           -0.721330559409     0.937863801560    -1.228691554467
    H           -0.514231568240     1.824935256659     0.260198268986
    C            1.843616980568     0.448823788951    -0.272553150960
    H            0.330443984882    -1.064874700854    -0.179161707454
    H            0.537327816330    -0.179676365359     1.308629349318
    C            3.012707826280    -0.454937184093     0.104068317760
    H            1.805849151992     0.557335061558    -1.352806559382
    H            2.014813606587     1.444551508578     0.127572740188
    H            2.887560681050    -1.449424205975    -0.311180119455
    H            3.951178260083    -0.058277185207    -0.265890510570
    H            3.098576856475    -0.556132498959     1.181015701552

  Mulliken Charges: (a.u.)
   Center  Symbol    Alpha    Beta     Spin     Total
       1     H     0.39062  0.39062  0.00000  0.21876
       2     O     4.20834  4.20834  0.00000 -0.41669
       3     C     2.98407  2.98407  0.00000  0.03185
       4     C     3.08032  3.08032  0.00000 -0.16065
       5     H     0.45088  0.45088  0.00000  0.09825
       6     H     0.46890  0.46890  0.00000  0.06220
       7     C     3.09689  3.09689  0.00000 -0.19378
       8     H     0.45240  0.45240  0.00000  0.09521
       9     H     0.45609  0.45609  0.00000  0.08782
      10     C     3.08338  3.08338  0.00000 -0.16675
      11     H     0.45269  0.45269  0.00000  0.09462
      12     H     0.45805  0.45805  0.00000  0.08389
      13     C     3.14994  3.14994  0.00000 -0.29989
      14     H     0.45303  0.45303  0.00000  0.09394
      15     H     0.45533  0.45533  0.00000  0.08934
      16     H     0.45494  0.45494  0.00000  0.09012
      17     H     0.44823  0.44823  0.00000  0.10354
      18     H     0.45589  0.45589  0.00000  0.08822

   Total alpha = 25.00000, Total beta = 25.00000, Total charge = -0.00000

*** Psi4 exiting successfully. Buy a developer a beer!
