                              Psi4 1.0.54 Driver

  ==> Input File <==

--------------------------------------------------------------------------
set {
	reference rhf
	basis cc-pvtz
}

set_num_threads( 4 )
memory 2 gb

molecule MOL {
0 1

H	 -2.816458	 -0.841657	 -0.064679
N	 -1.878861	 -0.711874	 0.250184
C	 -1.341419	 0.551458	 -0.220231
H	 -1.333674	 -1.468530	 -0.105118
C	 -1.427955	 1.600886	 0.864140
H	 -0.306099	 0.485166	 -0.552287
H	 -1.932919	 0.887392	 -1.064818
O	 -0.600823	 1.223377	 1.922936
H	 -1.113842	 2.566361	 0.469979
H	 -2.456924	 1.690232	 1.204975
C	 -0.643287	 2.075209	 3.019202
H	 0.032791	 1.687752	 3.767653
H	 -0.329145	 3.082199	 2.752777
H	 -1.643130	 2.127940	 3.443581

	symmetry c1
}
set optking {
	frozen_dihedral = ("
		6 3 2 4
	")
}

ee,wfn = optimize('scf', return_wfn=True)
oeprop( wfn, 'DIPOLE', 'QUADRUPOLE', 'MULLIKEN_CHARGES')
f=open( 'psi4out.xyz', 'w' )
f.write( "14  " )
f.write( str(ee) + "\n" )
f.write( MOL.save_string_xyz() )
f.close()
--------------------------------------------------------------------------

    Molecular point group: c1
  Charge       = 0
  Multiplicity = 1
  Basis Set: CC-PVTZ
  Basis Set:
  @DF-RHF Final Energy:  -248.21888450208272
    Total Energy =                       -248.2188845020828012
    Molecular point group: c1
  Basis Set: CC-PVTZ
  Basis Set:
  Basis Set: CC-PVTZ
  Basis Set:
  @DF-RHF Final Energy:  -248.22051231497005
    Total Energy =                       -248.2205123149700512
  Basis Set: CC-PVTZ
  Basis Set:
  Basis Set: CC-PVTZ
  Basis Set:
  @DF-RHF Final Energy:  -248.22078312302534
    Total Energy =                       -248.2207831230253419
  Basis Set: CC-PVTZ
  Basis Set:
  Basis Set: CC-PVTZ
  Basis Set:
  @DF-RHF Final Energy:  -248.22080296878892
    Total Energy =                       -248.2208029687889166
  Basis Set: CC-PVTZ
  Basis Set:
  Charge       = 0
  Multiplicity = 1
  Basis Set: CC-PVTZ
  Basis Set:

    Orbital Energies (a.u.)
    -----------------------

    Doubly Occupied:

       1A    -20.541880     2A    -15.525002     3A    -11.259490
       4A    -11.257398     5A    -11.241538     6A     -1.377687
       7A     -1.175456     8A     -0.998596     9A     -0.902115
      10A     -0.815831    11A     -0.682616    12A     -0.670072
      13A     -0.640730    14A     -0.626956    15A     -0.599990
      16A     -0.535049    17A     -0.520418    18A     -0.506249
      19A     -0.466767    20A     -0.412356    21A     -0.382094

  @DF-RHF Final Energy:  -248.22080474815252

   => Energetics <=

    Nuclear Repulsion Energy =            193.2999795984879654
    One-Electron Energy =                -720.7649916708796809
    Two-Electron Energy =                 279.2442073242389711
    DFT Exchange-Correlation Energy =       0.0000000000000000
    Empirical Dispersion Energy =           0.0000000000000000
    PCM Polarization Energy =               0.0000000000000000
    EFP Energy =                            0.0000000000000000
    Total Energy =                       -248.2208047481527160
    Molecular point group: c1
  Basis Set: CC-PVTZ
  Basis Set:

  -Total Gradient:
     Atom            X                  Y                   Z
    ------   -----------------  -----------------  -----------------
       1       -0.000001702640     0.000014757163    -0.000020588830
       2       -0.000577529160    -0.000064020601    -0.000780190286
       3        0.000341974779     0.000290371514     0.000841644395
       4        0.000424561595     0.000005432001     0.000549704362
       5       -0.000039114396    -0.000093842702     0.000089282230
       6       -0.000162785819    -0.000165671503    -0.000583872627
       7        0.000005454495    -0.000035116222     0.000019598635
       8       -0.000014229595     0.000017340761    -0.000129398654
       9        0.000044431389     0.000000590791     0.000038772090
      10       -0.000034208189     0.000008565641    -0.000034231006
      11        0.000031846122     0.000044027857     0.000016742868
      12       -0.000008917295    -0.000007943896    -0.000007949347
      13       -0.000004896206    -0.000002139398     0.000011376674
      14       -0.000004885078    -0.000012351406    -0.000010890503

  **** Optimization is complete! (in 5 steps) ****
    Final optimized geometry and variables:
    Molecular point group: c1

    Geometry (in Angstrom), charge = 0, multiplicity = 1:

    H           -1.819316235910    -1.740462760395    -1.170312478478
    N           -0.870689069451    -1.667971381014    -0.875599669597
    C           -0.242155809803    -0.445279914000    -1.350048435987
    H           -0.386860949634    -2.481304411528    -1.182795974468
    C           -0.232831200546     0.641618549740    -0.294525796659
    H            0.783879312668    -0.653218059015    -1.626871232934
    H           -0.732710961833    -0.050556614625    -2.237624841435
    O            0.682912329094     0.318574570725     0.700249260043
    H            0.036753937725     1.593561388385    -0.754101810626
    H           -1.231456124152     0.749524710578     0.127398108325
    C            0.686601352235     1.185809852363     1.783020762844
    H            1.438299327495     0.843572995377     2.479634660001
    H            0.928317974092     2.203622812544     1.481354709176
    H           -0.277217330527     1.197623659524     2.287284332480

  Mulliken Charges: (a.u.)
   Center  Symbol    Alpha    Beta     Spin     Total
       1     H     0.42946  0.42946  0.00000  0.14108
       2     N     3.69178  3.69178  0.00000 -0.38356
       3     C     3.03887  3.03887  0.00000 -0.07774
       4     H     0.42456  0.42456  0.00000  0.15089
       5     C     2.94706  2.94706  0.00000  0.10587
       6     H     0.45342  0.45342  0.00000  0.09317
       7     H     0.46244  0.46244  0.00000  0.07513
       8     O     4.17070  4.17070  0.00000 -0.34140
       9     H     0.47613  0.47613  0.00000  0.04775
      10     H     0.48048  0.48048  0.00000  0.03904
      11     C     3.03153  3.03153  0.00000 -0.06306
      12     H     0.44790  0.44790  0.00000  0.10421
      13     H     0.47441  0.47441  0.00000  0.05119
      14     H     0.47128  0.47128  0.00000  0.05744

   Total alpha = 21.00000, Total beta = 21.00000, Total charge =  0.00000

*** Psi4 exiting successfully. Buy a developer a beer!
