  ==> Input File <==

--------------------------------------------------------------------------
set {
	reference rhf
	basis cc-pvtz
}

set_num_threads( 4 )
memory 2 gb

molecule MOL {
0 1

H	 -2.266619	 1.169943	 0.000098
O	 -1.438073	 1.611259	 0.000041
C	 -0.408657	 0.734701	 0.000005
C	 0.580910	 0.933469	 0.944811
C	 -0.334919	 -0.321196	 -0.900971
H	 0.487615	 1.759535	 1.622190
C	 1.660300	 0.077550	 1.002134
C	 0.760730	 -1.165346	 -0.820408
C	 -1.415634	 -0.536758	 -1.931403
H	 2.424697	 0.238070	 1.738279
C	 1.756456	 -0.979254	 0.117628
H	 0.832420	 -1.986147	 -1.509694
H	 -1.512285	 0.315295	 -2.598475
H	 -1.193520	 -1.399616	 -2.542617
H	 -2.384082	 -0.708514	 -1.469956
H	 2.593217	 -1.649108	 0.156314

	symmetry c1
}
set optking {
	frozen_dihedral = ("
		4 3 2 1
	")
}

ee = optimize('scf')
oeprop('DIPOLE', 'QUADRUPOLE', 'MULLIKEN_CHARGES')
f=open( 'psi4out.xyz', 'w' )
f.write( "16  " )
f.write( str(ee) + "\n" )
f.write( MOL.save_string_xyz() )
f.close()
--------------------------------------------------------------------------

    Molecular point group: c1
  Charge       = 0
  Multiplicity = 1
  Basis Set: CC-PVTZ
  Basis Set:
  @DF-RHF Final Energy:  -344.71705623853245
    Total Energy =                       -344.7170562385327344
    Molecular point group: c1
  Basis Set: CC-PVTZ
  Basis Set:
  Basis Set: CC-PVTZ
  Basis Set:
  @DF-RHF Final Energy:  -344.71738831233887
    Total Energy =                       -344.7173883123391533
  Basis Set: CC-PVTZ
  Basis Set:
  Basis Set: CC-PVTZ
  Basis Set:
  @DF-RHF Final Energy:  -344.71743820928901
    Total Energy =                       -344.7174382092892415
  Basis Set: CC-PVTZ
  Basis Set:
  Basis Set: CC-PVTZ
  Basis Set:
  @DF-RHF Final Energy:  -344.71744753552957
    Total Energy =                       -344.7174475355294021
  Basis Set: CC-PVTZ
  Basis Set:
  Basis Set: CC-PVTZ
  Basis Set:
  @DF-RHF Final Energy:  -344.71744896677581
    Total Energy =                       -344.7174489667759758
  Basis Set: CC-PVTZ
  Basis Set:
  Charge       = 0
  Multiplicity = 1
  Basis Set: CC-PVTZ
  Basis Set:

    Orbital Energies (a.u.)
    -----------------------

    Doubly Occupied:

       1A    -20.574701     2A    -11.285911     3A    -11.234052
       4A    -11.227504     5A    -11.227007     6A    -11.226121
       7A    -11.220638     8A    -11.220208     9A     -1.402494
      10A     -1.153694    11A     -1.050212    12A     -1.007599
      13A     -0.940090    14A     -0.828922    15A     -0.817633
      16A     -0.731911    17A     -0.676746    18A     -0.651801
      19A     -0.623705    20A     -0.597178    21A     -0.575368
      22A     -0.572407    23A     -0.551665    24A     -0.533518
      25A     -0.504185    26A     -0.487823    27A     -0.472021
      28A     -0.333331    29A     -0.317386

  @DF-RHF Final Energy:  -344.71744912522337

   => Energetics <=

    Nuclear Repulsion Energy =            350.7424252214674993
    One-Electron Energy =               -1162.8280863955092173
    Two-Electron Energy =                 467.3682120488179521
    DFT Exchange-Correlation Energy =       0.0000000000000000
    Empirical Dispersion Energy =           0.0000000000000000
    PCM Polarization Energy =               0.0000000000000000
    EFP Energy =                            0.0000000000000000
    Total Energy =                       -344.7174491252237090
    Molecular point group: c1
  Basis Set: CC-PVTZ
  Basis Set:

  -Total Gradient:
     Atom            X                  Y                   Z
    ------   -----------------  -----------------  -----------------
       1       -0.000025103889     0.000069018090     0.001914457720
       2       -0.000333408298    -0.000426014871    -0.001964820477
       3        0.001075268011     0.001101755012    -0.000860177436
       4       -0.000720135664    -0.000736563603     0.000915723798
       5       -0.000012556700     0.000006703027    -0.000008625571
       6        0.000000153949    -0.000008455814    -0.000007517245
       7        0.000010416814    -0.000018660428    -0.000005487471
       8       -0.000016807973     0.000026080167    -0.000014139736
       9       -0.000004944601    -0.000006819758     0.000024255564
      10        0.000005659454    -0.000001761870     0.000002907195
      11        0.000012724009     0.000001917072     0.000015438159
      12        0.000000013091    -0.000005335439    -0.000002933802
      13        0.000007431169    -0.000003119204    -0.000002970078
      14        0.000003998420    -0.000001022735    -0.000010263986
      15        0.000003352552     0.000002738245     0.000002133656
      16       -0.000006060348    -0.000000457891     0.000002019710

  **** Optimization is complete! (in 6 steps) ****
    Final optimized geometry and variables:
    Molecular point group: c1

    Geometry (in Angstrom), charge = 0, multiplicity = 1:

    H           -2.330796438420     1.102738437761     0.181962940187
    O           -1.501143963250     1.545782837446     0.179066177688
    C           -0.470822828519     0.654518492338     0.223451059482
    C            0.516453047923     0.856185874939     1.165483753751
    C           -0.403227464006    -0.406117213757    -0.672502169183
    H            0.424611491292     1.686172685567     1.838303405748
    C            1.600668028089     0.001921060589     1.223404485337
    C            0.686719193522    -1.255513390804    -0.587331587557
    C           -1.484506232723    -0.610879920797    -1.702268569370
    H            2.368944786749     0.165396721040     1.954679450747
    C            1.686417300088    -1.060651761886     0.347607027839
    H            0.757454837638    -2.080860481684    -1.271100110506
    H           -1.639935476978     0.286118203294    -2.289452980998
    H           -1.225169526867    -1.416364466948    -2.374995139486
    H           -2.435296921947    -0.867446959360    -1.242662656264
    H            2.522632158425    -1.731629019942     0.387026024603

  Mulliken Charges: (a.u.)
   Center  Symbol    Alpha    Beta     Spin     Total
       1     H     0.38560  0.38560  0.00000  0.22880
       2     O     4.18518  4.18518  0.00000 -0.37037
       3     C     2.88146  2.88146  0.00000  0.23708
       4     C     3.10950  3.10950  0.00000 -0.21899
       5     C     3.00178  3.00178  0.00000 -0.00356
       6     H     0.41786  0.41786  0.00000  0.16428
       7     C     3.07161  3.07161  0.00000 -0.14322
       8     C     3.08991  3.08991  0.00000 -0.17983
       9     C     3.15480  3.15480  0.00000 -0.30959
      10     H     0.42229  0.42229  0.00000  0.15541
      11     C     3.08373  3.08373  0.00000 -0.16745
      12     H     0.42509  0.42509  0.00000  0.14982
      13     H     0.44014  0.44014  0.00000  0.11973
      14     H     0.44914  0.44914  0.00000  0.10171
      15     H     0.45751  0.45751  0.00000  0.08498
      16     H     0.42440  0.42440  0.00000  0.15120

   Total alpha = 29.00000, Total beta = 29.00000, Total charge =  0.00000
