  ==> Input File <==

--------------------------------------------------------------------------
set {
	reference rhf
	basis 6-31G*
}

set_num_threads( 4 )
memory 2 gb

molecule MOL {
0 1

H	 -2.365627	 -1.312883	 -0.379134
C	 -1.358347	 -1.274295	 0.019669
C	 -0.681945	 0.000119	 -0.470601
H	 -0.826096	 -2.155117	 -0.321105
H	 -1.409554	 -1.292283	 1.100109
C	 -1.357790	 1.274691	 0.020220
N	 0.739525	 -0.000142	 0.006128
H	 -0.594190	 0.000341	 -1.545128
H	 -2.364980	 1.313977	 -0.378631
H	 -0.825080	 2.155361	 -0.320114
H	 -1.409060	 1.292170	 1.100671
O	 1.202573	 -1.041549	 0.354895
O	 1.317804	 1.044365	 0.005863

	symmetry c1
}
set optking {
	frozen_dihedral = ("
		12 7 3 8
	")
}

ee = optimize('scf')
oeprop('DIPOLE', 'QUADRUPOLE', 'MULLIKEN_CHARGES')
f=open( 'psi4out.xyz', 'w' )
f.write( "13  " )
f.write( str(ee) + "\n" )
f.write( MOL.save_string_xyz() )
f.close()
--------------------------------------------------------------------------

    Molecular point group: c1
  Charge       = 0
  Multiplicity = 1
  Basis Set: 6-31G*
  Basis Set:
  @DF-RHF Final Energy:  -321.73617328596890
    Total Energy =                       -321.7361732859690164
    Molecular point group: c1
  Basis Set: 6-31G*
  Basis Set:
  Basis Set: 6-31G*
  Basis Set:
  @DF-RHF Final Energy:  -321.73311625417762
    Total Energy =                       -321.7331162541777303
  Basis Set: 6-31G*
  Basis Set:
  Basis Set: 6-31G*
  Basis Set:
  @DF-RHF Final Energy:  -321.73465339113341
    Total Energy =                       -321.7346533911335200
  Basis Set: 6-31G*
  Basis Set:
  Basis Set: 6-31G*
  Basis Set:
  @DF-RHF Final Energy:  -321.73691293412446
    Total Energy =                       -321.7369129341244616
  Basis Set: 6-31G*
  Basis Set:
  @DF-RHF Final Energy:  -321.73714989092866
    Total Energy =                       -321.7371498909282650
  Basis Set: 6-31G*
  Basis Set:
  @DF-RHF Final Energy:  -321.73692123133145
    Total Energy =                       -321.7369212313313938
  Basis Set: 6-31G*
  Basis Set:
  Basis Set: 6-31G*
  Basis Set:
  @DF-RHF Final Energy:  -321.73716688409939
    Total Energy =                       -321.7371668840994516
  Basis Set: 6-31G*
  Basis Set:
  Basis Set: 6-31G*
  Basis Set:
  @DF-RHF Final Energy:  -321.73717997590984
    Total Energy =                       -321.7371799759100668
  Basis Set: 6-31G*
  Basis Set:
  Charge       = 0
  Multiplicity = 1
  Basis Set: 6-31G*
  Basis Set:

    Orbital Energies (a.u.)
    -----------------------

    Doubly Occupied:

       1A    -20.601152     2A    -20.597777     3A    -15.844598
       4A    -11.308716     5A    -11.242439     6A    -11.240514
       7A     -1.629576     8A     -1.414311     9A     -1.141204
      10A     -0.968056    11A     -0.959123    12A     -0.812729
      13A     -0.762477    14A     -0.725092    15A     -0.719790
      16A     -0.639421    17A     -0.596035    18A     -0.585621
      19A     -0.571155    20A     -0.522856    21A     -0.521702
      22A     -0.480051    23A     -0.471833    24A     -0.447440

  @DF-RHF Final Energy:  -321.73718052155442

   => Energetics <=

    Nuclear Repulsion Energy =            256.6713249683915024
    One-Electron Energy =                -947.2096739251554709
    Two-Electron Energy =                 368.8011684352095472
    DFT Exchange-Correlation Energy =       0.0000000000000000
    Empirical Dispersion Energy =           0.0000000000000000
    PCM Polarization Energy =               0.0000000000000000
    EFP Energy =                            0.0000000000000000
    Total Energy =                       -321.7371805215543645
    Molecular point group: c1
  Basis Set: 6-31G*
  Basis Set:

  -Total Gradient:
     Atom            X                  Y                   Z
    ------   -----------------  -----------------  -----------------
       1        0.000008812867     0.000008675223    -0.000000633499
       2       -0.000028488048    -0.000083018498     0.000032744571
       3        0.000044822805     0.000851871751    -0.000333238777
       4       -0.000004639903     0.000032385430     0.000003703943
       5       -0.000008551357    -0.000015282230     0.000032536485
       6        0.000071834589    -0.000016470837    -0.000010900479
       7       -0.000348781693     0.000089633698     0.000994077670
       8        0.000031765621    -0.000750264353    -0.000040902710
       9        0.000026432307    -0.000014189000    -0.000008154036
      10        0.000007368235    -0.000020722576     0.000024636677
      11       -0.000014197248     0.000023562919     0.000032894301
      12        0.000232314106    -0.000025546128    -0.000742566794
      13       -0.000018692279    -0.000080635398     0.000015802649

  **** Optimization is complete! (in 9 steps) ****
    Final optimized geometry and variables:
    Molecular point group: c1

    Geometry (in Angstrom), charge = 0, multiplicity = 1:

    H           -2.401125178422    -1.264070276576    -0.377071539888
    C           -1.388346539852    -1.278541524871     0.009807390535
    C           -0.684972254953    -0.008379534814    -0.443834955356
    H           -0.890885701000    -2.164203118682    -0.356411406017
    H           -1.435941529981    -1.333474342169     1.090836706132
    C           -1.379936437242     1.267442926486     0.015031723629
    N            0.749336625393     0.002166396938     0.023681108814
    H           -0.579882418447    -0.007224527844    -1.522460172524
    H           -2.393976261111     1.265991216043    -0.367660861314
    H           -0.872358662356     2.148316979199    -0.347178546669
    H           -1.426601375545     1.312378921612     1.097651547580
    O            1.235998870892    -1.028408607476     0.371212348755
    O            1.328883469659     1.043789584409    -0.028306015337

  Mulliken Charges: (a.u.)
   Center  Symbol    Alpha    Beta     Spin     Total
       1     H     0.41203  0.41203  0.00000  0.17595
       2     C     3.24268  3.24268  0.00000 -0.48536
       3     C     3.02863  3.02863  0.00000 -0.05726
       4     H     0.39568  0.39568  0.00000  0.20865
       5     H     0.40620  0.40620  0.00000  0.18760
       6     C     3.24687  3.24687  0.00000 -0.49374
       7     N     3.21630  3.21630  0.00000  0.56740
       8     H     0.38494  0.38494  0.00000  0.23012
       9     H     0.41016  0.41016  0.00000  0.17968
      10     H     0.39122  0.39122  0.00000  0.21756
      11     H     0.40785  0.40785  0.00000  0.18429
      12     O     4.22819  4.22819  0.00000 -0.45639
      13     O     4.22926  4.22926  0.00000 -0.45851

   Total alpha = 24.00000, Total beta = 24.00000, Total charge = -0.00000
