  ==> Input File <==

--------------------------------------------------------------------------
set {
	reference rhf
	basis 6-31G*
}

set_num_threads( 4 )
memory 2 gb

molecule MOL {
0 1

H	 -2.273092	 1.173159	 0.000295
O	 -1.438904	 1.618192	 0.000114
C	 -0.409536	 0.736003	 0.000030
C	 -0.340721	 -0.138991	 -1.072746
C	 0.539652	 0.697804	 1.019110
H	 -1.093123	 -0.075474	 -1.836846
C	 0.681169	 -1.066660	 -1.141160
C	 1.555990	 -0.245102	 0.924382
C	 0.462738	 1.653248	 2.188818
H	 0.728929	 -1.742706	 -1.976130
C	 1.637648	 -1.124919	 -0.140296
H	 2.297129	 -0.287457	 1.703654
H	 -0.462076	 1.535667	 2.749921
H	 1.278473	 1.479400	 2.878984
H	 0.528092	 2.691772	 1.870707
H	 2.435228	 -1.843867	 -0.186986

	symmetry c1
}
set optking {
	frozen_dihedral = ("
		4 3 2 1
	")
}

ee = optimize('scf')
oeprop('DIPOLE', 'QUADRUPOLE', 'MULLIKEN_CHARGES')
f=open( 'psi4out.xyz', 'w' )
f.write( "16  " )
f.write( str(ee) + "\n" )
f.write( MOL.save_string_xyz() )
f.close()
--------------------------------------------------------------------------

    Molecular point group: c1
  Charge       = 0
  Multiplicity = 1
  Basis Set: 6-31G*
  Basis Set:
  @DF-RHF Final Energy:  -344.58995316989854
    Total Energy =                       -344.5899531698985356
    Molecular point group: c1
  Basis Set: 6-31G*
  Basis Set:
  Basis Set: 6-31G*
  Basis Set:
  @DF-RHF Final Energy:  -344.59165755874022
    Total Energy =                       -344.5916575587402804
  Basis Set: 6-31G*
  Basis Set:
  Basis Set: 6-31G*
  Basis Set:
  @DF-RHF Final Energy:  -344.59176370477383
    Total Energy =                       -344.5917637047738822
  Basis Set: 6-31G*
  Basis Set:
  Basis Set: 6-31G*
  Basis Set:
  @DF-RHF Final Energy:  -344.59177223579655
    Total Energy =                       -344.5917722357964408
  Basis Set: 6-31G*
  Basis Set:
  Basis Set: 6-31G*
  Basis Set:
  @DF-RHF Final Energy:  -344.59177391994541
    Total Energy =                       -344.5917739199455809
  Basis Set: 6-31G*
  Basis Set:
  Charge       = 0
  Multiplicity = 1
  Basis Set: 6-31G*
  Basis Set:

    Orbital Energies (a.u.)
    -----------------------

    Doubly Occupied:

       1A    -20.578893     2A    -11.285433     3A    -11.232435
       4A    -11.230058     5A    -11.227811     6A    -11.225680
       7A    -11.223712     8A    -11.214704     9A     -1.394103
      10A     -1.148132    11A     -1.043343    12A     -1.002618
      13A     -0.929706    14A     -0.834351    15A     -0.800699
      16A     -0.726677    17A     -0.666466    18A     -0.653052
      19A     -0.618569    20A     -0.590725    21A     -0.571245
      22A     -0.560805    23A     -0.541127    24A     -0.522271
      25A     -0.499159    26A     -0.481788    27A     -0.464888
      28A     -0.328710    29A     -0.313393

  @DF-RHF Final Energy:  -344.59177412650371

   => Energetics <=

    Nuclear Repulsion Energy =            349.7409122862947584
    One-Electron Energy =               -1160.8442684359631585
    Two-Electron Energy =                 466.5115820231646921
    DFT Exchange-Correlation Energy =       0.0000000000000000
    Empirical Dispersion Energy =           0.0000000000000000
    PCM Polarization Energy =               0.0000000000000000
    EFP Energy =                            0.0000000000000000
    Total Energy =                       -344.5917741265036511
    Molecular point group: c1
  Basis Set: 6-31G*
  Basis Set:

  -Total Gradient:
     Atom            X                  Y                   Z
    ------   -----------------  -----------------  -----------------
       1        0.000036500861    -0.000100672883     0.002002525753
       2        0.000349677506     0.000677332005    -0.002869729734
       3       -0.001266624244    -0.001562451679     0.001598717306
       4        0.000853005893     0.000996834842    -0.000746775611
       5       -0.000017051903    -0.000005682358     0.000001785333
       6        0.000005512189     0.000000794000     0.000006342450
       7       -0.000001613356    -0.000006300897    -0.000009366921
       8        0.000006368949     0.000004985629    -0.000002195725
       9        0.000016399336     0.000001504905    -0.000010074332
      10        0.000004303920    -0.000005337655     0.000002825088
      11        0.000005690678     0.000008847129     0.000022435784
      12        0.000003735539     0.000000412738     0.000005653298
      13        0.000001759516    -0.000009535673    -0.000005220711
      14        0.000004478736     0.000002462876     0.000006521770
      15        0.000000057675    -0.000004019917    -0.000000763892
      16       -0.000002201293     0.000000826938    -0.000002679855

  **** Optimization is complete! (in 6 steps) ****
    Final optimized geometry and variables:
    Molecular point group: c1

    Geometry (in Angstrom), charge = 0, multiplicity = 1:

    H           -2.539202853729     0.920164071425    -0.193973717670
    O           -1.686815787162     1.333603334263    -0.185424056089
    C           -0.698150128445     0.387951539466    -0.247248734638
    C           -0.619866692925    -0.474255198268    -1.326261165625
    C            0.255992266799     0.364557432620     0.766359200308
    H           -1.359242712111    -0.408616453797    -2.105156472415
    C            0.405775157275    -1.403142588709    -1.398731154139
    C            1.281174752438    -0.566034370899     0.666524435900
    C            0.164526482470     1.328499321518     1.923989093741
    H            0.459961167365    -2.075903272475    -2.235812145728
    C            1.360747318955    -1.449240501133    -0.399615587883
    H            2.028576482451    -0.602601750924     1.439850238362
    H           -0.773451283830     1.214588500845     2.457116473416
    H            0.974493813966     1.163660219796     2.624928819740
    H            0.213532664632     2.356580410526     1.582507190841
    H            2.164270362518    -2.161947181014    -0.448235180303

  Mulliken Charges: (a.u.)
   Center  Symbol    Alpha    Beta     Spin     Total
       1     H     0.27217  0.27217  0.00000  0.45567
       2     O     4.38621  4.38621  0.00000 -0.77242
       3     C     2.82700  2.82700  0.00000  0.34601
       4     C     3.12147  3.12147  0.00000 -0.24294
       5     C     3.00262  3.00262  0.00000 -0.00523
       6     H     0.39896  0.39896  0.00000  0.20208
       7     C     3.10024  3.10024  0.00000 -0.20049
       8     C     3.11163  3.11163  0.00000 -0.22326
       9     C     3.24039  3.24039  0.00000 -0.48078
      10     H     0.39917  0.39917  0.00000  0.20167
      11     C     3.10235  3.10235  0.00000 -0.20471
      12     H     0.40091  0.40091  0.00000  0.19817
      13     H     0.41296  0.41296  0.00000  0.17409
      14     H     0.41776  0.41776  0.00000  0.16448
      15     H     0.40574  0.40574  0.00000  0.18851
      16     H     0.40042  0.40042  0.00000  0.19915

   Total alpha = 29.00000, Total beta = 29.00000, Total charge = -0.00000
