  ==> Input File <==

--------------------------------------------------------------------------
set {
	reference rhf
	basis 6-31G*
}

set_num_threads( 1 )
memory 2 gb

molecule MOL {
0 1

O	 -2.821601	 1.309235	 -0.001213
C	 -2.668563	 0.129746	 -0.000350
C	 -3.801572	 -0.864014	 -0.000442
O	 -1.481751	 -0.454642	 0.000584
H	 -4.417280	 -0.689587	 -0.874708
H	 -3.443784	 -1.883046	 -0.000565
H	 -4.417179	 -0.689832	 0.873954
C	 -0.334255	 0.388708	 0.000906
C	 0.891947	 -0.504646	 0.000751
H	 -0.365390	 1.025305	 -0.873475
H	 -0.365484	 1.024911	 0.875569
C	 2.191998	 0.301789	 0.000897
H	 0.855148	 -1.151283	 -0.871571
H	 0.855132	 -1.151660	 0.872805
C	 3.441114	 -0.581407	 0.000108
H	 2.215074	 0.954890	 -0.869742
H	 2.215465	 0.953923	 0.872248
C	 3.268964	 -1.856533	 0.824296
H	 4.283699	 -0.012302	 0.386430
H	 3.694294	 -0.844645	 -1.024429
H	 3.048027	 -1.625691	 1.862522
H	 4.170265	 -2.461104	 0.804662
H	 2.454443	 -2.464440	 0.440872

	symmetry c1
}
set optking {
	frozen_dihedral = ("
		13 9 8 10,
		2 4 8 10,
		16 12 9 13,
		1 2 4 8
	")
}

ee = energy('scf')
oeprop('DIPOLE', 'QUADRUPOLE', 'MULLIKEN_CHARGES')
f=open( 'psi4out.xyz', 'w' )
f.write( "23  " )
f.write( str(ee) + "\n" )
f.write( MOL.save_string_xyz() )
f.close()
--------------------------------------------------------------------------

    Molecular point group: c1

    Geometry (in Angstrom), charge = 0, multiplicity = 1:

       Center              X                  Y                   Z               Mass
    ------------   -----------------  -----------------  -----------------  -----------------
           O         -2.651812727294     1.549453225747    -0.096508356778    15.994914619560
           C         -2.498774727294     0.369964225747    -0.095645356778    12.000000000000
           C         -3.631783727294    -0.623795774253    -0.095737356778    12.000000000000
           O         -1.311962727294    -0.214423774253    -0.094711356778    15.994914619560
           H         -4.247491727294    -0.449368774253    -0.970003356778     1.007825032070
           H         -3.273995727294    -1.642827774253    -0.095860356778     1.007825032070
           H         -4.247390727294    -0.449613774253     0.778658643222     1.007825032070
           C         -0.164466727294     0.628926225747    -0.094389356778    12.000000000000
           C          1.061735272706    -0.264427774253    -0.094544356778    12.000000000000
           H         -0.195601727294     1.265523225747    -0.968770356778     1.007825032070
           H         -0.195695727294     1.265129225747     0.780273643222     1.007825032070
           C          2.361786272706     0.542007225747    -0.094398356778    12.000000000000
           H          1.024936272706    -0.911064774253    -0.966866356778     1.007825032070
           H          1.024920272706    -0.911441774253     0.777509643222     1.007825032070
           C          3.610902272706    -0.341188774253    -0.095187356778    12.000000000000
           H          2.384862272706     1.195108225747    -0.965037356778     1.007825032070
           H          2.385253272706     1.194141225747     0.776952643222     1.007825032070
           C          3.438752272706    -1.616314774253     0.729000643222    12.000000000000
           H          4.453487272706     0.227916225747     0.291134643222     1.007825032070
           H          3.864082272706    -0.604426774253    -1.119724356778     1.007825032070
           H          3.217815272706    -1.385472774253     1.767226643222     1.007825032070
           H          4.340053272706    -2.220885774253     0.709366643222     1.007825032070
           H          2.624231272706    -2.224221774253     0.345576643222     1.007825032070

  Charge       = 0
  Multiplicity = 1
  Basis Set: 6-31G*
  Basis Set:

    Orbital Energies (a.u.)
    -----------------------

    Doubly Occupied:

       1A    -20.602713     2A    -20.540316     3A    -11.373893
       4A    -11.280841     5A    -11.232299     6A    -11.223642
       7A    -11.222886     8A    -11.221197     9A    -11.212230
      10A     -1.467702    11A     -1.360498    12A     -1.096780
      13A     -1.040695    14A     -1.000061    15A     -0.930306
      16A     -0.859811    17A     -0.788590    18A     -0.769248
      19A     -0.691443    20A     -0.684761    21A     -0.670720
      22A     -0.641887    23A     -0.614712    24A     -0.601423
      25A     -0.573952    26A     -0.568135    27A     -0.551078
      28A     -0.537378    29A     -0.526899    30A     -0.504895
      31A     -0.497324    32A     -0.470968    33A     -0.468793
      34A     -0.462034    35A     -0.450940    36A     -0.435156

  @DF-RHF Final Energy:  -422.97284078176472

   => Energetics <=

    Nuclear Repulsion Energy =            457.3674195101851865
    One-Electron Energy =               -1482.3281077858637218
    Two-Electron Energy =                 601.9878474939127955
    DFT Exchange-Correlation Energy =       0.0000000000000000
    Empirical Dispersion Energy =           0.0000000000000000
    PCM Polarization Energy =               0.0000000000000000
    EFP Energy =                            0.0000000000000000
    Total Energy =                       -422.9728407817656262

  Mulliken Charges: (a.u.)
   Center  Symbol    Alpha    Beta     Spin     Total
       1     O     4.28396  4.28396  0.00000 -0.56791
       2     C     2.61524  2.61524  0.00000  0.76953
       3     C     3.28771  3.28771  0.00000 -0.57541
       4     O     4.31285  4.31285  0.00000 -0.62571
       5     H     0.39752  0.39752  0.00000  0.20496
       6     H     0.39996  0.39996  0.00000  0.20008
       7     H     0.39753  0.39753  0.00000  0.20494
       8     C     2.99404  2.99404  0.00000  0.01191
       9     C     3.17231  3.17231  0.00000 -0.34462
      10     H     0.41099  0.41099  0.00000  0.17802
      11     H     0.41088  0.41088  0.00000  0.17825
      12     C     3.16148  3.16148  0.00000 -0.32296
      13     H     0.41445  0.41445  0.00000  0.17110
      14     H     0.40956  0.40956  0.00000  0.18087
      15     C     3.15155  3.15155  0.00000 -0.30309
      16     H     0.41828  0.41828  0.00000  0.16344
      17     H     0.42029  0.42029  0.00000  0.15942
      18     C     3.24770  3.24770  0.00000 -0.49540
      19     H     0.41835  0.41835  0.00000  0.16331
      20     H     0.42062  0.42062  0.00000  0.15876
      21     H     0.42112  0.42112  0.00000  0.15775
      22     H     0.41715  0.41715  0.00000  0.16570
      23     H     0.41648  0.41648  0.00000  0.16705

   Total alpha = 36.00000, Total beta = 36.00000, Total charge = -0.00000
