  ==> Input File <==

--------------------------------------------------------------------------
set {
	reference rhf
	basis 6-31G*
}

set_num_threads( 4 )
memory 2 gb

molecule MOL {
0 1

H	 -3.407059	 -1.043082	 0.000000
O	 -3.119761	 -0.140267	 0.000000
C	 -1.777559	 -0.059267	 0.000000
C	 -1.072922	 0.573234	 1.020015
C	 -1.103122	 -0.636630	 -1.068575
H	 -1.603344	 1.018181	 1.844627
C	 0.304129	 0.625828	 0.967267
H	 -1.668916	 -1.118708	 -1.843010
C	 0.274285	 -0.575816	 -1.107148
H	 0.860531	 1.110600	 1.747339
C	 0.994191	 0.052517	 -0.095932
H	 0.797416	 -1.023080	 -1.935007
C	 2.468208	 0.109699	 -0.150864
O	 3.158945	 0.626967	 0.671373
H	 2.916643	 -0.370084	 -1.027152

	symmetry c1
}
set optking {
	frozen_dihedral = ("
		5 3 2 1
	")
}

ee = optimize('scf')
oeprop('DIPOLE', 'QUADRUPOLE', 'MULLIKEN_CHARGES')
f=open( 'psi4out.xyz', 'w' )
f.write( "15  " )
f.write( str(ee) + "\n" )
f.write( MOL.save_string_xyz() )
f.close()
--------------------------------------------------------------------------

    Molecular point group: c1
  Charge       = 0
  Multiplicity = 1
  Basis Set: 6-31G*
  Basis Set:
  @DF-RHF Final Energy:  -418.28391295669621
    Total Energy =                       -418.2839129566966676
    Molecular point group: c1
  Basis Set: 6-31G*
  Basis Set:
  Basis Set: 6-31G*
  Basis Set:
  @DF-RHF Final Energy:  -418.28538709027129
    Total Energy =                       -418.2853870902716835
  Basis Set: 6-31G*
  Basis Set:
  Basis Set: 6-31G*
  Basis Set:
  @DF-RHF Final Energy:  -418.28537822783170
    Total Energy =                       -418.2853782278318704
  Basis Set: 6-31G*
  Basis Set:
  Basis Set: 6-31G*
  Basis Set:
  @DF-RHF Final Energy:  -418.28499200325581
    Total Energy =                       -418.2849920032559794
  Basis Set: 6-31G*
  Basis Set:
  Basis Set: 6-31G*
  Basis Set:
  @DF-RHF Final Energy:  -418.28549910303690
    Total Energy =                       -418.2854991030371821
  Basis Set: 6-31G*
  Basis Set:
  Charge       = 0
  Multiplicity = 1
  Basis Set: 6-31G*
  Basis Set:

    Orbital Energies (a.u.)
    -----------------------

    Doubly Occupied:

       1A    -20.597743     2A    -20.559593     3A    -11.330559
       4A    -11.315680     5A    -11.261276     6A    -11.253208
       7A    -11.244555     8A    -11.243427     9A    -11.239942
      10A     -1.415883    11A     -1.400663    12A     -1.170635
      13A     -1.041766    14A     -1.036705    15A     -0.889554
      16A     -0.856330    17A     -0.799350    18A     -0.752351
      19A     -0.700407    20A     -0.678513    21A     -0.643252
      22A     -0.629044    23A     -0.618064    24A     -0.607045
      25A     -0.561136    26A     -0.552692    27A     -0.540941
      28A     -0.499880    29A     -0.483205    30A     -0.421119
      31A     -0.355359    32A     -0.337059

  @DF-RHF Final Energy:  -418.28550098028285

   => Energetics <=

    Nuclear Repulsion Energy =            400.9021050496938301
    One-Electron Energy =               -1364.3013406110342203
    Two-Electron Energy =                 545.1137345810574288
    DFT Exchange-Correlation Energy =       0.0000000000000000
    Empirical Dispersion Energy =           0.0000000000000000
    PCM Polarization Energy =               0.0000000000000000
    EFP Energy =                            0.0000000000000000
    Total Energy =                       -418.2855009802830182
    Molecular point group: c1
  Basis Set: 6-31G*
  Basis Set:

  -Total Gradient:
     Atom            X                  Y                   Z
    ------   -----------------  -----------------  -----------------
       1        0.000096376906    -0.000095346355     0.002849155403
       2       -0.000184709375     0.001075424107    -0.004074501303
       3        0.000176886195    -0.002688639319     0.002443587663
       4       -0.000255958564    -0.000088458890    -0.000100374681
       5        0.000150972298     0.001829616168    -0.001108358654
       6        0.000004703728     0.000005329465    -0.000000895046
       7        0.000244798738    -0.000094107741    -0.000125616282
       8        0.000000322676     0.000006241399     0.000003642162
       9       -0.000200400239    -0.000125630500    -0.000075414707
      10       -0.000020947004     0.000009338016     0.000004499944
      11       -0.000015010537     0.000148368093     0.000226981803
      12        0.000017510369     0.000017685321    -0.000000871669
      13        0.000022621363     0.000032540351    -0.000070800344
      14       -0.000025203555    -0.000014327125     0.000022278832
      15       -0.000011963009    -0.000018032990     0.000006686879

  **** Optimization is complete! (in 6 steps) ****
    Final optimized geometry and variables:
    Molecular point group: c1

    Geometry (in Angstrom), charge = 0, multiplicity = 1:

    H           -3.458746043028    -1.049036822636    -0.006071285463
    O           -3.126664748277    -0.161282111490     0.008566761312
    C           -1.767112974546    -0.153320645788    -0.040339282297
    C           -1.074162817465     0.492868494395     0.975958801843
    C           -1.089071463275    -0.712496490826    -1.112457718674
    H           -1.628244167955     0.928994464538     1.785758146319
    C            0.301852773407     0.562968817600     0.924444941922
    H           -1.641915645051    -1.183266213765    -1.905239855462
    C            0.292220549412    -0.646484207047    -1.149546803726
    H            0.854316418168     1.056186391922     1.701943042796
    C            0.997749866818    -0.011016566854    -0.137104686946
    H            0.821547732401    -1.083491905555    -1.978836809615
    C            2.474301681866     0.058007864082    -0.191833468436
    O            3.158738690303     0.578559343032     0.632446048101
    H            2.927324154643    -0.416356690113    -1.068449985211

  Mulliken Charges: (a.u.)
   Center  Symbol    Alpha    Beta     Spin     Total
       1     H     0.26908  0.26908  0.00000  0.46184
       2     O     4.38156  4.38156  0.00000 -0.76312
       3     C     2.80365  2.80365  0.00000  0.39270
       4     C     3.12128  3.12128  0.00000 -0.24256
       5     C     3.13097  3.13097  0.00000 -0.26194
       6     H     0.38634  0.38634  0.00000  0.22732
       7     C     3.08347  3.08347  0.00000 -0.16695
       8     H     0.39302  0.39302  0.00000  0.21396
       9     C     3.09694  3.09694  0.00000 -0.19387
      10     H     0.37486  0.37486  0.00000  0.25028
      11     C     3.06218  3.06218  0.00000 -0.12436
      12     H     0.39007  0.39007  0.00000  0.21986
      13     C     2.83087  2.83087  0.00000  0.33826
      14     O     4.25158  4.25158  0.00000 -0.50316
      15     H     0.42413  0.42413  0.00000  0.15174

   Total alpha = 32.00000, Total beta = 32.00000, Total charge = -0.00000
