                              Psi4 1.0.54 Driver

  ==> Input File <==

--------------------------------------------------------------------------
set {
	reference rhf
	basis cc-pvtz
}

set_num_threads( 4 )
memory 2 gb

molecule MOL {
0 1

H	 -3.426682	 2.810491	 0.545167
C	 -3.656754	 1.737796	 0.487921
C	 -2.653809	 0.914422	 -0.273689
O	 -4.637453	 1.315380	 0.994973
C	 -1.216901	 1.136108	 0.207794
H	 -2.940999	 -0.126900	 -0.206569
H	 -2.731996	 1.216261	 -1.315842
C	 -0.247837	 0.040196	 -0.230469
H	 -0.872882	 2.093195	 -0.169002
H	 -1.209325	 1.218376	 1.291938
C	 1.181757	 0.280428	 0.247371
H	 -0.259600	 -0.030819	 -1.314870
H	 -0.591284	 -0.923375	 0.136958
C	 2.151032	 -0.811012	 -0.202643
H	 1.515939	 1.247397	 -0.115449
H	 1.191514	 0.341223	 1.333422
C	 3.580021	 -0.656538	 0.320835
H	 2.170545	 -0.847575	 -1.289412
H	 1.766632	 -1.772905	 0.124928
C	 4.327657	 0.562694	 -0.213579
H	 4.138806	 -1.549270	 0.057813
H	 3.561991	 -0.620783	 1.406976
H	 4.355973	 0.557257	 -1.298551
H	 3.867136	 1.491650	 0.100501
H	 5.351524	 0.571613	 0.142204

	symmetry c1
}
set optking {
	frozen_dihedral = ("
		6 3 5 8
	")
}

ee,wfn = optimize('scf', return_wfn=True)
oeprop( wfn, 'DIPOLE', 'QUADRUPOLE', 'MULLIKEN_CHARGES')
f=open( 'psi4out.xyz', 'w' )
f.write( "25  " )
f.write( str(ee) + "\n" )
f.write( MOL.save_string_xyz() )
f.close()
--------------------------------------------------------------------------

    Molecular point group: c1
  Charge       = 0
  Multiplicity = 1
  Basis Set: CC-PVTZ
  Basis Set:
  @DF-RHF Final Energy:  -387.25946832888468
    Total Energy =                       -387.2594683288850774
    Molecular point group: c1
  Basis Set: CC-PVTZ
  Basis Set:
  Basis Set: CC-PVTZ
  Basis Set:
  @DF-RHF Final Energy:  -387.25933955198076
    Total Energy =                       -387.2593395519809292
  Basis Set: CC-PVTZ
  Basis Set:
  Basis Set: CC-PVTZ
  Basis Set:
  @DF-RHF Final Energy:  -387.25777589884365
    Total Energy =                       -387.2577758988438745
  Basis Set: CC-PVTZ
  Basis Set:
  Basis Set: CC-PVTZ
  Basis Set:
  @DF-RHF Final Energy:  -387.25969322120108
    Total Energy =                       -387.2596932212011325
  Basis Set: CC-PVTZ
  Basis Set:
  Basis Set: CC-PVTZ
  Basis Set:
  @DF-RHF Final Energy:  -387.25971558349607
    Total Energy =                       -387.2597155834961313
  Basis Set: CC-PVTZ
  Basis Set:
  Basis Set: CC-PVTZ
  Basis Set:
  @DF-RHF Final Energy:  -387.25972874527582
    Total Energy =                       -387.2597287452758792
  Basis Set: CC-PVTZ
  Basis Set:
  Basis Set: CC-PVTZ
  Basis Set:
  @DF-RHF Final Energy:  -387.25973055046421
    Total Energy =                       -387.2597305504644964
  Basis Set: CC-PVTZ
  Basis Set:
  Charge       = 0
  Multiplicity = 1
  Basis Set: CC-PVTZ
  Basis Set:

    Orbital Energies (a.u.)
    -----------------------

    Doubly Occupied:

       1A    -20.551177     2A    -11.320931     3A    -11.233706
       4A    -11.233068     5A    -11.224128     6A    -11.218779
       7A    -11.217526     8A    -11.216664     9A    -11.209937
      10A     -1.406064    11A     -1.105979    12A     -1.071728
      13A     -1.016293    14A     -0.945894    15A     -0.875941
      16A     -0.813416    17A     -0.796095    18A     -0.781716
      19A     -0.679803    20A     -0.657580    21A     -0.637603
      22A     -0.623401    23A     -0.616871    24A     -0.590225
      25A     -0.566453    26A     -0.561283    27A     -0.530410
      28A     -0.524431    29A     -0.517404    30A     -0.495052
      31A     -0.489248    32A     -0.480207    33A     -0.466614
      34A     -0.460608    35A     -0.451823    36A     -0.409810

  @DF-RHF Final Energy:  -387.25973059668593

   => Energetics <=

    Nuclear Repulsion Energy =            432.5012468528897216
    One-Electron Energy =               -1381.5262112893792619
    Two-Electron Energy =                 561.7652338398036136
    DFT Exchange-Correlation Energy =       0.0000000000000000
    Empirical Dispersion Energy =           0.0000000000000000
    PCM Polarization Energy =               0.0000000000000000
    EFP Energy =                            0.0000000000000000
    Total Energy =                       -387.2597305966859267
    Molecular point group: c1
  Basis Set: CC-PVTZ
  Basis Set:

  -Total Gradient:
     Atom            X                  Y                   Z
    ------   -----------------  -----------------  -----------------
       1       -0.000031319405    -0.000054574213     0.000057723496
       2       -0.000162023891     0.000028674398    -0.000036034320
       3       -0.001517763234     0.000071454846     0.004651278947
       4        0.000132442320     0.000082089263    -0.000033573506
       5        0.000904169677     0.001688459382    -0.003556227140
       6        0.001113602329    -0.000421428354    -0.003080032576
       7        0.000042975852    -0.000048181496     0.000112274406
       8       -0.000408199369    -0.001212479832     0.001963064108
       9       -0.000043401171    -0.000079532764     0.000070679109
      10       -0.000040386165    -0.000027185950    -0.000153451487
      11       -0.000015397734    -0.000030731367     0.000002136092
      12       -0.000010341249     0.000014429621     0.000016171407
      13        0.000031243410     0.000002190354    -0.000018496377
      14        0.000008825475     0.000019381518     0.000002742996
      15       -0.000046674627    -0.000044847681    -0.000006508849
      16        0.000010860013     0.000014975601    -0.000002141315
      17       -0.000024466979     0.000017558411     0.000033629037
      18       -0.000002561725     0.000019365019    -0.000006276755
      19        0.000004048276    -0.000013665543    -0.000011829493
      20        0.000020819657    -0.000008728083    -0.000020954106
      21        0.000015135070    -0.000025263682     0.000005088090
      22       -0.000005955812     0.000009344986     0.000018850792
      23       -0.000000192178     0.000007848321    -0.000009139307
      24        0.000018871494     0.000000678594     0.000009321960
      25        0.000005689961    -0.000009831349    -0.000008295207

  **** Optimization is complete! (in 8 steps) ****
    Final optimized geometry and variables:
    Molecular point group: c1

    Geometry (in Angstrom), charge = 0, multiplicity = 1:

    H           -3.305517657174     2.295445823687     0.425518485413
    C           -3.526874246361     1.221168512678     0.375717615540
    C           -2.524410406355     0.397537876686    -0.381281146565
    O           -4.497008993576     0.792992639578     0.898493813590
    C           -1.085742663502     0.640923828703     0.091251650860
    H           -2.794668872558    -0.647785995851    -0.313194592307
    H           -2.607200220176     0.676222959452    -1.430112864802
    C           -0.124665496214    -0.452265111326    -0.367453685235
    H           -0.742834512099     1.609658414883    -0.258234651663
    H           -1.066757143625     0.683071391582     1.177163065738
    C            1.316361661607    -0.210536334071     0.073269561578
    H           -0.160972457666    -0.533682521478    -1.451368499773
    H           -0.466499672677    -1.407189064584     0.021203271848
    C            2.268705472807    -1.317425560914    -0.375269058256
    H            1.648388090196     0.746378478043    -0.316769361378
    H            1.349994447551    -0.127836091316     1.157238203398
    C            3.708997561730    -1.163929633871     0.116584835711
    H            2.266401834771    -1.374776150738    -1.461437231657
    H            1.884242647663    -2.270052418985    -0.021442743008
    C            4.455806045395     0.036932596872    -0.459037639012
    H            4.255197216869    -2.066977283613    -0.137748943606
    H            3.712520628337    -1.104442890483     1.201769463449
    H            4.460541643945     0.008980316735    -1.544054744304
    H            4.010811987348     0.976498926024    -0.154283230991
    H            5.487182462552     0.043271926480    -0.125677022081

  Mulliken Charges: (a.u.)
   Center  Symbol    Alpha    Beta     Spin     Total
       1     H     0.46476  0.46476  0.00000  0.07048
       2     C     2.91153  2.91153  0.00000  0.17693
       3     C     3.07749  3.07749  0.00000 -0.15499
       4     O     4.16424  4.16424  0.00000 -0.32849
       5     C     3.10524  3.10524  0.00000 -0.21049
       6     H     0.44292  0.44292  0.00000  0.11415
       7     H     0.44844  0.44844  0.00000  0.10311
       8     C     3.08853  3.08853  0.00000 -0.17706
       9     H     0.44998  0.44998  0.00000  0.10005
      10     H     0.44872  0.44872  0.00000  0.10255
      11     C     3.09268  3.09268  0.00000 -0.18536
      12     H     0.45269  0.45269  0.00000  0.09461
      13     H     0.44944  0.44944  0.00000  0.10113
      14     C     3.09605  3.09605  0.00000 -0.19211
      15     H     0.45211  0.45211  0.00000  0.09579
      16     H     0.45314  0.45314  0.00000  0.09372
      17     C     3.09062  3.09062  0.00000 -0.18125
      18     H     0.45356  0.45356  0.00000  0.09287
      19     H     0.44871  0.44871  0.00000  0.10259
      20     C     3.15259  3.15259  0.00000 -0.30517
      21     H     0.44778  0.44778  0.00000  0.10444
      22     H     0.45417  0.45417  0.00000  0.09166
      23     H     0.45478  0.45478  0.00000  0.09044
      24     H     0.45412  0.45412  0.00000  0.09175
      25     H     0.44568  0.44568  0.00000  0.10863

   Total alpha = 36.00000, Total beta = 36.00000, Total charge = -0.00000

*** Psi4 exiting successfully. Buy a developer a beer!
