                              Psi4 1.0.54 Driver

  ==> Input File <==

--------------------------------------------------------------------------
set {
	reference rhf
	basis cc-pvtz
}

set_num_threads( 4 )
memory 2 gb

molecule MOL {
0 1

H	 -4.230259	 0.539112	 0.036360
O	 -3.515113	 -0.019339	 -0.206321
C	 -2.302264	 0.528872	 0.237390
C	 -1.175688	 -0.398187	 -0.171891
H	 -2.148018	 1.514076	 -0.197759
H	 -2.310727	 0.646384	 1.319032
C	 0.196029	 0.106276	 0.266738
H	 -1.201873	 -0.515469	 -1.250677
H	 -1.365975	 -1.378728	 0.252664
C	 1.330220	 -0.826136	 -0.155230
H	 0.359542	 1.097229	 -0.145561
H	 0.212134	 0.218135	 1.348778
C	 2.719700	 -0.407669	 0.328325
H	 1.339388	 -0.911200	 -1.239363
H	 1.119001	 -1.821953	 0.224128
C	 3.680996	 0.015710	 -0.779835
H	 3.158749	 -1.240170	 0.869515
H	 2.620371	 0.401162	 1.047602
H	 3.794698	 -0.771543	 -1.518324
H	 3.340115	 0.905534	 -1.295298
H	 4.663151	 0.231384	 -0.374831

	symmetry c1
}
set optking {
	frozen_dihedral = ("
		16 13 10 14
	")
}

ee,wfn = optimize('scf', return_wfn=True)
oeprop( wfn, 'DIPOLE', 'QUADRUPOLE', 'MULLIKEN_CHARGES')
f=open( 'psi4out.xyz', 'w' )
f.write( "21  " )
f.write( str(ee) + "\n" )
f.write( MOL.save_string_xyz() )
f.close()
--------------------------------------------------------------------------

    Molecular point group: c1
  Charge       = 0
  Multiplicity = 1
  Basis Set: CC-PVTZ
  Basis Set:
  @DF-RHF Final Energy:  -310.32877389689281
    Total Energy =                       -310.3287738968924714
    Molecular point group: c1
  Basis Set: CC-PVTZ
  Basis Set:
  Basis Set: CC-PVTZ
  Basis Set:
  @DF-RHF Final Energy:  -310.32913774904415
    Total Energy =                       -310.3291377490439800
  Basis Set: CC-PVTZ
  Basis Set:
  Basis Set: CC-PVTZ
  Basis Set:
  @DF-RHF Final Energy:  -310.32938391763918
    Total Energy =                       -310.3293839176394044
  Basis Set: CC-PVTZ
  Basis Set:
  Basis Set: CC-PVTZ
  Basis Set:
  @DF-RHF Final Energy:  -310.32938807508430
    Total Energy =                       -310.3293880750844664
  Basis Set: CC-PVTZ
  Basis Set:
  Basis Set: CC-PVTZ
  Basis Set:
  @DF-RHF Final Energy:  -310.32939400156420
    Total Energy =                       -310.3293940015641965
  Basis Set: CC-PVTZ
  Basis Set:
  Charge       = 0
  Multiplicity = 1
  Basis Set: CC-PVTZ
  Basis Set:

    Orbital Energies (a.u.)
    -----------------------

    Doubly Occupied:

       1A    -20.545427     2A    -11.265089     3A    -11.214034
       4A    -11.212461     5A    -11.210799     6A    -11.208814
       7A    -11.206619     8A     -1.363280     9A     -1.086179
      10A     -1.034451    11A     -0.957164    12A     -0.869424
      13A     -0.804502    14A     -0.788864    15A     -0.696279
      16A     -0.662902    17A     -0.623174    18A     -0.606026
      19A     -0.587769    20A     -0.566479    21A     -0.541854
      22A     -0.523099    23A     -0.508058    24A     -0.487379
      25A     -0.479004    26A     -0.463049    27A     -0.454495
      28A     -0.442799    29A     -0.437427

  @DF-RHF Final Energy:  -310.32939410340458

   => Energetics <=

    Nuclear Repulsion Energy =            310.6683025680979995
    One-Electron Energy =               -1036.3015935634036850
    Two-Electron Energy =                 415.3038968919012746
    DFT Exchange-Correlation Energy =       0.0000000000000000
    Empirical Dispersion Energy =           0.0000000000000000
    PCM Polarization Energy =               0.0000000000000000
    EFP Energy =                            0.0000000000000000
    Total Energy =                       -310.3293941034044678
    Molecular point group: c1
  Basis Set: CC-PVTZ
  Basis Set:

  -Total Gradient:
     Atom            X                  Y                   Z
    ------   -----------------  -----------------  -----------------
       1        0.000001803911    -0.000001211937    -0.000001231938
       2       -0.000012195164    -0.000007227934    -0.000005313737
       3        0.000005409990    -0.000001665954     0.000006824082
       4       -0.000015528293     0.000006649745     0.000013735838
       5        0.000004239740     0.000006692058    -0.000005170467
       6        0.000001567591    -0.000000252038     0.000010696891
       7       -0.000028664670     0.000007258334    -0.000012291433
       8       -0.000000608061     0.000003616784    -0.000005087721
       9       -0.000002832581    -0.000013820226     0.000001053843
      10        0.000784097714    -0.002384896404     0.000097497109
      11        0.000002113317     0.000003904738    -0.000016542699
      12        0.000015562998     0.000007443907     0.000005498064
      13       -0.000702011063     0.001907298902     0.000133900282
      14       -0.000495664392     0.001585851835    -0.000120972149
      15        0.000006713250     0.000002953698    -0.000001193722
      16        0.000426811774    -0.001105207888    -0.000102019190
      17        0.000000649004    -0.000020703779     0.000014987127
      18        0.000001404903    -0.000007424708    -0.000005921381
      19       -0.000000019760    -0.000023838235     0.000013216103
      20       -0.000020988671     0.000018095587    -0.000026447453
      21        0.000028138460     0.000016483514     0.000004782551

  **** Optimization is complete! (in 6 steps) ****
    Final optimized geometry and variables:
    Molecular point group: c1

    Geometry (in Angstrom), charge = 0, multiplicity = 1:

    H           -4.269977157468     0.734492587697     0.059000958314
    O           -3.561712897155     0.169554866110    -0.188633287684
    C           -2.348549962373     0.669991680169     0.307522676885
    C           -1.233060962407    -0.266116630489    -0.111538666758
    H           -2.160506258703     1.668137870057    -0.082562313158
    H           -2.382348401701     0.743496446019     1.392518196445
    C            0.137770032281     0.188342479805     0.378255090334
    H           -1.236023280196    -0.341430939559    -1.194321140291
    H           -1.454851025887    -1.257798787989     0.270108172469
    C            1.266760317963    -0.755946652462    -0.032834808565
    H            0.349534987698     1.184077595582    -0.005533210413
    H            0.125876901965     0.276743828887     1.462013477987
    C            2.660711307089    -0.280171778519     0.423496668170
    H            1.253138286376    -0.852078430593    -1.114413562235
    H            1.059529680781    -1.743812972393     0.364578937245
    C            3.560908696418     0.159803759808    -0.727897567234
    H            3.159491522393    -1.074827621008     0.967946025892
    H            2.553838111203     0.539689807011     1.126607442434
    H            3.743623862291    -0.661327918762    -1.412647073891
    H            3.106954757354     0.966063246135    -1.295501489167
    H            4.521048277901     0.510312516407    -0.366006054182

  Mulliken Charges: (a.u.)
   Center  Symbol    Alpha    Beta     Spin     Total
       1     H     0.39760  0.39760  0.00000  0.20479
       2     O     4.19432  4.19432  0.00000 -0.38865
       3     C     2.96311  2.96311  0.00000  0.07377
       4     C     3.08578  3.08578  0.00000 -0.17155
       5     H     0.47498  0.47498  0.00000  0.05004
       6     H     0.47489  0.47489  0.00000  0.05023
       7     C     3.10081  3.10081  0.00000 -0.20162
       8     H     0.45068  0.45068  0.00000  0.09863
       9     H     0.45108  0.45108  0.00000  0.09784
      10     C     3.09451  3.09451  0.00000 -0.18902
      11     H     0.45495  0.45495  0.00000  0.09009
      12     H     0.45462  0.45462  0.00000  0.09077
      13     C     3.09007  3.09007  0.00000 -0.18014
      14     H     0.45417  0.45417  0.00000  0.09167
      15     H     0.44765  0.44765  0.00000  0.10471
      16     C     3.14699  3.14699  0.00000 -0.29398
      17     H     0.44928  0.44928  0.00000  0.10144
      18     H     0.45476  0.45476  0.00000  0.09048
      19     H     0.45430  0.45430  0.00000  0.09140
      20     H     0.45569  0.45569  0.00000  0.08862
      21     H     0.44977  0.44977  0.00000  0.10047

   Total alpha = 29.00000, Total beta = 29.00000, Total charge = -0.00000

*** Psi4 exiting successfully. Buy a developer a beer!
