  ==> Input File <==

--------------------------------------------------------------------------
set {
	reference rhf
	basis cc-pvtz
}

set_num_threads( 4 )
memory 2 gb

molecule MOL {
0 1

O	 -0.294688	 1.318815	 -0.000872
C	 -0.448732	 0.145721	 -0.000187
C	 -1.780748	 -0.548101	 0.000195
O	 0.550743	 -0.719877	 0.000412
H	 -1.859389	 -1.183260	 -0.872613
H	 -2.570236	 0.185547	 -0.001342
H	 -1.860233	 -1.180337	 0.875064
C	 0.759183	 -1.469624	 -1.180053
H	 -0.111269	 -2.065371	 -1.411197
H	 1.605256	 -2.107226	 -0.981795
H	 0.971042	 -0.816410	 -2.013389

	symmetry c1
}
set optking {
	frozen_dihedral = ("
		8 4 2 1
	")
}

ee = optimize('scf')
oeprop('DIPOLE', 'QUADRUPOLE', 'MULLIKEN_CHARGES')
f=open( 'psi4out.xyz', 'w' )
f.write( "11  " )
f.write( str(ee) + "\n" )
f.write( MOL.save_string_xyz() )
f.close()
--------------------------------------------------------------------------

    Molecular point group: c1
  Charge       = 0
  Multiplicity = 1
  Basis Set: CC-PVTZ
  Basis Set:
  @DF-RHF Final Energy:  -266.91618653696207
    Total Energy =                       -266.9161865369624707
    Molecular point group: c1
  Basis Set: CC-PVTZ
  Basis Set:
  Basis Set: CC-PVTZ
  Basis Set:
  @DF-RHF Final Energy:  -266.91557569681993
    Total Energy =                       -266.9155756968199853
  Basis Set: CC-PVTZ
  Basis Set:
  Basis Set: CC-PVTZ
  Basis Set:
  @DF-RHF Final Energy:  -266.91776975447635
    Total Energy =                       -266.9177697544764669
  Basis Set: CC-PVTZ
  Basis Set:
  Basis Set: CC-PVTZ
  Basis Set:
  @DF-RHF Final Energy:  -266.91888567744758
    Total Energy =                       -266.9188856774476335
  Basis Set: CC-PVTZ
  Basis Set:
  Basis Set: CC-PVTZ
  Basis Set:
  @DF-RHF Final Energy:  -266.91893205882121
    Total Energy =                       -266.9189320588212695
  Basis Set: CC-PVTZ
  Basis Set:
  Basis Set: CC-PVTZ
  Basis Set:
  @DF-RHF Final Energy:  -266.91893888445156
    Total Energy =                       -266.9189388844515065
  Basis Set: CC-PVTZ
  Basis Set:
  Basis Set: CC-PVTZ
  Basis Set:
  @DF-RHF Final Energy:  -266.91894051567533
    Total Energy =                       -266.9189405156753878
  Basis Set: CC-PVTZ
  Basis Set:
  Charge       = 0
  Multiplicity = 1
  Basis Set: CC-PVTZ
  Basis Set:

    Orbital Energies (a.u.)
    -----------------------

    Doubly Occupied:

       1A    -20.582260     2A    -20.545512     3A    -11.372165
       4A    -11.292820     5A    -11.239177     6A     -1.463907
       7A     -1.372625     8A     -1.025187     9A     -0.970901
      10A     -0.781322    11A     -0.697631    12A     -0.687014
      13A     -0.673542    14A     -0.617940    15A     -0.590180
      16A     -0.580638    17A     -0.544767    18A     -0.496872
      19A     -0.465168    20A     -0.443837

  @DF-RHF Final Energy:  -266.91894125874938

   => Energetics <=

    Nuclear Repulsion Energy =            182.7579661442286465
    One-Electron Energy =                -726.4668828899607433
    Two-Electron Energy =                 276.7899754869828257
    DFT Exchange-Correlation Energy =       0.0000000000000000
    Empirical Dispersion Energy =           0.0000000000000000
    PCM Polarization Energy =               0.0000000000000000
    EFP Energy =                            0.0000000000000000
    Total Energy =                       -266.9189412587492143
    Molecular point group: c1
  Basis Set: CC-PVTZ
  Basis Set:

  -Total Gradient:
     Atom            X                  Y                   Z
    ------   -----------------  -----------------  -----------------
       1        0.000047427518    -0.000091081147    -0.001096097903
       2        0.000050852669     0.000546610078     0.001437996864
       3        0.000025986118    -0.000013291973    -0.000085494205
       4       -0.000672582483    -0.001144932054    -0.000048028877
       5        0.000009524831    -0.000010200395     0.000043560853
       6       -0.000012020289    -0.000000726549     0.000009216988
       7        0.000007559202     0.000010845563     0.000026255557
       8        0.000524134761     0.000727404789    -0.000257233031
       9        0.000005076627     0.000000019550    -0.000007772819
      10        0.000013007911    -0.000010433985    -0.000008760079
      11        0.000001033134    -0.000014213877    -0.000013643346

  **** Optimization is complete! (in 8 steps) ****
    Final optimized geometry and variables:
    Molecular point group: c1

    Geometry (in Angstrom), charge = 0, multiplicity = 1:

    O           -0.049352765209     1.565568035753     0.259290088797
    C           -0.237696112088     0.405808246789     0.236933776732
    C           -1.604177955630    -0.225203171410     0.269442611777
    O            0.792620624037    -0.463412460954     0.239455592825
    H           -1.776557564273    -0.809501951679    -0.625580965518
    H           -2.355378138107     0.543935193889     0.344445258917
    H           -1.668311502819    -0.895913755559     1.117000303033
    C            1.051645596458    -1.200278661849    -0.932112739042
    H            0.253537614338    -1.898843657841    -1.152893115197
    H            1.959618997764    -1.752432678759    -0.752746568102
    H            1.200005325576    -0.538173229313    -1.776511021077

  Mulliken Charges: (a.u.)
   Center  Symbol    Alpha    Beta     Spin     Total
       1     O     4.16612  4.16612  0.00000 -0.33224
       2     C     2.80113  2.80113  0.00000  0.39774
       3     C     3.15028  3.15028  0.00000 -0.30056
       4     O     4.15745  4.15745  0.00000 -0.31489
       5     H     0.45162  0.45162  0.00000  0.09675
       6     H     0.43390  0.43390  0.00000  0.13220
       7     H     0.44234  0.44234  0.00000  0.11532
       8     C     3.03567  3.03567  0.00000 -0.07134
       9     H     0.46413  0.46413  0.00000  0.07174
      10     H     0.43945  0.43945  0.00000  0.12109
      11     H     0.45791  0.45791  0.00000  0.08419

   Total alpha = 20.00000, Total beta = 20.00000, Total charge = -0.00000
