  ==> Input File <==

--------------------------------------------------------------------------
set {
	reference rhf
	basis 6-31G*
}

set_num_threads( 4 )
memory 2 gb

molecule MOL {
0 1

H	 2.378938	 -1.156402	 -0.158600
O	 1.697427	 -0.578670	 -0.470782
C	 1.135793	 0.118896	 0.612333
C	 0.031547	 1.023609	 0.088541
H	 1.891709	 0.725823	 1.107428
H	 0.743969	 -0.575948	 1.351769
C	 -1.134819	 0.293262	 -0.585751
H	 0.474374	 1.714721	 -0.623187
H	 -0.338529	 1.620940	 0.920081
C	 -1.917817	 -0.639439	 0.339494
H	 -0.758119	 -0.268455	 -1.433105
H	 -1.813832	 1.041889	 -0.986690
H	 -2.777680	 -1.057197	 -0.174994
H	 -1.310268	 -1.471279	 0.680599
H	 -2.283753	 -0.111424	 1.216626

	symmetry c1
}
set optking {
	frozen_dihedral = ("
		2 3 4 8
	")
}

ee = optimize('scf')
oeprop('DIPOLE', 'QUADRUPOLE', 'MULLIKEN_CHARGES')
f=open( 'psi4out.xyz', 'w' )
f.write( "15  " )
f.write( str(ee) + "\n" )
f.write( MOL.save_string_xyz() )
f.close()
--------------------------------------------------------------------------

    Molecular point group: c1
  Charge       = 0
  Multiplicity = 1
  Basis Set: 6-31G*
  Basis Set:
  @DF-RHF Final Energy:  -232.14385717099822
    Total Energy =                       -232.1438571709978760
    Molecular point group: c1
  Basis Set: 6-31G*
  Basis Set:
  Basis Set: 6-31G*
  Basis Set:
  @DF-RHF Final Energy:  -232.14379520697031
    Total Energy =                       -232.1437952069703101
  Basis Set: 6-31G*
  Basis Set:
  Basis Set: 6-31G*
  Basis Set:
  @DF-RHF Final Energy:  -232.14387233492724
    Total Energy =                       -232.1438723349271527
  Basis Set: 6-31G*
  Basis Set:
  Basis Set: 6-31G*
  Basis Set:
  @DF-RHF Final Energy:  -232.14387357644324
    Total Energy =                       -232.1438735764435251
  Basis Set: 6-31G*
  Basis Set:
  Charge       = 0
  Multiplicity = 1
  Basis Set: 6-31G*
  Basis Set:

    Orbital Energies (a.u.)
    -----------------------

    Doubly Occupied:

       1A    -20.553302     2A    -11.267429     3A    -11.212343
       4A    -11.208705     5A    -11.205020     6A     -1.359877
       7A     -1.063753     8A     -0.970099     9A     -0.868296
      10A     -0.774429    11A     -0.704155    12A     -0.648299
      13A     -0.607171    14A     -0.572849    15A     -0.563528
      16A     -0.532433    17A     -0.509336    18A     -0.473387
      19A     -0.467203    20A     -0.452154    21A     -0.430469

  @DF-RHF Final Energy:  -232.14387391601400

   => Energetics <=

    Nuclear Repulsion Energy =            191.6299818415373579
    One-Electron Energy =                -694.6592441550834565
    Two-Electron Energy =                 270.8853883975319832
    DFT Exchange-Correlation Energy =       0.0000000000000000
    Empirical Dispersion Energy =           0.0000000000000000
    PCM Polarization Energy =               0.0000000000000000
    EFP Energy =                            0.0000000000000000
    Total Energy =                       -232.1438739160141154
    Molecular point group: c1
  Basis Set: 6-31G*
  Basis Set:

  -Total Gradient:
     Atom            X                  Y                   Z
    ------   -----------------  -----------------  -----------------
       1       -0.000000035832     0.000001452118    -0.000002287533
       2        0.000292548953     0.000324017817    -0.000053534577
       3       -0.000400871089    -0.000517358817    -0.000012745765
       4        0.000216362878     0.000566122823     0.000480381896
       5       -0.000008007304     0.000004235266     0.000014564874
       6        0.000002616576    -0.000011480387    -0.000004498649
       7       -0.000001975281    -0.000012438566     0.000011590591
       8       -0.000115852660    -0.000358965615    -0.000437482735
       9        0.000003643209    -0.000015776004    -0.000010321797
      10        0.000000243750     0.000000600605    -0.000002619429
      11        0.000002680237     0.000002575553     0.000012505036
      12        0.000003173292     0.000009332805     0.000004360050
      13        0.000000858839     0.000001492531    -0.000001744674
      14        0.000008236639     0.000003260578    -0.000001894880
      15       -0.000003622211     0.000002929293     0.000003727592

  **** Optimization is complete! (in 5 steps) ****
    Final optimized geometry and variables:
    Molecular point group: c1

    Geometry (in Angstrom), charge = 0, multiplicity = 1:

    H            2.373425261334    -1.160388724219    -0.176134815583
    O            1.692048511401    -0.577883459629    -0.479796109734
    C            1.132708323878     0.106653911982     0.612940215923
    C            0.019915590965     1.007569321209     0.101172398413
    H            1.888321895153     0.715474836229     1.106356748623
    H            0.751717035821    -0.596020779349     1.350524124862
    C           -1.140379896977     0.273833723415    -0.580575964750
    H            0.458101525230     1.705168045971    -0.606934752911
    H           -0.355046140282     1.594968348228     0.937378017207
    C           -1.939948391025    -0.645756046126     0.343855002721
    H           -0.754173276235    -0.297666308351    -1.417422436259
    H           -1.811745756792     1.020070510847    -0.998357424645
    H           -2.791433036002    -1.069633920899    -0.179538194963
    H           -1.340338303980    -1.473865609504     0.707532022167
    H           -2.320021245524    -0.105126307784     1.207088533380

  Mulliken Charges: (a.u.)
   Center  Symbol    Alpha    Beta     Spin     Total
       1     H     0.28062  0.28062  0.00000  0.43875
       2     O     4.36976  4.36976  0.00000 -0.73951
       3     C     2.99908  2.99908  0.00000  0.00184
       4     C     3.16089  3.16089  0.00000 -0.32178
       5     H     0.42931  0.42931  0.00000  0.14138
       6     H     0.43066  0.43066  0.00000  0.13868
       7     C     3.15435  3.15435  0.00000 -0.30870
       8     H     0.41382  0.41382  0.00000  0.17236
       9     H     0.42458  0.42458  0.00000  0.15085
      10     C     3.24292  3.24292  0.00000 -0.48584
      11     H     0.40746  0.40746  0.00000  0.18508
      12     H     0.42265  0.42265  0.00000  0.15469
      13     H     0.41894  0.41894  0.00000  0.16212
      14     H     0.42028  0.42028  0.00000  0.15943
      15     H     0.42468  0.42468  0.00000  0.15064

   Total alpha = 21.00000, Total beta = 21.00000, Total charge =  0.00000
