  ==> Input File <==

--------------------------------------------------------------------------
set {
	reference rhf
	basis 6-31G*
}

set_num_threads( 4 )
memory 2 gb

molecule MOL {
0 1

O	 0.351330	 0.155066	 2.571793
C	 1.046911	 -0.407667	 1.789131
C	 1.245376	 -0.013843	 0.345420
O	 1.758313	 -1.485816	 2.094308
C	 0.455112	 1.231400	 -0.050772
H	 2.311948	 0.116188	 0.194732
H	 0.961383	 -0.867800	 -0.264337
C	 -0.998893	 1.219485	 0.433193
H	 0.482531	 1.345121	 -1.130325
H	 0.957290	 2.103070	 0.354729
C	 -1.883438	 0.145884	 -0.207175
H	 -1.431207	 2.195402	 0.224832
H	 -1.019646	 1.105716	 1.516076
C	 -3.347647	 0.245583	 0.225435
H	 -1.822183	 0.231698	 -1.291012
H	 -1.510341	 -0.844814	 0.042401
C	 -4.239992	 -0.825570	 -0.404234
H	 -3.732888	 1.230466	 -0.033079
H	 -3.408585	 0.170602	 1.310038
C	 -5.701275	 -0.716658	 0.029921
H	 -4.179496	 -0.752714	 -1.488058
H	 -3.859041	 -1.810759	 -0.143352
H	 -6.308102	 -1.488908	 -0.432678
H	 -6.122175	 0.245478	 -0.248167
H	 -5.799072	 -0.820114	 1.106957
C	 1.661341	 -1.964601	 3.423310
H	 1.995732	 -1.212692	 4.123538
H	 2.301259	 -2.831860	 3.472028
H	 0.642050	 -2.237842	 3.655520

	symmetry c1
}
set optking {
	frozen_dihedral = ("
		6 3 5 9
	")
}

ee = optimize('scf')
oeprop('DIPOLE', 'QUADRUPOLE', 'MULLIKEN_CHARGES')
f=open( 'psi4out.xyz', 'w' )
f.write( "29  " )
f.write( str(ee) + "\n" )
f.write( MOL.save_string_xyz() )
f.close()
--------------------------------------------------------------------------

    Molecular point group: c1
  Charge       = 0
  Multiplicity = 1
  Basis Set: 6-31G*
  Basis Set:
  @DF-RHF Final Energy:  -501.03407389781410
    Total Energy =                       -501.0340738978140962
    Molecular point group: c1
  Basis Set: 6-31G*
  Basis Set:
  Basis Set: 6-31G*
  Basis Set:
  @DF-RHF Final Energy:  -501.04000837493959
    Total Energy =                       -501.0400083749397027
  Basis Set: 6-31G*
  Basis Set:
  Basis Set: 6-31G*
  Basis Set:
  @DF-RHF Final Energy:  -501.04092039882266
    Total Energy =                       -501.0409203988231184
  Basis Set: 6-31G*
  Basis Set:
  Basis Set: 6-31G*
  Basis Set:
  @DF-RHF Final Energy:  -501.03848903522703
    Total Energy =                       -501.0384890352265757
  Basis Set: 6-31G*
  Basis Set:
  @DF-RHF Final Energy:  -501.04151119802589
    Total Energy =                       -501.0415111980260008
  @DF-RHF Final Energy:  -501.04191115131641
    Total Energy =                       -501.0419111513164125
  @DF-RHF Final Energy:  -501.04210231627485
    Total Energy =                       -501.0421023162748497
  @DF-RHF Final Energy:  -501.04210601832369
    Total Energy =                       -501.0421060183227837
  @DF-RHF Final Energy:  -501.04217425233549
    Total Energy =                       -501.0421742523348030
  Basis Set: 6-31G*
  Basis Set:
  @DF-RHF Final Energy:  -501.04218259497270
    Total Energy =                       -501.0421825949720187
  Basis Set: 6-31G*
  Basis Set:
  Basis Set: 6-31G*
  Basis Set:
  @DF-RHF Final Energy:  -501.04218458531693
    Total Energy =                       -501.0421845853165905
  Basis Set: 6-31G*
  Basis Set:
  Basis Set: 6-31G*
  Basis Set:
  @DF-RHF Final Energy:  -501.04218577773429
    Total Energy =                       -501.0421857777339483
  Basis Set: 6-31G*
  Basis Set:
  Charge       = 0
  Multiplicity = 1
  Basis Set: 6-31G*
  Basis Set:

    Orbital Energies (a.u.)
    -----------------------

    Doubly Occupied:

       1A    -20.606075     2A    -20.543576     3A    -11.372316
       4A    -11.281474     5A    -11.234568     6A    -11.223072
       7A    -11.214377     8A    -11.214050     9A    -11.212437
      10A    -11.212035    11A    -11.207830    12A     -1.470182
      13A     -1.362304    14A     -1.096515    15A     -1.065221
      16A     -1.016779    17A     -0.977390    18A     -0.928323
      19A     -0.862005    20A     -0.801429    21A     -0.789324
      22A     -0.763049    23A     -0.693757    24A     -0.682509
      25A     -0.670329    26A     -0.651222    27A     -0.625683
      28A     -0.615960    29A     -0.587967    30A     -0.578992
      31A     -0.563522    32A     -0.551313    33A     -0.536581
      34A     -0.525016    35A     -0.522134    36A     -0.502597
      37A     -0.498343    38A     -0.479557    39A     -0.470670
      40A     -0.462432    41A     -0.457856    42A     -0.453661
      43A     -0.437676    44A     -0.430769

  @DF-RHF Final Energy:  -501.04218624980012

   => Energetics <=

    Nuclear Repulsion Energy =            636.2598643092283055
    One-Electron Energy =               -1943.6983521260451653
    Two-Electron Energy =                 806.3963015670165078
    DFT Exchange-Correlation Energy =       0.0000000000000000
    Empirical Dispersion Energy =           0.0000000000000000
    PCM Polarization Energy =               0.0000000000000000
    EFP Energy =                            0.0000000000000000
    Total Energy =                       -501.0421862498003520
    Molecular point group: c1
  Basis Set: 6-31G*
  Basis Set:

  -Total Gradient:
     Atom            X                  Y                   Z
    ------   -----------------  -----------------  -----------------
       1       -0.000012782629     0.000043664692     0.000015905845
       2        0.000014040123    -0.000059037553     0.000004059070
       3       -0.001153038914    -0.001978451400    -0.004356908478
       4       -0.000009686196     0.000014825173    -0.000038868505
       5        0.003787534151     0.002807811361     0.001104708218
       6        0.000430579160     0.001240414487     0.003511089148
       7       -0.000015069945    -0.000000276042    -0.000004599271
       8       -0.000009952727     0.000006196188    -0.000014996311
       9       -0.003063683103    -0.002091507349    -0.000235207925
      10        0.000005998920     0.000000366052     0.000002200728
      11        0.000022583076     0.000009084751     0.000017813419
      12       -0.000008549434     0.000015992981    -0.000000862165
      13        0.000002790102    -0.000012908581    -0.000014279704
      14        0.000004947495    -0.000007152316     0.000017933000
      15       -0.000000068741    -0.000006079786     0.000001994633
      16        0.000005568944     0.000000742489     0.000002089401
      17       -0.000009217830     0.000007791067    -0.000016665483
      18        0.000009022197    -0.000001214985     0.000001799244
      19       -0.000002853041    -0.000001326698     0.000003143697
      20        0.000001184416    -0.000004906822     0.000003509372
      21       -0.000000818385    -0.000000742600    -0.000004796807
      22       -0.000001501259     0.000004289557    -0.000001241655
      23        0.000000523864    -0.000002052635     0.000003034649
      24       -0.000000056210    -0.000001867091    -0.000003405738
      25       -0.000000313175     0.000003702036     0.000000793247
      26        0.000006163642     0.000008532124     0.000018656015
      27       -0.000001484614    -0.000001419605     0.000001613344
      28       -0.000001695567     0.000004330101    -0.000012326495
      29       -0.000000164332     0.000001200404    -0.000006184494

  **** Optimization is complete! (in 13 steps) ****
    Final optimized geometry and variables:
    Molecular point group: c1

    Geometry (in Angstrom), charge = 0, multiplicity = 1:

    O            2.033474503423     0.708286021299     1.719282453247
    C            2.060446398409    -0.070459843542     0.819888198977
    C            2.096872712073     0.303340464283    -0.644110718738
    O            2.107059472862    -1.382990070453     1.000217901531
    C            1.273960310336     1.553569128710    -0.982448558951
    H            3.146905511357     0.504783169900    -0.845571551078
    H            1.809742550621    -0.552166482600    -1.239473073441
    C           -0.191601713428     1.521577511405    -0.527558182539
    H            1.284224170757     1.663670714272    -2.064118221619
    H            1.758384856437     2.424476511123    -0.557040856944
    C           -1.013109158977     0.370330251287    -1.115186863716
    H           -0.648878126111     2.464036297888    -0.820704315875
    H           -0.236998447936     1.487950041016     0.556204445496
    C           -2.493495671147     0.443030996117    -0.735532850164
    H           -0.920029788740     0.375233243335    -2.200554635356
    H           -0.611047467680    -0.583514384789    -0.779507351822
    C           -3.323304121879    -0.708326757346    -1.306405235610
    H           -2.907240459992     1.388954374756    -1.080940666211
    H           -2.586402014860     0.449083557178     0.349202234551
    C           -4.800921200138    -0.626551967840    -0.924637784032
    H           -3.230976909675    -0.715838658603    -2.390497044852
    H           -2.913210339278    -1.654413204314    -0.959280710280
    H           -5.362354092186    -1.456457387911    -1.342703487638
    H           -5.249677216360     0.293224958157    -1.289141034644
    H           -4.929012515929    -0.650504442855     0.153903268940
    C            2.143543717426    -1.846426953783     2.338231523039
    H            3.018120267792    -1.467971511464     2.847434136421
    H            2.182540969854    -2.922760361767     2.276415390334
    H            1.258179568436    -1.533148749425     2.872296017296

  Mulliken Charges: (a.u.)
   Center  Symbol    Alpha    Beta     Spin     Total
       1     O     4.28847  4.28847  0.00000 -0.57694
       2     C     2.60467  2.60467  0.00000  0.79066
       3     C     3.21271  3.21271  0.00000 -0.42543
       4     O     4.30575  4.30575  0.00000 -0.61151
       5     C     3.15213  3.15213  0.00000 -0.30427
       6     H     0.39836  0.39836  0.00000  0.20328
       7     H     0.39842  0.39842  0.00000  0.20316
       8     C     3.16488  3.16488  0.00000 -0.32977
       9     H     0.41907  0.41907  0.00000  0.16186
      10     H     0.40752  0.40752  0.00000  0.18496
      11     C     3.15612  3.15612  0.00000 -0.31224
      12     H     0.42034  0.42034  0.00000  0.15932
      13     H     0.40775  0.40775  0.00000  0.18449
      14     C     3.15008  3.15008  0.00000 -0.30016
      15     H     0.42495  0.42495  0.00000  0.15009
      16     H     0.42287  0.42287  0.00000  0.15425
      17     C     3.15139  3.15139  0.00000 -0.30277
      18     H     0.42369  0.42369  0.00000  0.15261
      19     H     0.42279  0.42279  0.00000  0.15443
      20     C     3.23929  3.23929  0.00000 -0.47858
      21     H     0.42348  0.42348  0.00000  0.15303
      22     H     0.42334  0.42334  0.00000  0.15331
      23     H     0.41964  0.41964  0.00000  0.16072
      24     H     0.42173  0.42173  0.00000  0.15654
      25     H     0.42165  0.42165  0.00000  0.15670
      26     C     3.09311  3.09311  0.00000 -0.18621
      27     H     0.40879  0.40879  0.00000  0.18243
      28     H     0.40830  0.40830  0.00000  0.18340
      29     H     0.40869  0.40869  0.00000  0.18262

   Total alpha = 44.00000, Total beta = 44.00000, Total charge =  0.00000
