  ==> Input File <==

--------------------------------------------------------------------------
set {
	reference rhf
	basis 6-31G*
}

set_num_threads( 4 )
memory 2 gb

molecule MOL {
0 1

O	 -2.439739	 -0.935931	 -0.423848
C	 -1.921153	 0.064240	 -0.045697
C	 -2.624470	 1.379923	 0.150949
O	 -0.632575	 0.154573	 0.251549
H	 -2.168117	 2.136577	 -0.476876
H	 -3.669540	 1.273223	 -0.098610
H	 -2.519365	 1.700893	 1.180846
C	 0.160891	 -1.019931	 0.106212
C	 1.589627	 -0.672828	 0.480843
H	 0.089836	 -1.367806	 -0.916050
H	 -0.238459	 -1.792301	 0.749618
C	 2.289103	 0.246167	 -0.522442
H	 2.141086	 -1.606904	 0.566443
H	 1.592927	 -0.215956	 1.467005
C	 3.733157	 0.553216	 -0.128194
H	 2.273891	 -0.219364	 -1.505879
H	 1.731175	 1.172667	 -0.610042
H	 4.206572	 1.206650	 -0.854097
H	 4.325899	 -0.355029	 -0.064742
H	 3.779065	 1.045625	 0.839021

	symmetry c1
}
set optking {
	frozen_dihedral = ("
		12 9 8 10
	")
}

ee = optimize('scf')
oeprop('DIPOLE', 'QUADRUPOLE', 'MULLIKEN_CHARGES')
f=open( 'psi4out.xyz', 'w' )
f.write( "20  " )
f.write( str(ee) + "\n" )
f.write( MOL.save_string_xyz() )
f.close()
--------------------------------------------------------------------------

    Molecular point group: c1
  Charge       = 0
  Multiplicity = 1
  Basis Set: 6-31G*
  Basis Set:
  @DF-RHF Final Energy:  -383.94554122739697
    Total Energy =                       -383.9455412273969159
    Molecular point group: c1
  Basis Set: 6-31G*
  Basis Set:
  Basis Set: 6-31G*
  Basis Set:
  @DF-RHF Final Energy:  -383.94542664861791
    Total Energy =                       -383.9454266486180813
  Basis Set: 6-31G*
  Basis Set:
  Basis Set: 6-31G*
  Basis Set:
  @DF-RHF Final Energy:  -383.94550449127991
    Total Energy =                       -383.9455044912797348
  Basis Set: 6-31G*
  Basis Set:
  Basis Set: 6-31G*
  Basis Set:
  @DF-RHF Final Energy:  -383.94556867187532
    Total Energy =                       -383.9455686718753213
  Basis Set: 6-31G*
  Basis Set:
  Charge       = 0
  Multiplicity = 1
  Basis Set: 6-31G*
  Basis Set:

    Orbital Energies (a.u.)
    -----------------------

    Doubly Occupied:

       1A    -20.601528     2A    -20.543869     3A    -11.374314
       4A    -11.282415     5A    -11.233311     6A    -11.225446
       7A    -11.221087     8A    -11.213647     9A     -1.467668
      10A     -1.361903    11A     -1.086240    12A     -1.028253
      13A     -0.981358    14A     -0.880296    15A     -0.810512
      16A     -0.776357    17A     -0.689424    18A     -0.682964
      19A     -0.666875    20A     -0.631262    21A     -0.601935
      22A     -0.592530    23A     -0.572140    24A     -0.550790
      25A     -0.544374    26A     -0.530903    27A     -0.512100
      28A     -0.482994    29A     -0.475786    30A     -0.472995
      31A     -0.448734    32A     -0.438458

  @DF-RHF Final Energy:  -383.94556871249483

   => Energetics <=

    Nuclear Repulsion Energy =            384.8805459540972151
    One-Electron Energy =               -1285.6872938988362876
    Two-Electron Energy =                 516.8611792322440124
    DFT Exchange-Correlation Energy =       0.0000000000000000
    Empirical Dispersion Energy =           0.0000000000000000
    PCM Polarization Energy =               0.0000000000000000
    EFP Energy =                            0.0000000000000000
    Total Energy =                       -383.9455687124950600
    Molecular point group: c1
  Basis Set: 6-31G*
  Basis Set:

  -Total Gradient:
     Atom            X                  Y                   Z
    ------   -----------------  -----------------  -----------------
       1        0.000052399687     0.000031891825    -0.000027260664
       2       -0.000075190852    -0.000021371290     0.000032552192
       3        0.000012984719    -0.000001844814    -0.000003066459
       4        0.000000354230     0.000001475228    -0.000005135705
       5        0.000000441937    -0.000001636153     0.000000117329
       6       -0.000000492042    -0.000000399661     0.000001614690
       7       -0.000000356027     0.000000009096    -0.000000552481
       8        0.000285939693    -0.001823679979     0.000454650795
       9       -0.000487416112     0.001389792627     0.000549908132
      10       -0.000173395231     0.001217851889    -0.000454083999
      11        0.000065292550    -0.000005002827    -0.000044916637
      12        0.000318146701    -0.000770053668    -0.000517313219
      13        0.000001626183    -0.000009668130     0.000011455479
      14       -0.000012755926     0.000012139860    -0.000004029975
      15       -0.000008329608     0.000015950726     0.000021315632
      16       -0.000008608291    -0.000016736455     0.000000558927
      17        0.000025378332    -0.000014513779    -0.000015049683
      18       -0.000008373419     0.000011679103     0.000008840675
      19        0.000005687793    -0.000000405017    -0.000018940535
      20        0.000006665685    -0.000015478579     0.000009335508

  **** Optimization is complete! (in 5 steps) ****
    Final optimized geometry and variables:
    Molecular point group: c1

    Geometry (in Angstrom), charge = 0, multiplicity = 1:

    O           -2.448993137526    -0.902775959810    -0.415045742447
    C           -1.925214419538     0.093188261563    -0.032637270302
    C           -2.621551379142     1.412262618034     0.166886080561
    O           -0.638338096365     0.173495748200     0.273498283248
    H           -2.157876551545     2.168788617895    -0.455674464631
    H           -3.666109480416     1.312851108690    -0.087825348030
    H           -2.519059258738     1.728046527721     1.198672215409
    C            0.148628133722    -1.007059463771     0.129976442241
    C            1.579106862041    -0.659957174857     0.498882116685
    H            0.072487782956    -1.350019522767    -0.893446550762
    H           -0.254126158898    -1.775203653758     0.775877349649
    C            2.269163348452     0.264794525762    -0.505507259894
    H            2.135441601643    -1.592240951162     0.573069186637
    H            1.586600279983    -0.211553244297     1.488544236808
    C            3.708275335550     0.592519740032    -0.110056968569
    H            2.261708558492    -0.205419648130    -1.486609304527
    H            1.699380589821     1.184130702468    -0.598494127473
    H            4.174699915509     1.248540559162    -0.838133991432
    H            4.312533264764    -0.307773202813    -0.041201971600
    H            3.745885006039     1.089900613879     0.854912765878

  Mulliken Charges: (a.u.)
   Center  Symbol    Alpha    Beta     Spin     Total
       1     O     4.28351  4.28351  0.00000 -0.56701
       2     C     2.61931  2.61931  0.00000  0.76138
       3     C     3.28162  3.28162  0.00000 -0.56323
       4     O     4.30899  4.30899  0.00000 -0.61798
       5     H     0.40083  0.40083  0.00000  0.19834
       6     H     0.39690  0.39690  0.00000  0.20619
       7     H     0.40062  0.40062  0.00000  0.19876
       8     C     3.00277  3.00277  0.00000 -0.00553
       9     C     3.16445  3.16445  0.00000 -0.32889
      10     H     0.41027  0.41027  0.00000  0.17946
      11     H     0.40825  0.40825  0.00000  0.18351
      12     C     3.15541  3.15541  0.00000 -0.31082
      13     H     0.41837  0.41837  0.00000  0.16326
      14     H     0.41366  0.41366  0.00000  0.17268
      15     C     3.24035  3.24035  0.00000 -0.48070
      16     H     0.42246  0.42246  0.00000  0.15508
      17     H     0.41277  0.41277  0.00000  0.17446
      18     H     0.41750  0.41750  0.00000  0.16500
      19     H     0.42158  0.42158  0.00000  0.15685
      20     H     0.42041  0.42041  0.00000  0.15919

   Total alpha = 32.00000, Total beta = 32.00000, Total charge =  0.00000
