  ==> Input File <==

--------------------------------------------------------------------------
set {
	reference rhf
	basis cc-pvtz
}

set_num_threads( 4 )
memory 2 gb

molecule MOL {
0 1

H	 -2.039638	 -1.012565	 1.342259
N	 -1.258212	 -0.393129	 1.306975
C	 -0.561396	 -0.500007	 0.035200
H	 -0.655337	 -0.635770	 2.065264
C	 0.575129	 0.507849	 -0.048832
H	 -1.277498	 -0.296378	 -0.754072
H	 -0.166856	 -1.500062	 -0.150926
C	 1.951750	 -0.141983	 0.035101
H	 0.478254	 1.061643	 -0.975981
H	 0.467676	 1.231891	 0.755499
H	 2.101550	 -0.848142	 -0.774949
H	 2.738260	 0.600794	 -0.026526
H	 2.078939	 -0.679792	 0.968824

	symmetry c1
}
set optking {
	frozen_dihedral = ("
		6 3 5 9
	")
}

ee = optimize('scf')
oeprop('DIPOLE', 'QUADRUPOLE', 'MULLIKEN_CHARGES')
f=open( 'psi4out.xyz', 'w' )
f.write( "13  " )
f.write( str(ee) + "\n" )
f.write( MOL.save_string_xyz() )
f.close()
--------------------------------------------------------------------------

    Molecular point group: c1
  Charge       = 0
  Multiplicity = 1
  Basis Set: CC-PVTZ
  Basis Set:
  @DF-RHF Final Energy:  -173.34632036731296
    Total Energy =                       -173.3463203673130408
    Molecular point group: c1
  Basis Set: CC-PVTZ
  Basis Set:
  Basis Set: CC-PVTZ
  Basis Set:
  @DF-RHF Final Energy:  -173.34675677529859
    Total Energy =                       -173.3467567752986156
  Basis Set: CC-PVTZ
  Basis Set:
  Basis Set: CC-PVTZ
  Basis Set:
  @DF-RHF Final Energy:  -173.34686312950987
    Total Energy =                       -173.3468631295098135
  Basis Set: CC-PVTZ
  Basis Set:
  Basis Set: CC-PVTZ
  Basis Set:
  @DF-RHF Final Energy:  -173.34686537993443
    Total Energy =                       -173.3468653799345702
  Basis Set: CC-PVTZ
  Basis Set:
  Charge       = 0
  Multiplicity = 1
  Basis Set: CC-PVTZ
  Basis Set:

    Orbital Energies (a.u.)
    -----------------------

    Doubly Occupied:

       1A    -15.527379     2A    -11.238454     3A    -11.210319
       4A    -11.208288     5A     -1.177812     6A     -1.033674
       7A     -0.902538     8A     -0.798034     9A     -0.667393
      10A     -0.629531    11A     -0.591743    12A     -0.563534
      13A     -0.550409    14A     -0.487241    15A     -0.477850
      16A     -0.465571    17A     -0.383074

  @DF-RHF Final Energy:  -173.34686569146589

   => Energetics <=

    Nuclear Repulsion Energy =            132.4737951050587412
    One-Electron Energy =                -495.8156330219355823
    Two-Electron Energy =                 189.9949722254111180
    DFT Exchange-Correlation Energy =       0.0000000000000000
    Empirical Dispersion Energy =           0.0000000000000000
    PCM Polarization Energy =               0.0000000000000000
    EFP Energy =                            0.0000000000000000
    Total Energy =                       -173.3468656914657231
    Molecular point group: c1
  Basis Set: CC-PVTZ
  Basis Set:

  -Total Gradient:
     Atom            X                  Y                   Z
    ------   -----------------  -----------------  -----------------
       1       -0.000031797759    -0.000013112099     0.000021688033
       2        0.000007953165     0.000011222593    -0.000032463676
       3       -0.002114089978     0.002808401651     0.002561474310
       4        0.000008469953    -0.000011107181    -0.000000292770
       5        0.002383967782    -0.003001716115    -0.002125742459
       6        0.001419274753    -0.001836044473    -0.001799357716
       7        0.000003530880    -0.000018691538     0.000006698954
       8       -0.000031050780     0.000012253821     0.000006966886
       9       -0.001631318737     0.002021581152     0.001349197337
      10        0.000001783542     0.000011998326     0.000015722908
      11       -0.000012623135     0.000010415698     0.000001068789
      12       -0.000000369025     0.000002356443     0.000005566827
      13       -0.000003730662     0.000002441721    -0.000010527424

  **** Optimization is complete! (in 5 steps) ****
    Final optimized geometry and variables:
    Molecular point group: c1

    Geometry (in Angstrom), charge = 0, multiplicity = 1:

    H           -2.180134677823    -0.892923912055     1.013545436357
    N           -1.424861490148    -0.242059319249     0.961760547302
    C           -0.746449310581    -0.335758440268    -0.323272295953
    H           -0.799698810289    -0.462205219171     1.709396916105
    C            0.420016300792     0.660362674644    -0.422070414476
    H           -1.471068785101    -0.135129314336    -1.102792319222
    H           -0.370615292182    -1.340266901705    -0.521907829388
    C            1.797644964293     0.014443711459    -0.314902807959
    H            0.346254358962     1.221961897469    -1.346800397614
    H            0.298759160819     1.392346366898     0.368721112164
    H            1.971231720593    -0.679533957628    -1.130257827909
    H            2.583504746554     0.760549738610    -0.342430774512
    H            1.901823506761    -0.538527537342     0.613649515630

  Mulliken Charges: (a.u.)
   Center  Symbol    Alpha    Beta     Spin     Total
       1     H     0.42990  0.42990  0.00000  0.14019
       2     N     3.68715  3.68715  0.00000 -0.37430
       3     C     3.02909  3.02909  0.00000 -0.05818
       4     H     0.43112  0.43112  0.00000  0.13777
       5     C     3.09295  3.09295  0.00000 -0.18589
       6     H     0.45376  0.45376  0.00000  0.09248
       7     H     0.46930  0.46930  0.00000  0.06139
       8     C     3.14556  3.14556  0.00000 -0.29111
       9     H     0.45044  0.45044  0.00000  0.09912
      10     H     0.44816  0.44816  0.00000  0.10368
      11     H     0.45558  0.45558  0.00000  0.08884
      12     H     0.44913  0.44913  0.00000  0.10175
      13     H     0.45787  0.45787  0.00000  0.08427

   Total alpha = 17.00000, Total beta = 17.00000, Total charge =  0.00000
