  ==> Input File <==

--------------------------------------------------------------------------
set {
	reference rhf
	basis 6-31G*
}

set_num_threads( 4 )
memory 2 gb

molecule MOL {
0 1

H	 2.122016	 -1.182255	 -0.891170
O	 2.016064	 -0.864478	 0.000222
C	 1.050492	 0.053836	 0.000068
C	 -0.318135	 -0.576402	 0.000164
O	 1.285279	 1.218255	 -0.000078
C	 -1.454360	 0.441875	 -0.000474
H	 -0.374042	 -1.230163	 -0.866135
H	 -0.374274	 -1.229227	 0.867154
C	 -2.826123	 -0.230780	 0.000056
H	 -1.357605	 1.085198	 -0.868380
H	 -1.357504	 1.086451	 0.866496
H	 -2.959731	 -0.858053	 -0.876869
H	 -3.619374	 0.509403	 -0.000080
H	 -2.959371	 -0.857318	 0.877556

	symmetry c1
}
set optking {
	frozen_dihedral = ("
		1 2 3 5
	")
}

ee = optimize('scf')
oeprop('DIPOLE', 'QUADRUPOLE', 'MULLIKEN_CHARGES')
f=open( 'psi4out.xyz', 'w' )
f.write( "14  " )
f.write( str(ee) + "\n" )
f.write( MOL.save_string_xyz() )
f.close()
--------------------------------------------------------------------------

    Molecular point group: c1
  Charge       = 0
  Multiplicity = 1
  Basis Set: 6-31G*
  Basis Set:
  @DF-RHF Final Energy:  -305.85741646532199
    Total Energy =                       -305.8574164653219896
    Molecular point group: c1
  Basis Set: 6-31G*
  Basis Set:
  Basis Set: 6-31G*
  Basis Set:
  @DF-RHF Final Energy:  -305.85859675027518
    Total Energy =                       -305.8585967502752965
  Basis Set: 6-31G*
  Basis Set:
  Basis Set: 6-31G*
  Basis Set:
  @DF-RHF Final Energy:  -305.85908304544500
    Total Energy =                       -305.8590830454450042
  Basis Set: 6-31G*
  Basis Set:
  Basis Set: 6-31G*
  Basis Set:
  @DF-RHF Final Energy:  -305.85916939288478
    Total Energy =                       -305.8591693928846098
  Basis Set: 6-31G*
  Basis Set:
  Basis Set: 6-31G*
  Basis Set:
  @DF-RHF Final Energy:  -305.85917092295654
    Total Energy =                       -305.8591709229563094
  Basis Set: 6-31G*
  Basis Set:
  Charge       = 0
  Multiplicity = 1
  Basis Set: 6-31G*
  Basis Set:

    Orbital Energies (a.u.)
    -----------------------

    Doubly Occupied:

       1A    -20.594716     2A    -20.562843     3A    -11.381912
       4A    -11.244849     5A    -11.227867     6A    -11.219425
       7A     -1.460361     8A     -1.368123     9A     -1.083981
      10A     -0.976727    11A     -0.851332    12A     -0.800157
      13A     -0.712942    14A     -0.673927    15A     -0.662508
      16A     -0.629911    17A     -0.579832    18A     -0.560445
      19A     -0.542679    20A     -0.505325    21A     -0.498015
      22A     -0.484842    23A     -0.481955    24A     -0.444438

  @DF-RHF Final Energy:  -305.85917119027681

   => Energetics <=

    Nuclear Repulsion Energy =            239.1300209358489894
    One-Electron Energy =                -890.8801569192671650
    Two-Electron Energy =                 345.8909647931412792
    DFT Exchange-Correlation Energy =       0.0000000000000000
    Empirical Dispersion Energy =           0.0000000000000000
    PCM Polarization Energy =               0.0000000000000000
    EFP Energy =                            0.0000000000000000
    Total Energy =                       -305.8591711902769248
    Molecular point group: c1
  Basis Set: 6-31G*
  Basis Set:

  -Total Gradient:
     Atom            X                  Y                   Z
    ------   -----------------  -----------------  -----------------
       1        0.000410811051     0.000446969789    -0.000100595649
       2       -0.000534184435    -0.000579774539    -0.000109562759
       3        0.000108292486     0.000113223637     0.000742137745
       4        0.000013896769    -0.000001132192     0.000039797550
       5       -0.000014879734     0.000017307614    -0.000538739158
       6       -0.000010219576     0.000006679185     0.000016720302
       7       -0.000003614918    -0.000008611653    -0.000018712856
       8        0.000006314820     0.000014838667    -0.000018625862
       9        0.000008450646    -0.000008338595    -0.000019267613
      10       -0.000005226380     0.000004700286    -0.000001265375
      11        0.000012141653    -0.000006843420     0.000006334236
      12       -0.000001800377    -0.000008756450     0.000000428571
      13        0.000009987625     0.000002976699    -0.000005274689
      14        0.000000030360     0.000006760971     0.000006625556

  **** Optimization is complete! (in 6 steps) ****
    Final optimized geometry and variables:
    Molecular point group: c1

    Geometry (in Angstrom), charge = 0, multiplicity = 1:

    H            2.244167886135    -1.181629696883    -0.876759003256
    O            2.063191570839    -0.859331639040    -0.002192280206
    C            1.056441154599     0.058721636093    -0.002850228224
    C           -0.320267204894    -0.560519929946     0.001172929989
    O            1.280270706188     1.215649716692     0.039580870574
    C           -1.457085348163     0.456685733329     0.003819036854
    H           -0.390280633831    -1.221795603601    -0.860944235377
    H           -0.370768357216    -1.212083661219     0.869903290952
    C           -2.829742566212    -0.214103761345     0.015928096445
    H           -1.366374021788     1.098285749608    -0.866492772225
    H           -1.352470852232     1.103064672448     0.868287515063
    H           -2.970489833776    -0.845093304457    -0.857372071271
    H           -3.621977155266     0.527091926226     0.017759608738
    H           -2.957951186832    -0.836422211603     0.897079175546

  Mulliken Charges: (a.u.)
   Center  Symbol    Alpha    Beta     Spin     Total
       1     H     0.26690  0.26690  0.00000  0.46619
       2     O     4.36934  4.36934  0.00000 -0.73868
       3     C     2.62875  2.62875  0.00000  0.74251
       4     C     3.21057  3.21057  0.00000 -0.42115
       5     O     4.24456  4.24456  0.00000 -0.48912
       6     C     3.15245  3.15245  0.00000 -0.30491
       7     H     0.41170  0.41170  0.00000  0.17660
       8     H     0.39685  0.39685  0.00000  0.20631
       9     C     3.24295  3.24295  0.00000 -0.48589
      10     H     0.41195  0.41195  0.00000  0.17610
      11     H     0.40803  0.40803  0.00000  0.18394
      12     H     0.42190  0.42190  0.00000  0.15620
      13     H     0.41388  0.41388  0.00000  0.17223
      14     H     0.42017  0.42017  0.00000  0.15967

   Total alpha = 24.00000, Total beta = 24.00000, Total charge =  0.00000
