  ==> Input File <==

--------------------------------------------------------------------------
set {
	reference rhf
	basis 6-31G*
}

set_num_threads( 1 )
memory 2 gb

molecule MOL {
0 1

H	 -3.420663	 1.227371	 -1.044276
O	 -3.452007	 0.283848	 -0.965577
C	 -3.181085	 -0.079926	 0.364119
C	 -1.765924	 0.277073	 0.805136
H	 -3.327791	 -1.152017	 0.410903
H	 -3.905698	 0.375695	 1.036898
C	 -0.677594	 -0.417312	 -0.014550
H	 -1.637766	 1.358238	 0.744969
H	 -1.659588	 0.017670	 1.857098
C	 0.738335	 -0.034840	 0.421385
H	 -0.814977	 -0.178223	 -1.064632
H	 -0.802730	 -1.495410	 0.071702
C	 1.822265	 -0.738362	 -0.399735
H	 0.853533	 1.043532	 0.342250
H	 0.871597	 -0.279636	 1.474438
C	 1.681371	 -0.579644	 -1.917995
H	 1.831871	 -1.798089	 -0.149573
H	 2.793043	 -0.348347	 -0.100914
C	 0.441752	 -1.248504	 -2.514968
H	 2.565491	 -0.999687	 -2.391477
H	 1.677199	 0.478968	 -2.170036
H	 0.412546	 -2.306528	 -2.268252
H	 0.440868	 -1.162555	 -3.597303
H	 -0.476905	 -0.798873	 -2.152939

	symmetry c1
}
set optking {
	frozen_dihedral = ("
		20 16 13 17,
		13 10 7 11,
		11 7 4 3,
		1 2 3 5,
		7 4 3 2
	")
}

ee = energy('scf')
oeprop('DIPOLE', 'QUADRUPOLE', 'MULLIKEN_CHARGES')
f=open( 'psi4out.xyz', 'w' )
f.write( "24  " )
f.write( str(ee) + "\n" )
f.write( MOL.save_string_xyz() )
f.close()
--------------------------------------------------------------------------

    Molecular point group: c1

    Geometry (in Angstrom), charge = 0, multiplicity = 1:

       Center              X                  Y                   Z               Mass
    ------------   -----------------  -----------------  -----------------  -----------------
           H         -2.808012193870     1.532081657794    -0.496608648470     1.007825032070
           O         -2.839356193870     0.588558657794    -0.417909648470    15.994914619560
           C         -2.568434193870     0.224784657794     0.911786351530    12.000000000000
           C         -1.153273193870     0.581783657794     1.352803351530    12.000000000000
           H         -2.715140193870    -0.847306342206     0.958570351530     1.007825032070
           H         -3.293047193870     0.680405657794     1.584565351530     1.007825032070
           C         -0.064943193870    -0.112601342206     0.533117351530    12.000000000000
           H         -1.025115193870     1.662948657794     1.292636351530     1.007825032070
           H         -1.046937193870     0.322380657794     2.404765351530     1.007825032070
           C          1.350985806130     0.269870657794     0.969052351530    12.000000000000
           H         -0.202326193870     0.126487657794    -0.516964648470     1.007825032070
           H         -0.190079193870    -1.190699342206     0.619369351530     1.007825032070
           C          2.434915806130    -0.433651342206     0.147932351530    12.000000000000
           H          1.466183806130     1.348242657794     0.889917351530     1.007825032070
           H          1.484247806130     0.025074657794     2.022105351530     1.007825032070
           C          2.294021806130    -0.274933342206    -1.370327648470    12.000000000000
           H          2.444521806130    -1.493378342206     0.398094351530     1.007825032070
           H          3.405693806130    -0.043636342206     0.446753351530     1.007825032070
           C          1.054402806130    -0.943793342206    -1.967300648470    12.000000000000
           H          3.178141806130    -0.694976342206    -1.843809648470     1.007825032070
           H          2.289849806130     0.783678657794    -1.622368648470     1.007825032070
           H          1.025196806130    -2.001817342206    -1.720584648470     1.007825032070
           H          1.053518806130    -0.857844342206    -3.049635648470     1.007825032070
           H          0.135745806130    -0.494162342206    -1.605271648470     1.007825032070

  Charge       = 0
  Multiplicity = 1
  Basis Set: 6-31G*
  Basis Set:

    Orbital Energies (a.u.)
    -----------------------

    Doubly Occupied:

       1A    -20.554642     2A    -11.267599     3A    -11.215672
       4A    -11.212905     5A    -11.212510     6A    -11.211544
       7A    -11.205858     8A    -11.196236     9A     -1.361061
      10A     -1.093627    11A     -1.042488    12A     -0.981761
      13A     -0.926869    14A     -0.847771    15A     -0.800104
      16A     -0.775079    17A     -0.681892    18A     -0.664423
      19A     -0.624688    20A     -0.612526    21A     -0.598870
      22A     -0.587694    23A     -0.554529    24A     -0.544302
      25A     -0.525113    26A     -0.507068    27A     -0.497148
      28A     -0.474735    29A     -0.465084    30A     -0.458895
      31A     -0.455552    32A     -0.425437    33A     -0.414482

  @DF-RHF Final Energy:  -349.21670062362517

   => Energetics <=

    Nuclear Repulsion Energy =            402.8497082634217463
    One-Electron Energy =               -1272.1368185609662760
    Two-Electron Energy =                 520.0704096739189026
    DFT Exchange-Correlation Energy =       0.0000000000000000
    Empirical Dispersion Energy =           0.0000000000000000
    PCM Polarization Energy =               0.0000000000000000
    EFP Energy =                            0.0000000000000000
    Total Energy =                       -349.2167006236256839

  Mulliken Charges: (a.u.)
   Center  Symbol    Alpha    Beta     Spin     Total
       1     H     0.28324  0.28324  0.00000  0.43351
       2     O     4.36902  4.36902  0.00000 -0.73803
       3     C     2.99646  2.99646  0.00000  0.00709
       4     C     3.16557  3.16557  0.00000 -0.33114
       5     H     0.41651  0.41651  0.00000  0.16698
       6     H     0.42807  0.42807  0.00000  0.14385
       7     C     3.15679  3.15679  0.00000 -0.31358
       8     H     0.42928  0.42928  0.00000  0.14144
       9     H     0.42351  0.42351  0.00000  0.15298
      10     C     3.15014  3.15014  0.00000 -0.30029
      11     H     0.41270  0.41270  0.00000  0.17460
      12     H     0.42310  0.42310  0.00000  0.15380
      13     C     3.15388  3.15388  0.00000 -0.30777
      14     H     0.42515  0.42515  0.00000  0.14969
      15     H     0.42283  0.42283  0.00000  0.15435
      16     C     3.15593  3.15593  0.00000 -0.31185
      17     H     0.42412  0.42412  0.00000  0.15175
      18     H     0.42122  0.42122  0.00000  0.15756
      19     C     3.24288  3.24288  0.00000 -0.48575
      20     H     0.41968  0.41968  0.00000  0.16063
      21     H     0.42465  0.42465  0.00000  0.15071
      22     H     0.42284  0.42284  0.00000  0.15432
      23     H     0.42118  0.42118  0.00000  0.15763
      24     H     0.41124  0.41124  0.00000  0.17753

   Total alpha = 33.00000, Total beta = 33.00000, Total charge =  0.00000
