                              Psi4 1.0.54 Driver

  ==> Input File <==

--------------------------------------------------------------------------
set {
	reference rhf
	basis cc-pvtz
}

set_num_threads( 4 )
memory 2 gb

molecule MOL {
0 1

H	 -3.106823	 1.885621	 0.278971
O	 -2.548736	 1.970619	 1.031146
C	 -1.213191	 1.909666	 0.635885
C	 -0.793473	 0.591216	 0.050087
H	 -0.621798	 2.110889	 1.521360
H	 -0.983105	 2.699864	 -0.076398
C	 -1.534243	 -0.493009	 -0.013340
H	 0.210754	 0.572784	 -0.340343
H	 -1.101195	 -1.466332	 -0.144046
H	 -2.604242	 -0.437780	 0.050785

	symmetry c1
}
set optking {
	frozen_dihedral = ("
		3 4 7 9
	")
}

ee,wfn = optimize('scf', return_wfn=True)
oeprop( wfn, 'DIPOLE', 'QUADRUPOLE', 'MULLIKEN_CHARGES')
f=open( 'psi4out.xyz', 'w' )
f.write( "10  " )
f.write( str(ee) + "\n" )
f.write( MOL.save_string_xyz() )
f.close()
--------------------------------------------------------------------------

    Molecular point group: c1
  Charge       = 0
  Multiplicity = 1
  Basis Set: CC-PVTZ
  Basis Set:
  @DF-RHF Final Energy:  -191.98864000514129
    Total Energy =                       -191.9886400051412920
    Molecular point group: c1
  Basis Set: CC-PVTZ
  Basis Set:
  Basis Set: CC-PVTZ
  Basis Set:
  @DF-RHF Final Energy:  -191.99402725522793
    Total Energy =                       -191.9940272552279339
  Basis Set: CC-PVTZ
  Basis Set:
  Basis Set: CC-PVTZ
  Basis Set:
  @DF-RHF Final Energy:  -191.99491812299846
    Total Energy =                       -191.9949181229983708
  Basis Set: CC-PVTZ
  Basis Set:
  Basis Set: CC-PVTZ
  Basis Set:
  @DF-RHF Final Energy:  -191.99492950617440
    Total Energy =                       -191.9949295061742873
  Basis Set: CC-PVTZ
  Basis Set:
  Charge       = 0
  Multiplicity = 1
  Basis Set: CC-PVTZ
  Basis Set:

    Orbital Energies (a.u.)
    -----------------------

    Doubly Occupied:

       1A    -20.554789     2A    -11.279003     3A    -11.230184
       4A    -11.215943     5A     -1.374984     6A     -1.062164
       7A     -0.931950     8A     -0.771500     9A     -0.692053
      10A     -0.663971    11A     -0.621278    12A     -0.574568
      13A     -0.541517    14A     -0.494239    15A     -0.453507
      16A     -0.366604

  @DF-RHF Final Energy:  -191.99492986220525

   => Energetics <=

    Nuclear Repulsion Energy =            119.4355087057724205
    One-Electron Energy =                -497.2043727170101874
    Two-Electron Energy =                 185.7739341490325842
    DFT Exchange-Correlation Energy =       0.0000000000000000
    Empirical Dispersion Energy =           0.0000000000000000
    PCM Polarization Energy =               0.0000000000000000
    EFP Energy =                            0.0000000000000000
    Total Energy =                       -191.9949298622051970
    Molecular point group: c1
  Basis Set: CC-PVTZ
  Basis Set:

  -Total Gradient:
     Atom            X                  Y                   Z
    ------   -----------------  -----------------  -----------------
       1        0.000026642685    -0.000004702327     0.000019364279
       2        0.000042785846    -0.000014965017    -0.000037112264
       3        0.003964959647    -0.002943863870     0.008252597297
       4       -0.005882199883     0.004178009229    -0.008222007617
       5       -0.000000270827    -0.000002589814     0.000001996474
       6       -0.000008160925    -0.000028576138     0.000002910087
       7       -0.000125736541     0.000440444084    -0.012539211650
       8       -0.000032663940     0.000040736218    -0.000114558351
       9        0.001865709860    -0.001655098501     0.012687699801
      10        0.000148934077    -0.000009393863    -0.000051678055

  **** Optimization is complete! (in 5 steps) ****
    Final optimized geometry and variables:
    Molecular point group: c1

    Geometry (in Angstrom), charge = 0, multiplicity = 1:

    H           -1.502161699109     0.955847720128    -0.184709693095
    O           -0.960334166117     0.939473907523     0.583632535858
    C            0.380649303022     0.841214458998     0.213486003502
    C            0.759729687752    -0.460033326741    -0.436399938686
    H            0.959962894275     0.932783587331     1.124287507791
    H            0.667441977897     1.676145616536    -0.423041286833
    C            0.023553927170    -1.549288513598    -0.469925268249
    H            1.789011361256    -0.509624111284    -0.753734463589
    H            0.458409722588    -2.512292620570    -0.659674852070
    H           -0.990213996562    -1.544538390168    -0.116281387339

  Mulliken Charges: (a.u.)
   Center  Symbol    Alpha    Beta     Spin     Total
       1     H     0.39103  0.39103  0.00000  0.21794
       2     O     4.19888  4.19888  0.00000 -0.39776
       3     C     2.95169  2.95169  0.00000  0.09662
       4     C     3.08713  3.08713  0.00000 -0.17426
       5     H     0.45262  0.45262  0.00000  0.09476
       6     H     0.46698  0.46698  0.00000  0.06603
       7     C     3.17319  3.17319  0.00000 -0.34639
       8     H     0.42479  0.42479  0.00000  0.15042
       9     H     0.42723  0.42723  0.00000  0.14553
      10     H     0.42645  0.42645  0.00000  0.14710

   Total alpha = 16.00000, Total beta = 16.00000, Total charge = -0.00000

*** Psi4 exiting successfully. Buy a developer a beer!
