  ==> Input File <==

--------------------------------------------------------------------------
set {
	reference rhf
	basis 6-31G*
}

set_num_threads( 4 )
memory 2 gb

molecule MOL {
0 1

O	 -1.487788	 1.240889	 -0.102860
C	 -1.083277	 0.139568	 0.115197
C	 0.323299	 -0.082943	 0.642902
C	 -1.933017	 -1.084621	 -0.143902
C	 1.355627	 -0.005344	 -0.493127
H	 0.396251	 -1.044647	 1.143147
H	 0.528637	 0.693580	 1.371677
C	 2.787482	 -0.178800	 0.009815
H	 1.140020	 -0.768307	 -1.237891
H	 1.251349	 0.953627	 -0.989756
H	 3.496797	 -0.114217	 -0.808961
H	 2.922334	 -1.143571	 0.490289
H	 3.043344	 0.590487	 0.732158
H	 -1.393885	 -1.806447	 -0.750509
H	 -2.850323	 -0.799888	 -0.640100
H	 -2.169004	 -1.571158	 0.798858

	symmetry c1
}
set optking {
	frozen_dihedral = ("
		9 5 3 2
	")
}

ee = optimize('scf')
oeprop('DIPOLE', 'QUADRUPOLE', 'MULLIKEN_CHARGES')
f=open( 'psi4out.xyz', 'w' )
f.write( "16  " )
f.write( str(ee) + "\n" )
f.write( MOL.save_string_xyz() )
f.close()
--------------------------------------------------------------------------

    Molecular point group: c1
  Charge       = 0
  Multiplicity = 1
  Basis Set: 6-31G*
  Basis Set:
  @DF-RHF Final Energy:  -270.03037275474594
    Total Energy =                       -270.0303727547461676
    Molecular point group: c1
  Basis Set: 6-31G*
  Basis Set:
  Charge       = 0
  Multiplicity = 1
  Basis Set: 6-31G*
  Basis Set:

    Orbital Energies (a.u.)
    -----------------------

    Doubly Occupied:

       1A    -20.548020     2A    -11.325058     3A    -11.232908
       4A    -11.229940     5A    -11.228656     6A    -11.219171
       7A     -1.393775     8A     -1.082189     9A     -1.013311
      10A     -0.949419    11A     -0.828689    12A     -0.735265
      13A     -0.659577    14A     -0.648227    15A     -0.611524
      16A     -0.607367    17A     -0.575681    18A     -0.558857
      19A     -0.538383    20A     -0.517175    21A     -0.502768
      22A     -0.484176    23A     -0.471210    24A     -0.398205

  @DF-RHF Final Energy:  -270.03037294126216

   => Energetics <=

    Nuclear Repulsion Energy =            237.0140531719688397
    One-Electron Energy =                -835.3697493911807896
    Two-Electron Energy =                 328.3253232779501332
    DFT Exchange-Correlation Energy =       0.0000000000000000
    Empirical Dispersion Energy =           0.0000000000000000
    PCM Polarization Energy =               0.0000000000000000
    EFP Energy =                            0.0000000000000000
    Total Energy =                       -270.0303729412618168
    Molecular point group: c1
  Basis Set: 6-31G*
  Basis Set:

  -Total Gradient:
     Atom            X                  Y                   Z
    ------   -----------------  -----------------  -----------------
       1       -0.000028205970     0.000003037332     0.000026203650
       2        0.000062487974     0.000139338643    -0.000065084354
       3       -0.000014586107    -0.000263610460     0.000018884597
       4       -0.000003707581    -0.000006109389     0.000025959770
       5       -0.000088604448     0.000259812901    -0.000066208699
       6        0.000004640956    -0.000007633167     0.000040816162
       7        0.000001056484    -0.000003814876    -0.000029099146
       8       -0.000035276185    -0.000038538861    -0.000026190330
       9        0.000104595365    -0.000114924573     0.000097116203
      10        0.000014686258     0.000033241186    -0.000020203079
      11       -0.000004012203    -0.000008472664    -0.000000716034
      12        0.000003882104     0.000000980581     0.000011634132
      13       -0.000013792486     0.000005335646    -0.000014134108
      14       -0.000000435054     0.000003261039     0.000001898095
      15        0.000001442958     0.000001687951     0.000000575033
      16       -0.000004172065    -0.000003591291    -0.000001451892

  **** Optimization is complete! (in 2 steps) ****
    Final optimized geometry and variables:
    Molecular point group: c1

    Geometry (in Angstrom), charge = 0, multiplicity = 1:

    O           -1.488485486221     1.237553610998    -0.103061271722
    C           -1.083543146732     0.136310347463     0.114561967724
    C            0.323197726230    -0.085769191056     0.642092394196
    C           -1.933169474330    -1.088054397943    -0.144097595987
    C            1.355716128549    -0.006601291799    -0.493674324848
    H            0.397212481123    -1.047228132698     1.142646157502
    H            0.527566800252     0.691202408552     1.370659198263
    C            2.787200493407    -0.182217189806     0.009562582743
    H            1.140409926404    -0.769180269209    -1.238896202461
    H            1.252604039940     0.953177383000    -0.989028314876
    H            3.496652935915    -0.120316569516    -0.809293058026
    H            2.920133855211    -1.146533097629     0.491506021686
    H            3.044519329271     0.587669542525     0.730725855499
    H           -1.394203126970    -1.809702744405    -0.751069001455
    H           -2.850836734336    -0.803525501835    -0.639738621421
    H           -2.168492731906    -1.574715159012     0.798772243237

  Mulliken Charges: (a.u.)
   Center  Symbol    Alpha    Beta     Spin     Total
       1     O     4.26195  4.26195  0.00000 -0.52390
       2     C     2.73756  2.73756  0.00000  0.52489
       3     C     3.19896  3.19896  0.00000 -0.39792
       4     C     3.28952  3.28952  0.00000 -0.57905
       5     C     3.16139  3.16139  0.00000 -0.32277
       6     H     0.41705  0.41705  0.00000  0.16589
       7     H     0.40124  0.40124  0.00000  0.19751
       8     C     3.23974  3.23974  0.00000 -0.47948
       9     H     0.41999  0.41999  0.00000  0.16002
      10     H     0.40514  0.40514  0.00000  0.18972
      11     H     0.41545  0.41545  0.00000  0.16911
      12     H     0.42089  0.42089  0.00000  0.15821
      13     H     0.41762  0.41762  0.00000  0.16475
      14     H     0.40979  0.40979  0.00000  0.18042
      15     H     0.39695  0.39695  0.00000  0.20609
      16     H     0.40675  0.40675  0.00000  0.18651

   Total alpha = 24.00000, Total beta = 24.00000, Total charge =  0.00000
