  ==> Input File <==

--------------------------------------------------------------------------
set {
	reference rhf
	basis 6-31G*
}

set_num_threads( 4 )
memory 2 gb

molecule MOL {
0 1

H	 3.893188	 0.355400	 -0.101367
N	 3.092854	 -0.246221	 -0.068770
C	 1.865559	 0.531981	 0.018834
H	 3.199514	 -0.826043	 0.741946
C	 0.645745	 -0.382037	 -0.029944
H	 1.841966	 1.207024	 -0.831236
H	 1.815756	 1.155410	 0.915079
C	 -0.679275	 0.379305	 0.025956
H	 0.698998	 -0.976915	 -0.937203
H	 0.693479	 -1.083846	 0.802235
C	 -0.711816	 1.453166	 1.115056
H	 -1.492969	 -0.324566	 0.194231
H	 -0.873757	 0.843828	 -0.939571
C	 -2.039134	 2.208626	 1.169972
H	 -0.519058	 0.991191	 2.080788
H	 0.098636	 2.159509	 0.948018
H	 -2.866503	 1.533482	 1.369864
H	 -2.031349	 2.962029	 1.951590
H	 -2.243902	 2.710917	 0.228608

	symmetry c1
}
set optking {
	frozen_dihedral = ("
		12 8 5 9
	")
}

ee = optimize('scf')
oeprop('DIPOLE', 'QUADRUPOLE', 'MULLIKEN_CHARGES')
f=open( 'psi4out.xyz', 'w' )
f.write( "19  " )
f.write( str(ee) + "\n" )
f.write( MOL.save_string_xyz() )
f.close()
--------------------------------------------------------------------------

    Molecular point group: c1
  Charge       = 0
  Multiplicity = 1
  Basis Set: 6-31G*
  Basis Set:
  @DF-RHF Final Energy:  -251.34644301769691
    Total Energy =                       -251.3464430176970836
    Molecular point group: c1
  Basis Set: 6-31G*
  Basis Set:
  Basis Set: 6-31G*
  Basis Set:
  @DF-RHF Final Energy:  -251.34724556618426
    Total Energy =                       -251.3472455661843128
  Basis Set: 6-31G*
  Basis Set:
  Basis Set: 6-31G*
  Basis Set:
  @DF-RHF Final Energy:  -251.34855243940456
    Total Energy =                       -251.3485524394045001
  Basis Set: 6-31G*
  Basis Set:
  Basis Set: 6-31G*
  Basis Set:
  @DF-RHF Final Energy:  -251.34867476603793
    Total Energy =                       -251.3486747660379024
  Basis Set: 6-31G*
  Basis Set:
  Basis Set: 6-31G*
  Basis Set:
  @DF-RHF Final Energy:  -251.34868902527467
    Total Energy =                       -251.3486890252745525
  Basis Set: 6-31G*
  Basis Set:
  Basis Set: 6-31G*
  Basis Set:
  @DF-RHF Final Energy:  -251.34869245130230
    Total Energy =                       -251.3486924513023837
  Basis Set: 6-31G*
  Basis Set:
  Basis Set: 6-31G*
  Basis Set:
  @DF-RHF Final Energy:  -251.34869362243850
    Total Energy =                       -251.3486936224385886
  Basis Set: 6-31G*
  Basis Set:
  Charge       = 0
  Multiplicity = 1
  Basis Set: 6-31G*
  Basis Set:

    Orbital Energies (a.u.)
    -----------------------

    Doubly Occupied:

       1A    -15.532149     2A    -11.238924     3A    -11.214892
       4A    -11.213315     5A    -11.209929     6A    -11.208318
       7A     -1.176225     8A     -1.072421     9A     -0.996262
      10A     -0.899059    11A     -0.831800    12A     -0.772964
      13A     -0.655139    14A     -0.641514    15A     -0.628474
      16A     -0.585896    17A     -0.570331    18A     -0.544165
      19A     -0.529222    20A     -0.505615    21A     -0.484707
      22A     -0.461209    23A     -0.456257    24A     -0.449763
      25A     -0.380217

  @DF-RHF Final Energy:  -251.34869366305929

   => Energetics <=

    Nuclear Repulsion Energy =            249.3751039801884417
    One-Electron Energy =                -832.9300589180829775
    Two-Electron Energy =                 332.2062612748355832
    DFT Exchange-Correlation Energy =       0.0000000000000000
    Empirical Dispersion Energy =           0.0000000000000000
    PCM Polarization Energy =               0.0000000000000000
    EFP Energy =                            0.0000000000000000
    Total Energy =                       -251.3486936630589526
    Molecular point group: c1
  Basis Set: 6-31G*
  Basis Set:

  -Total Gradient:
     Atom            X                  Y                   Z
    ------   -----------------  -----------------  -----------------
       1       -0.000004733025     0.000003691446    -0.000000963376
       2       -0.000009151680    -0.000010579694    -0.000000552252
       3        0.000007498892     0.000018815824     0.000010201080
       4       -0.000000058878    -0.000001420932     0.000000189234
       5       -0.001991564071    -0.003322077940     0.002980761863
       6        0.000000416510    -0.000003311246    -0.000004540832
       7       -0.000001780591    -0.000001157904    -0.000003127671
       8        0.000039953236     0.000090824784    -0.004849438484
       9        0.001667559234     0.002781646770    -0.001768106724
      10        0.000001783161    -0.000006164575    -0.000004101719
      11       -0.000001836974    -0.000004195420     0.000022282798
      12        0.000304526099     0.000463955323     0.003627567482
      13       -0.000009496463    -0.000006680323    -0.000009341838
      14        0.000006543661     0.000004633909    -0.000013252077
      15       -0.000003437217    -0.000003905246     0.000004971745
      16       -0.000007277731    -0.000002383609     0.000005963040
      17       -0.000000350399     0.000000919569     0.000007469208
      18        0.000005352171     0.000001702643    -0.000004479228
      19       -0.000003945930    -0.000004313381    -0.000001502248

  **** Optimization is complete! (in 8 steps) ****
    Final optimized geometry and variables:
    Molecular point group: c1

    Geometry (in Angstrom), charge = 0, multiplicity = 1:

    H            3.546132808556    -0.446599296251    -0.575530685916
    N            2.711304359772    -0.999813732798    -0.546392134097
    C            1.543040785395    -0.156095107122    -0.329505024209
    H            2.821025340217    -1.646445062925     0.212000722310
    C            0.273680779877    -1.006735879304    -0.345052607050
    H            1.502019168041     0.564547972858    -1.141577055185
    H            1.603428694259     0.415878579549     0.596745792779
    C           -1.039577182940    -0.212546308764    -0.341696681383
    H            0.320670143075    -1.609200393421    -1.246759090348
    H            0.291907055218    -1.689554874823     0.502987024776
    C           -1.151263878942     0.867014186429     0.741233596698
    H           -1.856476043256    -0.913923341164    -0.186258834642
    H           -1.193239643172     0.243051432916    -1.317557213298
    C           -2.538909192076     1.506750152652     0.785193988555
    H           -0.925185702859     0.430132459290     1.712362755807
    H           -0.410429672987     1.643964240647     0.575285320065
    H           -3.305365037128     0.767997812222     1.001850443653
    H           -2.594435875933     2.275363537884     1.549987626612
    H           -2.786930145907     1.968925648169    -0.166318867581

  Mulliken Charges: (a.u.)
   Center  Symbol    Alpha    Beta     Spin     Total
       1     H     0.33268  0.33268  0.00000  0.33465
       2     N     3.92195  3.92195  0.00000 -0.84391
       3     C     3.06357  3.06357  0.00000 -0.12714
       4     H     0.33564  0.33564  0.00000  0.32873
       5     C     3.15418  3.15418  0.00000 -0.30835
       6     H     0.42159  0.42159  0.00000  0.15683
       7     H     0.43154  0.43154  0.00000  0.13692
       8     C     3.15465  3.15465  0.00000 -0.30930
       9     H     0.41011  0.41011  0.00000  0.17978
      10     H     0.42737  0.42737  0.00000  0.14526
      11     C     3.15547  3.15547  0.00000 -0.31093
      12     H     0.42159  0.42159  0.00000  0.15681
      13     H     0.42209  0.42209  0.00000  0.15581
      14     C     3.23896  3.23896  0.00000 -0.47792
      15     H     0.42405  0.42405  0.00000  0.15190
      16     H     0.42151  0.42151  0.00000  0.15699
      17     H     0.42180  0.42180  0.00000  0.15639
      18     H     0.41964  0.41964  0.00000  0.16072
      19     H     0.42163  0.42163  0.00000  0.15675

   Total alpha = 25.00000, Total beta = 25.00000, Total charge =  0.00000
