  ==> Input File <==

--------------------------------------------------------------------------
set {
	reference rhf
	basis 6-31G*
}

set_num_threads( 4 )
memory 2 gb

molecule MOL {
0 1

H	 -2.499100	 -0.730091	 -0.745082
O	 -2.347518	 -0.290803	 0.079804
C	 -1.184022	 0.487508	 -0.006784
C	 0.062599	 -0.378592	 0.031606
H	 -1.176523	 1.099369	 -0.904519
H	 -1.187323	 1.153111	 0.844927
O	 -0.095737	 -1.315631	 1.049774
H	 0.943327	 0.240406	 0.213653
H	 0.199589	 -0.864622	 -0.932547
C	 0.964912	 -2.208028	 1.183160
H	 1.893858	 -1.690210	 1.414578
H	 0.726425	 -2.879786	 1.996037
H	 1.110959	 -2.789853	 0.275448

	symmetry c1
}
set optking {
	frozen_dihedral = ("
		8 4 3 5
	")
}

ee = optimize('scf')
oeprop('DIPOLE', 'QUADRUPOLE', 'MULLIKEN_CHARGES')
f=open( 'psi4out.xyz', 'w' )
f.write( "13  " )
f.write( str(ee) + "\n" )
f.write( MOL.save_string_xyz() )
f.close()
--------------------------------------------------------------------------

    Molecular point group: c1
  Charge       = 0
  Multiplicity = 1
  Basis Set: 6-31G*
  Basis Set:
  @DF-RHF Final Energy:  -267.94502119470178
    Total Energy =                       -267.9450211947021216
    Molecular point group: c1
  Basis Set: 6-31G*
  Basis Set:
  Basis Set: 6-31G*
  Basis Set:
  @DF-RHF Final Energy:  -267.94593194332981
    Total Energy =                       -267.9459319433298674
  Basis Set: 6-31G*
  Basis Set:
  Basis Set: 6-31G*
  Basis Set:
  @DF-RHF Final Energy:  -267.94640728021807
    Total Energy =                       -267.9464072802181249
  Basis Set: 6-31G*
  Basis Set:
  Basis Set: 6-31G*
  Basis Set:
  @DF-RHF Final Energy:  -267.94659178078950
    Total Energy =                       -267.9465917807895607
  Basis Set: 6-31G*
  Basis Set:
  @DF-RHF Final Energy:  -267.94667089885212
    Total Energy =                       -267.9466708988520622
  @DF-RHF Final Energy:  -267.94676540078990
    Total Energy =                       -267.9467654007897295
  @DF-RHF Final Energy:  -267.94865656021966
    Total Energy =                       -267.9486565602196038
  @DF-RHF Final Energy:  -267.50878032298397
    Total Energy =                       -267.5087803229840802
  @DF-RHF Final Energy:  -267.90865081018183
    Total Energy =                       -267.9086508101817685
  @DF-RHF Final Energy:  -267.94758767943682
    Total Energy =                       -267.9475876794365377
  @DF-RHF Final Energy:  -267.95201440320591
    Total Energy =                       -267.9520144032060216
  @DF-RHF Final Energy:  -267.87398483123292
    Total Energy =                       -267.8739848312328604
  @DF-RHF Final Energy:  -267.94181993114688
    Total Energy =                       -267.9418199311465969
  @DF-RHF Final Energy:  -267.95302085346918
    Total Energy =                       -267.9530208534694680
  @DF-RHF Final Energy:  -267.95326417745719
    Total Energy =                       -267.9532641774569584
  @DF-RHF Final Energy:  -267.95293894563349
    Total Energy =                       -267.9529389456331501
  Basis Set: 6-31G*
  Basis Set:
  @DF-RHF Final Energy:  -267.95384671254305
    Total Energy =                       -267.9538467125431680
  Basis Set: 6-31G*
  Basis Set:
  Basis Set: 6-31G*
  Basis Set:
  @DF-RHF Final Energy:  -267.95385722563640
    Total Energy =                       -267.9538572256366251
  Basis Set: 6-31G*
  Basis Set:
  Basis Set: 6-31G*
  Basis Set:
  @DF-RHF Final Energy:  -267.95386148171622
    Total Energy =                       -267.9538614817161033
  Basis Set: 6-31G*
  Basis Set:
  Charge       = 0
  Multiplicity = 1
  Basis Set: 6-31G*
  Basis Set:

    Orbital Energies (a.u.)
    -----------------------

    Doubly Occupied:

       1A    -20.569645     2A    -20.545827     3A    -11.275215
       4A    -11.275134     5A    -11.268055     6A     -1.396397
       7A     -1.351695     8A     -1.019990     9A     -0.922526
      10A     -0.835783    11A     -0.702672    12A     -0.683207
      13A     -0.664962    14A     -0.634479    15A     -0.584122
      16A     -0.579901    17A     -0.544522    18A     -0.493271
      19A     -0.482643    20A     -0.433776    21A     -0.427494

  @DF-RHF Final Energy:  -267.95386239942229

   => Energetics <=

    Nuclear Repulsion Energy =            195.1030448410613189
    One-Electron Energy =                -752.7311848593967625
    Two-Electron Energy =                 289.6742776189130950
    DFT Exchange-Correlation Energy =       0.0000000000000000
    Empirical Dispersion Energy =           0.0000000000000000
    PCM Polarization Energy =               0.0000000000000000
    EFP Energy =                            0.0000000000000000
    Total Energy =                       -267.9538623994223485
    Molecular point group: c1
  Basis Set: 6-31G*
  Basis Set:

  -Total Gradient:
     Atom            X                  Y                   Z
    ------   -----------------  -----------------  -----------------
       1        0.000031666084    -0.000079824175     0.000095086821
       2       -0.000027221041     0.000162940617    -0.000154374685
       3        0.001415273829     0.002581974890     0.003143207081
       4        0.000652476243     0.000262615059    -0.004315833635
       5       -0.001348844747    -0.002183260795    -0.001902386352
       6       -0.000046096901    -0.000012950664     0.000003944222
       7        0.000077367850    -0.000060545111     0.000103105826
       8       -0.000739864335    -0.000676850172     0.003019650718
       9        0.000013357334    -0.000016716701     0.000013617985
      10       -0.000060288696     0.000039764228    -0.000018308289
      11        0.000018949830    -0.000005686918     0.000007635459
      12        0.000007840173    -0.000006063555     0.000008137653
      13        0.000005384376    -0.000005396703    -0.000003482803

  **** Optimization is complete! (in 20 steps) ****
    Final optimized geometry and variables:
    Molecular point group: c1

    Geometry (in Angstrom), charge = 0, multiplicity = 1:

    H           -1.743220636359    -0.238332916898    -0.077836331925
    O           -1.731562568165     0.466719201722    -0.712499016607
    C           -0.614901865448     1.262799154257    -0.442943645121
    C            0.640952971493     0.420221806445    -0.318120493118
    H           -0.518549860617     1.942629220511    -1.280195577146
    H           -0.758636588119     1.842558488563     0.465592010724
    O            0.376432149272    -0.572381882322     0.633982993693
    H            1.476971848639     1.032796760465     0.016640185240
    H            0.892726269216    -0.033291476050    -1.274110500440
    C            1.411262555120    -1.486443644533     0.823700814224
    H            2.315145928423    -0.993024477058     1.174358811692
    H            1.087340112761    -2.196876777108     1.571570404277
    H            1.641278539564    -2.020127830519    -0.095716911367

  Mulliken Charges: (a.u.)
   Center  Symbol    Alpha    Beta     Spin     Total
       1     H     0.27150  0.27150  0.00000  0.45701
       2     O     4.37436  4.37436  0.00000 -0.74873
       3     C     2.99686  2.99686  0.00000  0.00627
       4     C     3.00408  3.00408  0.00000 -0.00816
       5     H     0.41696  0.41696  0.00000  0.16608
       6     H     0.42477  0.42477  0.00000  0.15046
       7     O     4.31554  4.31554  0.00000 -0.63109
       8     H     0.42892  0.42892  0.00000  0.14216
       9     H     0.42340  0.42340  0.00000  0.15320
      10     C     3.07977  3.07977  0.00000 -0.15955
      11     H     0.42734  0.42734  0.00000  0.14532
      12     H     0.41042  0.41042  0.00000  0.17917
      13     H     0.42607  0.42607  0.00000  0.14786

   Total alpha = 21.00000, Total beta = 21.00000, Total charge = -0.00000
