                              Psi4 1.0.54 Driver

  ==> Input File <==

--------------------------------------------------------------------------
set {
	reference rhf
	basis cc-pvtz
}

set_num_threads( 4 )
memory 2 gb

molecule MOL {
0 1

H	 -2.857508	 -0.542825	 1.059979
C	 -2.740299	 -0.384843	 -0.009688
O	 -1.401606	 -0.295183	 -0.366624
H	 -3.166673	 -1.227422	 -0.534239
H	 -3.289217	 0.513385	 -0.286746
C	 -0.718530	 0.758693	 0.228682
C	 0.718529	 0.758687	 -0.228709
H	 -1.176498	 1.708665	 -0.046615
H	 -0.748705	 0.673525	 1.312779
O	 1.401606	 -0.295166	 0.366636
H	 0.748705	 0.673477	 -1.312803
H	 1.176496	 1.708671	 0.046552
C	 2.714315	 -0.441627	 -0.061017
H	 2.765292	 -0.641548	 -1.128869
H	 3.305661	 0.447341	 0.150952
H	 3.143725	 -1.278506	 0.470147

	symmetry c1
}
set optking {
	frozen_dihedral = ("
		2 3 6 7
	")
}

ee,wfn = optimize('scf', return_wfn=True)
oeprop( wfn, 'DIPOLE', 'QUADRUPOLE', 'MULLIKEN_CHARGES')
f=open( 'psi4out.xyz', 'w' )
f.write( "16  " )
f.write( str(ee) + "\n" )
f.write( MOL.save_string_xyz() )
f.close()
--------------------------------------------------------------------------

    Molecular point group: c1
  Charge       = 0
  Multiplicity = 1
  Basis Set: CC-PVTZ
  Basis Set:
  @DF-RHF Final Energy:  -307.09791422556617
    Total Energy =                       -307.0979142255662282
    Molecular point group: c1
  Basis Set: CC-PVTZ
  Basis Set:
  Basis Set: CC-PVTZ
  Basis Set:
  @DF-RHF Final Energy:  -307.09791602203541
    Total Energy =                       -307.0979160220355766
  Basis Set: CC-PVTZ
  Basis Set:
  Charge       = 0
  Multiplicity = 1
  Basis Set: CC-PVTZ
  Basis Set:

    Orbital Energies (a.u.)
    -----------------------

    Doubly Occupied:

       1A    -20.547972     2A    -20.547780     3A    -11.267674
       4A    -11.266995     5A    -11.261811     6A    -11.261579
       7A     -1.391838     8A     -1.374692     9A     -1.032145
      10A     -0.937175    11A     -0.892507    12A     -0.824349
      13A     -0.686874    14A     -0.682577    15A     -0.659587
      16A     -0.638645    17A     -0.632025    18A     -0.598536
      19A     -0.551619    20A     -0.535499    21A     -0.509756
      22A     -0.479666    23A     -0.465281    24A     -0.423473
      25A     -0.413646

  @DF-RHF Final Energy:  -307.09791620886762

   => Energetics <=

    Nuclear Repulsion Energy =            258.8077137967280237
    One-Electron Energy =                -932.0438630619905780
    Two-Electron Energy =                 366.1382330563948244
    DFT Exchange-Correlation Energy =       0.0000000000000000
    Empirical Dispersion Energy =           0.0000000000000000
    PCM Polarization Energy =               0.0000000000000000
    EFP Energy =                            0.0000000000000000
    Total Energy =                       -307.0979162088677867
    Molecular point group: c1
  Basis Set: CC-PVTZ
  Basis Set:

  -Total Gradient:
     Atom            X                  Y                   Z
    ------   -----------------  -----------------  -----------------
       1       -0.000002608552    -0.000000381602     0.000000987274
       2       -0.000101285949     0.000265158908    -0.000345943045
       3        0.000113075852    -0.000307203456     0.000364113677
       4       -0.000000892834    -0.000002756258     0.000004363118
       5        0.000001555117     0.000003657798     0.000002867013
       6        0.000067634463    -0.000188079172     0.000271821127
       7       -0.000110892537     0.000275990290    -0.000317613576
       8        0.000004215843     0.000001288914     0.000001677227
       9       -0.000002203328    -0.000007807347    -0.000005542551
      10        0.000027252221    -0.000026993697     0.000007473346
      11       -0.000009533100    -0.000001135134     0.000015125625
      12        0.000005847974    -0.000000215510    -0.000003561346
      13        0.000005879852    -0.000014129033     0.000003038476
      14       -0.000001042525     0.000000515513     0.000001203853
      15       -0.000000407475     0.000001575912     0.000000811296
      16        0.000003404977     0.000000513873    -0.000000821513

  **** Optimization is complete! (in 3 steps) ****
    Final optimized geometry and variables:
    Molecular point group: c1

    Geometry (in Angstrom), charge = 0, multiplicity = 1:

    H           -2.853704813576    -0.547556849297     1.074921648616
    C           -2.736043038624    -0.393446984892     0.004597682084
    O           -1.397500146037    -0.305218710313    -0.353151650996
    H           -3.162794168537    -1.237881107452    -0.516618076985
    H           -3.284234268874     0.504176514456    -0.275564462269
    C           -0.713982009170     0.748552400063     0.241689942564
    C            0.723193349791     0.748646491488    -0.215365301412
    H           -1.169782528015     1.698667863463    -0.036970699767
    H           -0.747232087709     0.665854028712     1.325916490599
    O            1.406320127185    -0.307071415689     0.376599096585
    H            0.752894862762     0.666576036366    -1.299650913345
    H            1.181490751911     1.697703736791     0.062703605383
    C            2.719507160810    -0.451223916482    -0.050364398405
    H            2.771617565734    -0.646700098088    -1.118986769186
    H            3.310206002201     0.437178312438     0.165840558604
    H            3.148771192322    -1.290068800098     0.477774099748

  Mulliken Charges: (a.u.)
   Center  Symbol    Alpha    Beta     Spin     Total
       1     H     0.47060  0.47060  0.00000  0.05880
       2     C     3.03208  3.03208  0.00000 -0.06417
       3     O     4.17012  4.17012  0.00000 -0.34023
       4     H     0.44619  0.44619  0.00000  0.10762
       5     H     0.47343  0.47343  0.00000  0.05313
       6     C     2.96046  2.96046  0.00000  0.07908
       7     C     2.96040  2.96040  0.00000  0.07920
       8     H     0.47709  0.47709  0.00000  0.04581
       9     H     0.47004  0.47004  0.00000  0.05991
      10     O     4.17030  4.17030  0.00000 -0.34060
      11     H     0.47078  0.47078  0.00000  0.05843
      12     H     0.47623  0.47623  0.00000  0.04754
      13     C     3.03202  3.03202  0.00000 -0.06405
      14     H     0.47024  0.47024  0.00000  0.05952
      15     H     0.47372  0.47372  0.00000  0.05255
      16     H     0.44627  0.44627  0.00000  0.10746

   Total alpha = 25.00000, Total beta = 25.00000, Total charge = -0.00000

*** Psi4 exiting successfully. Buy a developer a beer!
