  ==> Input File <==

--------------------------------------------------------------------------
set {
	reference rhf
	basis 6-31G*
}

set_num_threads( 4 )
memory 2 gb

molecule MOL {
0 1

O	 -1.276010	 1.052711	 -0.768302
C	 -1.204840	 0.067374	 -0.106123
C	 -2.388195	 -0.672128	 0.458071
O	 -0.067104	 -0.527208	 0.221609
H	 -2.388023	 -1.694060	 0.097175
H	 -3.300579	 -0.174919	 0.164318
H	 -2.315377	 -0.706351	 1.539059
C	 1.170111	 0.034140	 -0.238951
C	 0.902506	 0.533595	 -1.647681
C	 2.265964	 -1.018514	 -0.178355
H	 1.421149	 0.860619	 0.409446
H	 0.105790	 1.268776	 -1.648395
H	 1.795323	 0.995214	 -2.056480
H	 0.612148	 -0.285880	 -2.296377
H	 3.199866	 -0.606571	 -0.547334
H	 2.422722	 -1.351391	 0.839779
H	 2.003796	 -1.874500	 -0.792002

	symmetry c1
}
set optking {
	frozen_dihedral = ("
		11 8 4 2
	")
}

ee = optimize('scf')
oeprop('DIPOLE', 'QUADRUPOLE', 'MULLIKEN_CHARGES')
f=open( 'psi4out.xyz', 'w' )
f.write( "17  " )
f.write( str(ee) + "\n" )
f.write( MOL.save_string_xyz() )
f.close()
--------------------------------------------------------------------------

    Molecular point group: c1
  Charge       = 0
  Multiplicity = 1
  Basis Set: 6-31G*
  Basis Set:
  @DF-RHF Final Energy:  -344.87878867329363
    Total Energy =                       -344.8787886732934567
    Molecular point group: c1
  Basis Set: 6-31G*
  Basis Set:
  Basis Set: 6-31G*
  Basis Set:
  @DF-RHF Final Energy:  -344.90241859733601
    Total Energy =                       -344.9024185973358954
  Basis Set: 6-31G*
  Basis Set:
  Basis Set: 6-31G*
  Basis Set:
  @DF-RHF Final Energy:  -344.90698654791737
    Total Energy =                       -344.9069865479173131
  Basis Set: 6-31G*
  Basis Set:
  Basis Set: 6-31G*
  Basis Set:
  @DF-RHF Final Energy:  -344.90387438426785
    Total Energy =                       -344.9038743842677945
  Basis Set: 6-31G*
  Basis Set:
  @DF-RHF Final Energy:  -344.90839849590890
    Total Energy =                       -344.9083984959089548
  Basis Set: 6-31G*
  Basis Set:
  @DF-RHF Final Energy:  -344.90860586992420
    Total Energy =                       -344.9086058699242017
  Basis Set: 6-31G*
  Basis Set:
  Basis Set: 6-31G*
  Basis Set:
  @DF-RHF Final Energy:  -344.90862454313361
    Total Energy =                       -344.9086245431339535
  Basis Set: 6-31G*
  Basis Set:
  Basis Set: 6-31G*
  Basis Set:
  @DF-RHF Final Energy:  -344.90862659015608
    Total Energy =                       -344.9086265901561319
  Basis Set: 6-31G*
  Basis Set:
  Charge       = 0
  Multiplicity = 1
  Basis Set: 6-31G*
  Basis Set:

    Orbital Energies (a.u.)
    -----------------------

    Doubly Occupied:

       1A    -20.597704     2A    -20.541908     3A    -11.374605
       4A    -11.295065     5A    -11.231185     6A    -11.219103
       7A    -11.213566     8A     -1.462139     9A     -1.361727
      10A     -1.079570    11A     -1.003962    12A     -0.946519
      13A     -0.855231    14A     -0.753050    15A     -0.690494
      16A     -0.677108    17A     -0.657212    18A     -0.615341
      19A     -0.585387    20A     -0.578645    21A     -0.551129
      22A     -0.549681    23A     -0.542660    24A     -0.517907
      25A     -0.500772    26A     -0.484876    27A     -0.446447
      28A     -0.430278

  @DF-RHF Final Energy:  -344.90862728093111

   => Energetics <=

    Nuclear Repulsion Energy =            323.7199195752431251
    One-Electron Energy =               -1111.7305518061775729
    Two-Electron Energy =                 443.1020049500029927
    DFT Exchange-Correlation Energy =       0.0000000000000000
    Empirical Dispersion Energy =           0.0000000000000000
    PCM Polarization Energy =               0.0000000000000000
    EFP Energy =                            0.0000000000000000
    Total Energy =                       -344.9086272809314551
    Molecular point group: c1
  Basis Set: 6-31G*
  Basis Set:

  -Total Gradient:
     Atom            X                  Y                   Z
    ------   -----------------  -----------------  -----------------
       1       -0.000013184304     0.000019094452     0.000027921595
       2       -0.000695286825    -0.003470551655    -0.005003077857
       3       -0.000014699357    -0.000051166252    -0.000073608795
       4        0.001828330376     0.004250226686     0.008402105068
       5        0.000004486313    -0.000004087625     0.000029066631
       6        0.000001684290     0.000004901932     0.000004971391
       7       -0.000000645959     0.000026118458     0.000025227758
       8       -0.004730099999     0.003353435773    -0.007073992545
       9        0.000038105719    -0.000003398022    -0.000038157416
      10       -0.000029774482     0.000007479220    -0.000015508898
      11        0.003549978057    -0.004110471867     0.003710664270
      12        0.000009359127    -0.000012309169     0.000000673404
      13        0.000017507987    -0.000000040606    -0.000011547349
      14        0.000017228227     0.000019364559     0.000011632361
      15        0.000002474086    -0.000009735794     0.000006233207
      16        0.000012243011    -0.000013083517    -0.000003532343
      17        0.000002293738    -0.000005776575     0.000000929516

  **** Optimization is complete! (in 9 steps) ****
    Final optimized geometry and variables:
    Molecular point group: c1

    Geometry (in Angstrom), charge = 0, multiplicity = 1:

    O           -1.332477870337     1.229701462217    -0.182573277282
    C           -1.148934384051     0.159183489417     0.299718180319
    C           -2.244245641997    -0.747874580298     0.796542357033
    O            0.040900927295    -0.385777301444     0.504266012465
    H           -2.211533271175    -1.689718716173     0.261020640686
    H           -3.202547758269    -0.271931895301     0.651156955025
    H           -2.091916461130    -0.963321975421     1.847787992948
    C            1.255824001432     0.155641223905    -0.039891241826
    C            1.158270937656     0.576196481616    -1.499228014239
    C            2.273679402835    -0.961182364552     0.151970568420
    H            1.551400379023     0.981310247619     0.596459554157
    H            0.528316138467     1.439269192767    -1.639010656231
    H            2.155647889508     0.808633980156    -1.858812758479
    H            0.770515149993    -0.241889715642    -2.099117632376
    H            3.262872266372    -0.620680430140    -0.135333644557
    H            2.305686450377    -1.273000798204     1.189375976680
    H            2.015309843189    -1.822147210473    -0.455468210222

  Mulliken Charges: (a.u.)
   Center  Symbol    Alpha    Beta     Spin     Total
       1     O     4.28468  4.28468  0.00000 -0.56936
       2     C     2.61436  2.61436  0.00000  0.77127
       3     C     3.28078  3.28078  0.00000 -0.56157
       4     O     4.31993  4.31993  0.00000 -0.63985
       5     H     0.40233  0.40233  0.00000  0.19535
       6     H     0.39784  0.39784  0.00000  0.20433
       7     H     0.40057  0.40057  0.00000  0.19885
       8     C     2.91501  2.91501  0.00000  0.16999
       9     C     3.26133  3.26133  0.00000 -0.52265
      10     C     3.24271  3.24271  0.00000 -0.48542
      11     H     0.41189  0.41189  0.00000  0.17623
      12     H     0.38736  0.38736  0.00000  0.22528
      13     H     0.41826  0.41826  0.00000  0.16349
      14     H     0.41844  0.41844  0.00000  0.16312
      15     H     0.41845  0.41845  0.00000  0.16309
      16     H     0.41061  0.41061  0.00000  0.17877
      17     H     0.41546  0.41546  0.00000  0.16909

   Total alpha = 28.00000, Total beta = 28.00000, Total charge =  0.00000
