  ==> Input File <==

--------------------------------------------------------------------------
set {
	reference rhf
	basis 6-31G*
}

set_num_threads( 4 )
memory 2 gb

molecule MOL {
0 1

O	 -2.821601	 1.309235	 -0.001213
C	 -2.668563	 0.129746	 -0.000350
C	 -3.801572	 -0.864014	 -0.000442
O	 -1.481751	 -0.454642	 0.000584
H	 -4.417280	 -0.689587	 -0.874708
H	 -3.443784	 -1.883046	 -0.000565
H	 -4.417179	 -0.689832	 0.873954
C	 -0.334255	 0.388708	 0.000906
C	 0.891947	 -0.504646	 0.000751
H	 -0.365390	 1.025305	 -0.873475
H	 -0.365484	 1.024911	 0.875569
C	 0.531901	 -1.976868	 0.209077
H	 1.568419	 -0.172548	 0.783398
H	 1.417316	 -0.379702	 -0.942031
C	 1.755652	 -2.894881	 0.212741
H	 -0.003616	 -2.090796	 1.149996
H	 -0.153827	 -2.297876	 -0.573107
C	 1.396097	 -4.365163	 0.422162
H	 2.441798	 -2.575729	 0.994035
H	 2.290702	 -2.784019	 -0.727738
H	 0.889087	 -4.513640	 1.371325
H	 2.283502	 -4.990258	 0.420092
H	 0.737152	 -4.723585	 -0.363545

	symmetry c1
}
set optking {
	frozen_dihedral = ("
		13 9 8 10
	")
}

ee = optimize('scf')
oeprop('DIPOLE', 'QUADRUPOLE', 'MULLIKEN_CHARGES')
f=open( 'psi4out.xyz', 'w' )
f.write( "23  " )
f.write( str(ee) + "\n" )
f.write( MOL.save_string_xyz() )
f.close()
--------------------------------------------------------------------------

    Molecular point group: c1
  Charge       = 0
  Multiplicity = 1
  Basis Set: 6-31G*
  Basis Set:
  @DF-RHF Final Energy:  -422.96861460699188
    Total Energy =                       -422.9686146069921051
    Molecular point group: c1
  Basis Set: 6-31G*
  Basis Set:
  Basis Set: 6-31G*
  Basis Set:
  @DF-RHF Final Energy:  -422.96881865718228
    Total Energy =                       -422.9688186571826236
  Basis Set: 6-31G*
  Basis Set:
  Basis Set: 6-31G*
  Basis Set:
  @DF-RHF Final Energy:  -422.97111142254886
    Total Energy =                       -422.9711114225488018
  Basis Set: 6-31G*
  Basis Set:
  Basis Set: 6-31G*
  Basis Set:
  @DF-RHF Final Energy:  -422.97122508068048
    Total Energy =                       -422.9712250806808242
  Basis Set: 6-31G*
  Basis Set:
  Basis Set: 6-31G*
  Basis Set:
  @DF-RHF Final Energy:  -422.97103172693136
    Total Energy =                       -422.9710317269316420
  Basis Set: 6-31G*
  Basis Set:
  Basis Set: 6-31G*
  Basis Set:
  @DF-RHF Final Energy:  -422.97128624454831
    Total Energy =                       -422.9712862445480823
  Basis Set: 6-31G*
  Basis Set:
  Charge       = 0
  Multiplicity = 1
  Basis Set: 6-31G*
  Basis Set:

    Orbital Energies (a.u.)
    -----------------------

    Doubly Occupied:

       1A    -20.602994     2A    -20.540841     3A    -11.374405
       4A    -11.283094     5A    -11.232790     6A    -11.226228
       7A    -11.218123     8A    -11.216932     9A    -11.210763
      10A     -1.468187    11A     -1.360879    12A     -1.088137
      13A     -1.039458    14A     -1.001057    15A     -0.930971
      16A     -0.843780    17A     -0.807297    18A     -0.760819
      19A     -0.690719    20A     -0.687478    21A     -0.666108
      22A     -0.643169    23A     -0.605673    24A     -0.588209
      25A     -0.579106    26A     -0.566423    27A     -0.559506
      28A     -0.527652    29A     -0.524270    30A     -0.516529
      31A     -0.489849    32A     -0.471491    33A     -0.469600
      34A     -0.457758    35A     -0.443622    36A     -0.437013

  @DF-RHF Final Energy:  -422.97128581364052

   => Energetics <=

    Nuclear Repulsion Energy =            460.5012775105520859
    One-Electron Energy =               -1488.6832689673169625
    Two-Electron Energy =                 605.2107056431239016
    DFT Exchange-Correlation Energy =       0.0000000000000000
    Empirical Dispersion Energy =           0.0000000000000000
    PCM Polarization Energy =               0.0000000000000000
    EFP Energy =                            0.0000000000000000
    Total Energy =                       -422.9712858136410887
    Molecular point group: c1
  Basis Set: 6-31G*
  Basis Set:

  -Total Gradient:
     Atom            X                  Y                   Z
    ------   -----------------  -----------------  -----------------
       1       -0.000000794705    -0.000003886632    -0.000142080364
       2       -0.000014421599     0.000026720004     0.000396458347
       3        0.000018330749    -0.000001473612    -0.000141603106
       4       -0.000001854014    -0.000035670900    -0.000082105080
       5       -0.000015126118    -0.000009277245     0.000002964213
       6        0.000002470410    -0.000000457593    -0.000004804689
       7        0.000026296282     0.000014319440     0.000004640282
       8        0.001510582611     0.002041850524     0.001997372302
       9        0.001123033156     0.001515561080    -0.002585548078
      10       -0.001423832684    -0.001925560341    -0.001372628330
      11        0.000038094791     0.000010825340     0.000028410731
      12        0.000013089646    -0.000005243874     0.000099442348
      13       -0.001295424451    -0.001663604112     0.001791474229
      14        0.000015214015     0.000049515233    -0.000021089196
      15        0.000005040670     0.000001221154     0.000038438313
      16        0.000024541297     0.000005321270     0.000019805324
      17       -0.000018661137    -0.000022039524     0.000027099775
      18       -0.000012035164    -0.000002149387    -0.000080079001
      19       -0.000015305475    -0.000022832133     0.000029368157
      20        0.000023387431     0.000025012456     0.000015867003
      21        0.000020430290     0.000017384645    -0.000000424750
      22       -0.000002111744     0.000003132617    -0.000026194511
      23       -0.000020944255    -0.000018668410     0.000005216082

  **** Optimization is complete! (in 7 steps) ****
    Final optimized geometry and variables:
    Molecular point group: c1

    Geometry (in Angstrom), charge = 0, multiplicity = 1:

    O           -2.058160762012     2.420541272444    -0.083752538928
    C           -1.976285530980     1.233886052122    -0.094943375174
    C           -3.167999943323     0.311161557740    -0.105596061470
    O           -0.828276822923     0.577830013383    -0.102017402257
    H           -3.771168519531     0.531917601395    -0.978127920158
    H           -2.873454043035    -0.727910561630    -0.116075902350
    H           -3.772550039100     0.513651750166     0.770409023727
    C            0.368684169170     1.353998789604    -0.094331941484
    C            1.597555221359     0.425867510770    -0.109085038115
    H            0.347415790715     1.990758635771    -0.966924273426
    H            0.355214122513     1.985914159365     0.781698377864
    C            1.312925570863    -1.063545373711     0.114642568483
    H            2.275666260113     0.755155881302     0.673102511536
    H            2.125421039431     0.545368862194    -1.050206198296
    C            2.597374485066    -1.894500648953     0.136396011110
    H            0.779176480005    -1.198124900314     1.051361702112
    H            0.655809826277    -1.433830900344    -0.665440345926
    C            2.333504621850    -3.386827472746     0.334122138577
    H            3.249241593494    -1.535981670476     0.930400345192
    H            3.141108560194    -1.745774379198    -0.794337551719
    H            1.823375284148    -3.573281159411     1.274913535317
    H            3.260138867136    -3.952292886023     0.342704646444
    H            1.711001522335    -3.783757190951    -0.462742753595

  Mulliken Charges: (a.u.)
   Center  Symbol    Alpha    Beta     Spin     Total
       1     O     4.28449  4.28449  0.00000 -0.56897
       2     C     2.61393  2.61393  0.00000  0.77214
       3     C     3.28761  3.28761  0.00000 -0.57523
       4     O     4.31258  4.31258  0.00000 -0.62515
       5     H     0.39747  0.39747  0.00000  0.20505
       6     H     0.40011  0.40011  0.00000  0.19978
       7     H     0.39750  0.39750  0.00000  0.20499
       8     C     2.99811  2.99811  0.00000  0.00379
       9     C     3.18044  3.18044  0.00000 -0.36088
      10     H     0.40763  0.40763  0.00000  0.18475
      11     H     0.40793  0.40793  0.00000  0.18414
      12     C     3.14471  3.14471  0.00000 -0.28943
      13     H     0.41595  0.41595  0.00000  0.16810
      14     H     0.41524  0.41524  0.00000  0.16953
      15     C     3.15373  3.15373  0.00000 -0.30745
      16     H     0.41915  0.41915  0.00000  0.16170
      17     H     0.41601  0.41601  0.00000  0.16797
      18     C     3.23904  3.23904  0.00000 -0.47809
      19     H     0.42334  0.42334  0.00000  0.15331
      20     H     0.42324  0.42324  0.00000  0.15352
      21     H     0.42144  0.42144  0.00000  0.15712
      22     H     0.41894  0.41894  0.00000  0.16212
      23     H     0.42141  0.42141  0.00000  0.15718

   Total alpha = 36.00000, Total beta = 36.00000, Total charge = -0.00000
