                              Psi4 1.0.54 Driver

  ==> Input File <==

--------------------------------------------------------------------------
set {
	reference rhf
	basis cc-pvtz
}

set_num_threads( 4 )
memory 2 gb

molecule MOL {
0 1

H	 2.440790	 2.784524	 1.128671
O	 1.503684	 2.739661	 1.185646
C	 1.029541	 1.626696	 0.592381
C	 1.862589	 0.697113	 -0.011430
C	 -0.335786	 1.427039	 0.598764
H	 2.925947	 0.854225	 -0.015481
C	 1.329439	 -0.428275	 -0.606583
H	 -0.981815	 2.143128	 1.064280
C	 -0.861704	 0.296439	 0.000000
H	 1.983677	 -1.140605	 -1.070677
C	 -0.035294	 -0.635443	 -0.604538
C	 -2.330689	 0.069587	 0.000000
H	 -0.452774	 -1.509603	 -1.066536
O	 -2.848621	 -0.993976	 0.000000
H	 -2.934306	 0.982410	 0.000000

	symmetry c1
}
set optking {
	frozen_dihedral = ("
		11 9 12 14
	")
}

ee,wfn = optimize('scf', return_wfn=True)
oeprop( wfn, 'DIPOLE', 'QUADRUPOLE', 'MULLIKEN_CHARGES')
f=open( 'psi4out.xyz', 'w' )
f.write( "15  " )
f.write( str(ee) + "\n" )
f.write( MOL.save_string_xyz() )
f.close()
--------------------------------------------------------------------------

    Molecular point group: c1
  Charge       = 0
  Multiplicity = 1
  Basis Set: CC-PVTZ
  Basis Set:
  @DF-RHF Final Energy:  -418.43608985667788
    Total Energy =                       -418.4360898566779952
    Molecular point group: c1
  Basis Set: CC-PVTZ
  Basis Set:
  Basis Set: CC-PVTZ
  Basis Set:
  @DF-RHF Final Energy:  -418.43506209098518
    Total Energy =                       -418.4350620909854115
  Basis Set: CC-PVTZ
  Basis Set:
  Basis Set: CC-PVTZ
  Basis Set:
  @DF-RHF Final Energy:  -418.43627380827246
    Total Energy =                       -418.4362738082726310
  Basis Set: CC-PVTZ
  Basis Set:
  Basis Set: CC-PVTZ
  Basis Set:
  @DF-RHF Final Energy:  -418.43660396838249
    Total Energy =                       -418.4366039683820873
  Basis Set: CC-PVTZ
  Basis Set:
  Basis Set: CC-PVTZ
  Basis Set:
  @DF-RHF Final Energy:  -418.43660968858580
    Total Energy =                       -418.4366096885854631
  Basis Set: CC-PVTZ
  Basis Set:
  Charge       = 0
  Multiplicity = 1
  Basis Set: CC-PVTZ
  Basis Set:

    Orbital Energies (a.u.)
    -----------------------

    Doubly Occupied:

       1A    -20.598313     2A    -20.556770     3A    -11.328857
       4A    -11.313339     5A    -11.252250     6A    -11.248953
       7A    -11.244980     8A    -11.243349     9A    -11.236508
      10A     -1.429759    11A     -1.412155    12A     -1.173812
      13A     -1.053767    14A     -1.028205    15A     -0.903959
      16A     -0.849086    17A     -0.818283    18A     -0.742114
      19A     -0.704784    20A     -0.678790    21A     -0.666937
      22A     -0.634764    23A     -0.615001    24A     -0.610412
      25A     -0.584632    26A     -0.551230    27A     -0.541732
      28A     -0.518884    29A     -0.493131    30A     -0.427175
      31A     -0.360006    32A     -0.329279

  @DF-RHF Final Energy:  -418.43661138412602

   => Energetics <=

    Nuclear Repulsion Energy =            403.1631375598931868
    One-Electron Energy =               -1368.8970677839452037
    Two-Electron Energy =                 547.2973188399257651
    DFT Exchange-Correlation Energy =       0.0000000000000000
    Empirical Dispersion Energy =           0.0000000000000000
    PCM Polarization Energy =               0.0000000000000000
    EFP Energy =                            0.0000000000000000
    Total Energy =                       -418.4366113841263086
    Molecular point group: c1
  Basis Set: CC-PVTZ
  Basis Set:

  -Total Gradient:
     Atom            X                  Y                   Z
    ------   -----------------  -----------------  -----------------
       1       -0.000003974721    -0.000005173556    -0.000000349159
       2       -0.000001101169    -0.000015545220    -0.000006076248
       3       -0.000100121663     0.000077031408     0.000024620747
       4        0.000013587430    -0.000097242585    -0.000072912508
       5        0.000023284168    -0.000002535412     0.000034095058
       6       -0.000002701983    -0.000005914318    -0.000007515612
       7        0.000060071917     0.000061806875     0.000087681912
       8        0.000013981920     0.000004252030    -0.000011659299
       9        0.000488841232    -0.003417530838     0.007207363014
      10       -0.000003521101    -0.000005933415    -0.000011820831
      11       -0.000334603088     0.002250777225    -0.003399451178
      12       -0.000222534103     0.001275792221    -0.008820686418
      13       -0.000006337861    -0.000005122911    -0.000016040579
      14        0.000078693583    -0.000124094388     0.004990908746
      15       -0.000003564566     0.000009432889     0.000001842359

  **** Optimization is complete! (in 6 steps) ****
    Final optimized geometry and variables:
    Molecular point group: c1

    Geometry (in Angstrom), charge = 0, multiplicity = 1:

    H            2.517165991354     2.219084233686     1.011143232888
    O            1.580264912472     2.163575752884     1.066279774679
    C            1.121214345280     1.054908191897     0.452947768908
    C            1.953313861025     0.147812435432    -0.173044877360
    C           -0.247338314712     0.844100438072     0.452968625567
    H            3.015179262905     0.314006469192    -0.186971831370
    C            1.418629542269    -0.971198000057    -0.790251294832
    H           -0.885184970422     1.567976984364     0.923340955891
    C           -0.767097098438    -0.289723370344    -0.137211432984
    H            2.075077525754    -1.661746947929    -1.283695269037
    C            0.061658865572    -1.200244379328    -0.776903779089
    C           -2.242960430426    -0.485008868110    -0.139252854175
    H           -0.361240744250    -2.067032325129    -1.242954370724
    O           -2.776057169253    -1.539680071829    -0.180246390943
    H           -2.831073031022     0.434483052470    -0.057371207264

  Mulliken Charges: (a.u.)
   Center  Symbol    Alpha    Beta     Spin     Total
       1     H     0.38626  0.38626  0.00000  0.22748
       2     O     4.17199  4.17199  0.00000 -0.34399
       3     C     2.84156  2.84156  0.00000  0.31687
       4     C     3.13165  3.13165  0.00000 -0.26329
       5     C     3.13029  3.13029  0.00000 -0.26058
       6     H     0.43161  0.43161  0.00000  0.13678
       7     C     3.05900  3.05900  0.00000 -0.11799
       8     H     0.41893  0.41893  0.00000  0.16215
       9     C     2.95049  2.95049  0.00000  0.09901
      10     H     0.41885  0.41885  0.00000  0.16231
      11     C     3.10775  3.10775  0.00000 -0.21550
      12     C     2.91574  2.91574  0.00000  0.16853
      13     H     0.41176  0.41176  0.00000  0.17647
      14     O     4.16670  4.16670  0.00000 -0.33340
      15     H     0.45743  0.45743  0.00000  0.08514

   Total alpha = 32.00000, Total beta = 32.00000, Total charge = -0.00000

*** Psi4 exiting successfully. Buy a developer a beer!
