                              Psi4 1.0.54 Driver

  ==> Input File <==

--------------------------------------------------------------------------
set {
	reference rhf
	basis cc-pvtz
}

set_num_threads( 4 )
memory 2 gb

molecule MOL {
0 1

H	 2.190573	 -0.629143	 -0.208718
O	 1.355408	 -0.529451	 0.208662
C	 0.700177	 0.619554	 -0.266242
C	 -0.713111	 0.588314	 0.266177
H	 0.678680	 0.627133	 -1.351786
H	 1.199747	 1.521489	 0.077736
O	 -1.421673	 -0.521378	 -0.196983
H	 -1.244794	 1.469161	 -0.069059
H	 -0.685100	 0.604721	 1.352683
H	 -2.300872	 -0.252273	 -0.398518

	symmetry c1
}
set optking {
	frozen_dihedral = ("
		10 7 4 3
	")
}

ee,wfn = optimize('scf', return_wfn=True)
oeprop( wfn, 'DIPOLE', 'QUADRUPOLE', 'MULLIKEN_CHARGES')
f=open( 'psi4out.xyz', 'w' )
f.write( "10  " )
f.write( str(ee) + "\n" )
f.write( MOL.save_string_xyz() )
f.close()
--------------------------------------------------------------------------

    Molecular point group: c1
  Charge       = 0
  Multiplicity = 1
  Basis Set: CC-PVTZ
  Basis Set:
  @DF-RHF Final Energy:  -229.02096866266811
    Total Energy =                       -229.0209686626679400
    Molecular point group: c1
  Basis Set: CC-PVTZ
  Basis Set:
  Basis Set: CC-PVTZ
  Basis Set:
  @DF-RHF Final Energy:  -229.01273607549473
    Total Energy =                       -229.0127360754948143
  Basis Set: CC-PVTZ
  Basis Set:
  Basis Set: CC-PVTZ
  Basis Set:
  @DF-RHF Final Energy:  -229.02230064967173
    Total Energy =                       -229.0223006496717346
  Basis Set: CC-PVTZ
  Basis Set:
  Basis Set: CC-PVTZ
  Basis Set:
  @DF-RHF Final Energy:  -229.02243698106651
    Total Energy =                       -229.0224369810664484
  Basis Set: CC-PVTZ
  Basis Set:
  Basis Set: CC-PVTZ
  Basis Set:
  @DF-RHF Final Energy:  -229.02245211610577
    Total Energy =                       -229.0224521161056828
  Basis Set: CC-PVTZ
  Basis Set:
  Basis Set: CC-PVTZ
  Basis Set:
  @DF-RHF Final Energy:  -229.02245365508654
    Total Energy =                       -229.0224536550865366
  Basis Set: CC-PVTZ
  Basis Set:
  Charge       = 0
  Multiplicity = 1
  Basis Set: CC-PVTZ
  Basis Set:

    Orbital Energies (a.u.)
    -----------------------

    Doubly Occupied:

       1A    -20.545688     2A    -20.545527     3A    -11.268862
       4A    -11.267890     5A     -1.374564     6A     -1.355040
       7A     -1.003615     8A     -0.833626     9A     -0.723627
      10A     -0.698192    11A     -0.633728    12A     -0.599216
      13A     -0.582163    14A     -0.521009    15A     -0.489282
      16A     -0.446992    17A     -0.434818

  @DF-RHF Final Energy:  -229.02245432886562

   => Energetics <=

    Nuclear Repulsion Energy =            133.3675433108481627
    One-Electron Energy =                -578.1323114934498335
    Two-Electron Energy =                 215.7423138537360501
    DFT Exchange-Correlation Energy =       0.0000000000000000
    Empirical Dispersion Energy =           0.0000000000000000
    PCM Polarization Energy =               0.0000000000000000
    EFP Energy =                            0.0000000000000000
    Total Energy =                       -229.0224543288655923
    Molecular point group: c1
  Basis Set: CC-PVTZ
  Basis Set:

  -Total Gradient:
     Atom            X                  Y                   Z
    ------   -----------------  -----------------  -----------------
       1        0.000007560222     0.000003145760     0.000006286646
       2       -0.000053559968     0.000024551410    -0.000035108035
       3       -0.000323884892     0.000309111662    -0.000653331416
       4        0.000555495020    -0.000379637338     0.000633349662
       5       -0.000010182287    -0.000010943912    -0.000030474035
       6       -0.000005117359    -0.000021571150    -0.000001181380
       7       -0.000403578749    -0.000125846986     0.001408251018
       8        0.000005630146     0.000003486027     0.000007122492
       9        0.000015063499     0.000020375151     0.000034491954
      10        0.000212574370     0.000177329373    -0.001369406905

  **** Optimization is complete! (in 7 steps) ****
    Final optimized geometry and variables:
    Molecular point group: c1

    Geometry (in Angstrom), charge = 0, multiplicity = 1:

    H            2.283595465763    -0.243071186991    -0.357618443772
    O            1.510608272987    -0.191646757335     0.172833576040
    C            0.554732604340     0.624052772653    -0.441351571328
    C           -0.766119057562     0.463378867005     0.271324179626
    H            0.424816453106     0.358008254015    -1.486235801547
    H            0.852236337254     1.669813584087    -0.388383530201
    O           -1.306468155232    -0.806059636485     0.022662109988
    H           -1.435515473800     1.244426265982    -0.078571491953
    H           -0.614415465694     0.603100138139     1.336905152172
    H           -2.233626841671    -0.745814806248    -0.104267265155

  Mulliken Charges: (a.u.)
   Center  Symbol    Alpha    Beta     Spin     Total
       1     H     0.39523  0.39523  0.00000  0.20954
       2     O     4.19427  4.19427  0.00000 -0.38854
       3     C     2.95678  2.95678  0.00000  0.08645
       4     C     2.96385  2.96385  0.00000  0.07230
       5     H     0.47453  0.47453  0.00000  0.05095
       6     H     0.47883  0.47883  0.00000  0.04233
       7     O     4.19772  4.19772  0.00000 -0.39545
       8     H     0.47703  0.47703  0.00000  0.04594
       9     H     0.46856  0.46856  0.00000  0.06288
      10     H     0.39320  0.39320  0.00000  0.21360

   Total alpha = 17.00000, Total beta = 17.00000, Total charge = -0.00000

*** Psi4 exiting successfully. Buy a developer a beer!
