  ==> Input File <==

--------------------------------------------------------------------------
set {
	reference rhf
	basis 6-31G*
}

set_num_threads( 4 )
memory 2 gb

molecule MOL {
0 1

O	 -2.474993	 -0.466623	 1.311447
C	 -1.420639	 -0.316092	 1.850069
C	 -0.161714	 -0.953588	 1.288810
C	 -1.277596	 0.536708	 3.090893
C	 0.379448	 -0.143569	 0.099626
H	 -0.419021	 -1.953939	 0.958062
H	 0.600203	 -1.037260	 2.058556
C	 1.631333	 -0.777471	 -0.511575
H	 -0.408170	 -0.063035	 -0.641019
H	 0.612342	 0.870009	 0.422374
C	 2.915987	 -0.544314	 0.291766
H	 1.766672	 -0.399098	 -1.523130
H	 1.471257	 -1.849544	 -0.605828
C	 3.373361	 0.914346	 0.347591
H	 3.708709	 -1.142521	 -0.150311
H	 2.780642	 -0.921148	 1.303579
H	 3.506512	 1.320010	 -0.651625
H	 4.322697	 0.999599	 0.867103
H	 2.660624	 1.545032	 0.868198
H	 -0.998520	 -0.089445	 3.934287
H	 -2.212276	 1.034934	 3.307520
H	 -0.488344	 1.271945	 2.963177

	symmetry c1
}
set optking {
	frozen_dihedral = ("
		3 5 8 12
	")
}

ee = optimize('scf')
oeprop('DIPOLE', 'QUADRUPOLE', 'MULLIKEN_CHARGES')
f=open( 'psi4out.xyz', 'w' )
f.write( "22  " )
f.write( str(ee) + "\n" )
f.write( MOL.save_string_xyz() )
f.close()
--------------------------------------------------------------------------

    Molecular point group: c1
  Charge       = 0
  Multiplicity = 1
  Basis Set: 6-31G*
  Basis Set:
  @DF-RHF Final Energy:  -348.09575165501258
    Total Energy =                       -348.0957516550124637
    Molecular point group: c1
  Basis Set: 6-31G*
  Basis Set:
  Basis Set: 6-31G*
  Basis Set:
  @DF-RHF Final Energy:  -348.09589353619572
    Total Energy =                       -348.0958935361954332
  Basis Set: 6-31G*
  Basis Set:
  Basis Set: 6-31G*
  Basis Set:
  @DF-RHF Final Energy:  -348.09608685797565
    Total Energy =                       -348.0960868579760472
  Basis Set: 6-31G*
  Basis Set:
  Basis Set: 6-31G*
  Basis Set:
  @DF-RHF Final Energy:  -348.09615895508779
    Total Energy =                       -348.0961589550879580
  Basis Set: 6-31G*
  Basis Set:
  @DF-RHF Final Energy:  -348.09620011664578
    Total Energy =                       -348.0962001166458322
  Basis Set: 6-31G*
  Basis Set:
  @DF-RHF Final Energy:  -348.09620957498953
    Total Energy =                       -348.0962095749893592
  Basis Set: 6-31G*
  Basis Set:
  Basis Set: 6-31G*
  Basis Set:
  @DF-RHF Final Energy:  -348.09621427977009
    Total Energy =                       -348.0962142797700380
  Basis Set: 6-31G*
  Basis Set:
  Basis Set: 6-31G*
  Basis Set:
  @DF-RHF Final Energy:  -348.09621672760579
    Total Energy =                       -348.0962167276060200
  Basis Set: 6-31G*
  Basis Set:
  Charge       = 0
  Multiplicity = 1
  Basis Set: 6-31G*
  Basis Set:

    Orbital Energies (a.u.)
    -----------------------

    Doubly Occupied:

       1A    -20.547406     2A    -11.324431     3A    -11.229794
       4A    -11.228827     5A    -11.228295     6A    -11.223194
       7A    -11.222593     8A    -11.215069     9A     -1.393137
      10A     -1.095926    11A     -1.043681    12A     -0.999754
      13A     -0.940296    14A     -0.863315    15A     -0.781631
      16A     -0.734896    17A     -0.661311    18A     -0.650733
      19A     -0.622639    20A     -0.613549    21A     -0.605450
      22A     -0.576709    23A     -0.565101    24A     -0.551919
      25A     -0.530527    26A     -0.522571    27A     -0.508462
      28A     -0.485977    29A     -0.465987    30A     -0.463754
      31A     -0.459714    32A     -0.396999

  @DF-RHF Final Energy:  -348.09621743211790

   => Energetics <=

    Nuclear Repulsion Energy =            377.0881763140470184
    One-Electron Energy =               -1218.8614908365443625
    Two-Electron Energy =                 493.6770970903795046
    DFT Exchange-Correlation Energy =       0.0000000000000000
    Empirical Dispersion Energy =           0.0000000000000000
    PCM Polarization Energy =               0.0000000000000000
    EFP Energy =                            0.0000000000000000
    Total Energy =                       -348.0962174321178395
    Molecular point group: c1
  Basis Set: 6-31G*
  Basis Set:

  -Total Gradient:
     Atom            X                  Y                   Z
    ------   -----------------  -----------------  -----------------
       1        0.000014790756     0.000006350321    -0.000028078268
       2       -0.000015826384     0.000026775355     0.000004635237
       3       -0.000903994799    -0.000804569026    -0.000945419512
       4       -0.000026712258    -0.000040848928     0.000029173260
       5        0.000955785252     0.000766433720     0.001176622255
       6        0.000027627366    -0.000017494862     0.000007056247
       7       -0.000026555992     0.000008101272    -0.000005308921
       8        0.001071899841     0.001629131774     0.000564883865
       9       -0.000014289890     0.000034204902     0.000037621679
      10       -0.000013606222    -0.000007233238    -0.000006222458
      11        0.000026147938    -0.000014004255    -0.000017770302
      12       -0.001149883620    -0.001613146760    -0.000790991442
      13        0.000003178314     0.000000126913    -0.000016010995
      14        0.000008295305    -0.000004983884     0.000001633682
      15        0.000009578795     0.000012897266     0.000015415506
      16        0.000013417661     0.000000742322    -0.000005208703
      17        0.000001257873     0.000004647621    -0.000001411675
      18       -0.000005025469     0.000002454083     0.000000589706
      19        0.000005259253    -0.000005184187    -0.000006081758
      20        0.000014343656     0.000007948625    -0.000000855747
      21        0.000000978347     0.000002249904    -0.000001315760
      22        0.000003334290     0.000005401064    -0.000012955898

  **** Optimization is complete! (in 9 steps) ****
    Final optimized geometry and variables:
    Molecular point group: c1

    Geometry (in Angstrom), charge = 0, multiplicity = 1:

    O           -2.865719219209    -0.314956528156     0.341090677971
    C           -1.815911437703    -0.127051204061     0.876625454582
    C           -0.541360977452    -0.748336679861     0.332783027315
    C           -1.695814424114     0.752760794277     2.101309135568
    C            0.001878279205     0.074150314023    -0.848803875195
    H           -0.782749816947    -1.748681298481    -0.008853415623
    H            0.203227848225    -0.828781845182     1.118755612657
    C            1.260292277877    -0.532307347881    -1.485681777050
    H           -0.781938782047     0.126233082462    -1.597364864980
    H            0.192046876297     1.097191525348    -0.535521082494
    C            2.568405675038    -0.333197340034    -0.709713310642
    H            1.374245605999    -0.126651907062    -2.488353140723
    H            1.093446306609    -1.598734753717    -1.621646280412
    C            3.059586718046     1.114823259287    -0.660070903002
    H            3.336149466954    -0.943442014930    -1.178300512409
    H            2.462800039856    -0.714861692825     0.303072693478
    H            3.188113864857     1.516858151279    -1.661136407032
    H            4.017405767685     1.179010860969    -0.153222071219
    H            2.369384217314     1.763675618584    -0.130690798306
    H           -1.414858586690     0.147408955710     2.959116398752
    H           -2.639886070330     1.240405366516     2.300499811976
    H           -0.916922342791     1.497569756975     1.966246673590

  Mulliken Charges: (a.u.)
   Center  Symbol    Alpha    Beta     Spin     Total
       1     O     4.26218  4.26218  0.00000 -0.52436
       2     C     2.73698  2.73698  0.00000  0.52605
       3     C     3.20102  3.20102  0.00000 -0.40204
       4     C     3.28943  3.28943  0.00000 -0.57885
       5     C     3.16599  3.16599  0.00000 -0.33198
       6     H     0.40117  0.40117  0.00000  0.19767
       7     H     0.41602  0.41602  0.00000  0.16796
       8     C     3.15601  3.15601  0.00000 -0.31202
       9     H     0.40407  0.40407  0.00000  0.19185
      10     H     0.41841  0.41841  0.00000  0.16318
      11     C     3.15496  3.15496  0.00000 -0.30993
      12     H     0.41802  0.41802  0.00000  0.16396
      13     H     0.41920  0.41920  0.00000  0.16161
      14     C     3.24070  3.24070  0.00000 -0.48140
      15     H     0.41831  0.41831  0.00000  0.16338
      16     H     0.42313  0.42313  0.00000  0.15374
      17     H     0.42015  0.42015  0.00000  0.15969
      18     H     0.41784  0.41784  0.00000  0.16432
      19     H     0.42245  0.42245  0.00000  0.15511
      20     H     0.40684  0.40684  0.00000  0.18633
      21     H     0.39700  0.39700  0.00000  0.20601
      22     H     0.41014  0.41014  0.00000  0.17973

   Total alpha = 32.00000, Total beta = 32.00000, Total charge = -0.00000
