  ==> Input File <==

--------------------------------------------------------------------------
set {
	reference rhf
	basis 6-31G*
}

set_num_threads( 1 )
memory 2 gb

molecule MOL {
0 1

H	 -2.499100	 -0.730091	 -0.745082
O	 -2.347518	 -0.290803	 0.079804
C	 -1.184022	 0.487508	 -0.006784
C	 0.062599	 -0.378592	 0.031606
H	 -1.176523	 1.099369	 -0.904519
H	 -1.187323	 1.153111	 0.844927
O	 1.171513	 0.459272	 -0.058250
H	 0.050699	 -1.089204	 -0.797170
H	 0.078739	 -0.954914	 0.954740
C	 0.956266	 1.625568	 -0.788021
H	 0.173662	 2.235833	 -0.341103
H	 1.880675	 2.186256	 -0.788017
H	 0.677056	 1.404885	 -1.816191

	symmetry c1
}
set optking {
	frozen_dihedral = ("
		8 4 3 5,
		1 2 3 5,
		4 7 10 13
	")
}

ee = energy('scf')
oeprop('DIPOLE', 'QUADRUPOLE', 'MULLIKEN_CHARGES')
f=open( 'psi4out.xyz', 'w' )
f.write( "13  " )
f.write( str(ee) + "\n" )
f.write( MOL.save_string_xyz() )
f.close()
--------------------------------------------------------------------------

    Molecular point group: c1

    Geometry (in Angstrom), charge = 0, multiplicity = 1:

       Center              X                  Y                   Z               Mass
    ------------   -----------------  -----------------  -----------------  -----------------
           H         -2.199178415213    -1.109503126275    -0.581587428488     1.007825032070
           O         -2.047596415213    -0.670215126275     0.243298571512    15.994914619560
           C         -0.884100415213     0.108095873725     0.156710571512    12.000000000000
           C          0.362520584787    -0.758004126275     0.195100571512    12.000000000000
           H         -0.876601415213     0.719956873725    -0.741024428488     1.007825032070
           H         -0.887401415213     0.773698873725     1.008421571512     1.007825032070
           O          1.471434584787     0.079859873725     0.105244571512    15.994914619560
           H          0.350620584787    -1.468616126275    -0.633675428488     1.007825032070
           H          0.378660584787    -1.334326126275     1.118234571512     1.007825032070
           C          1.256187584787     1.246155873725    -0.624526428488    12.000000000000
           H          0.473583584787     1.856420873725    -0.177608428488     1.007825032070
           H          2.180596584787     1.806843873725    -0.624522428488     1.007825032070
           H          0.976977584787     1.025472873725    -1.652696428488     1.007825032070

  Charge       = 0
  Multiplicity = 1
  Basis Set: 6-31G*
  Basis Set:

    Orbital Energies (a.u.)
    -----------------------

    Doubly Occupied:

       1A    -20.562364     2A    -20.560398     3A    -11.272764
       4A    -11.271921     5A    -11.271234     6A     -1.391958
       7A     -1.367366     8A     -1.010150     9A     -0.951616
      10A     -0.825444    11A     -0.720843    12A     -0.683410
      13A     -0.663113    14A     -0.632562    15A     -0.589645
      16A     -0.575146    17A     -0.544101    18A     -0.513741
      19A     -0.496686    20A     -0.432424    21A     -0.408387

  @DF-RHF Final Energy:  -267.92843227229503

   => Energetics <=

    Nuclear Repulsion Energy =            196.6517725077181638
    One-Electron Energy =                -755.6697576466521014
    Two-Electron Energy =                 291.0895528666388827
    DFT Exchange-Correlation Energy =       0.0000000000000000
    Empirical Dispersion Energy =           0.0000000000000000
    PCM Polarization Energy =               0.0000000000000000
    EFP Energy =                            0.0000000000000000
    Total Energy =                       -267.9284322722950265

  Mulliken Charges: (a.u.)
   Center  Symbol    Alpha    Beta     Spin     Total
       1     H     0.28138  0.28138  0.00000  0.43724
       2     O     4.37491  4.37491  0.00000 -0.74982
       3     C     3.02166  3.02166  0.00000 -0.04331
       4     C     2.99086  2.99086  0.00000  0.01828
       5     H     0.42186  0.42186  0.00000  0.15629
       6     H     0.40708  0.40708  0.00000  0.18585
       7     O     4.30543  4.30543  0.00000 -0.61086
       8     H     0.43459  0.43459  0.00000  0.13082
       9     H     0.40854  0.40854  0.00000  0.18293
      10     C     3.09627  3.09627  0.00000 -0.19254
      11     H     0.42195  0.42195  0.00000  0.15611
      12     H     0.40723  0.40723  0.00000  0.18554
      13     H     0.42825  0.42825  0.00000  0.14349

   Total alpha = 21.00000, Total beta = 21.00000, Total charge =  0.00000
