                              Psi4 1.0.54 Driver

  ==> Input File <==

--------------------------------------------------------------------------
set {
	reference rhf
	basis cc-pvtz
}

set_num_threads( 4 )
memory 2 gb

molecule MOL {
0 1

H	 -3.034039	 -0.667848	 0.004703
O	 -2.240597	 -1.171748	 0.000934
C	 -1.159675	 -0.364500	 0.000370
C	 -1.220594	 0.954376	 0.401953
C	 0.040745	 -0.911365	 -0.426228
H	 -2.150529	 1.380896	 0.731135
C	 -0.067775	 1.720049	 0.370682
H	 0.053552	 -1.939036	 -0.733905
C	 1.189841	 -0.147065	 -0.454523
H	 -0.111833	 2.747403	 0.679510
C	 1.127247	 1.183390	 -0.052079
C	 2.500306	 -0.748327	 -0.895894
H	 2.011462	 1.791830	 -0.072714
H	 3.038053	 -0.071942	 -1.548698
H	 2.348526	 -1.679593	 -1.424526
H	 3.135128	 -0.950922	 -0.039974

	symmetry c1
}
set optking {
	frozen_dihedral = ("
		5 3 2 1
	")
}

ee,wfn = optimize('scf', return_wfn=True)
oeprop( wfn, 'DIPOLE', 'QUADRUPOLE', 'MULLIKEN_CHARGES')
f=open( 'psi4out.xyz', 'w' )
f.write( "16  " )
f.write( str(ee) + "\n" )
f.write( MOL.save_string_xyz() )
f.close()
--------------------------------------------------------------------------

    Molecular point group: c1
  Charge       = 0
  Multiplicity = 1
  Basis Set: CC-PVTZ
  Basis Set:
  @DF-RHF Final Energy:  -344.72021305542091
    Total Energy =                       -344.7202130554207997
    Molecular point group: c1
  Basis Set: CC-PVTZ
  Basis Set:
  Basis Set: CC-PVTZ
  Basis Set:
  @DF-RHF Final Energy:  -344.72022824561947
    Total Energy =                       -344.7202282456196372
  Basis Set: CC-PVTZ
  Basis Set:
  Basis Set: CC-PVTZ
  Basis Set:
  @DF-RHF Final Energy:  -344.72023131201513
    Total Energy =                       -344.7202313120151302
  Basis Set: CC-PVTZ
  Basis Set:
  Charge       = 0
  Multiplicity = 1
  Basis Set: CC-PVTZ
  Basis Set:

    Orbital Energies (a.u.)
    -----------------------

    Doubly Occupied:

       1A    -20.581340     2A    -11.294222     3A    -11.240537
       4A    -11.232681     5A    -11.219776     6A    -11.219033
       7A    -11.214238     8A    -11.213448     9A     -1.411627
      10A     -1.154179    11A     -1.046288    12A     -1.008507
      13A     -0.938663    14A     -0.827536    15A     -0.826182
      16A     -0.717670    17A     -0.684143    18A     -0.657578
      19A     -0.613428    20A     -0.595788    21A     -0.575239
      22A     -0.571232    23A     -0.565030    24A     -0.532741
      25A     -0.507113    26A     -0.484723    27A     -0.472290
      28A     -0.333390    29A     -0.311627

  @DF-RHF Final Energy:  -344.72023158339709

   => Energetics <=

    Nuclear Repulsion Energy =            346.3505067141362588
    One-Electron Energy =               -1154.0409799757408109
    Two-Electron Energy =                 462.9702416782075716
    DFT Exchange-Correlation Energy =       0.0000000000000000
    Empirical Dispersion Energy =           0.0000000000000000
    PCM Polarization Energy =               0.0000000000000000
    EFP Energy =                            0.0000000000000000
    Total Energy =                       -344.7202315833969806
    Molecular point group: c1
  Basis Set: CC-PVTZ
  Basis Set:

  -Total Gradient:
     Atom            X                  Y                   Z
    ------   -----------------  -----------------  -----------------
       1       -0.000007351951     0.000008975813    -0.001969411445
       2       -0.000114635249     0.000157371898     0.001828200001
       3        0.000391710889    -0.000496868496     0.001469345107
       4       -0.000023360152    -0.000065917062    -0.000011774531
       5       -0.000224584839     0.000409879028    -0.001321173694
       6        0.000004074155     0.000000760992     0.000005059834
       7        0.000088313839     0.000010942474    -0.000002391429
       8       -0.000008092814    -0.000006670533    -0.000013039348
       9       -0.000033339698    -0.000105112682     0.000018091108
      10       -0.000009566176     0.000003470476    -0.000009973524
      11       -0.000057663371     0.000073006153     0.000014635213
      12       -0.000003686011     0.000008621457    -0.000006109782
      13        0.000003821093    -0.000003130417     0.000003525737
      14        0.000001915901     0.000000922342    -0.000006705796
      15       -0.000000298989    -0.000003547755     0.000002542200
      16       -0.000007256631     0.000007296314    -0.000000819650

  **** Optimization is complete! (in 4 steps) ****
    Final optimized geometry and variables:
    Molecular point group: c1

    Geometry (in Angstrom), charge = 0, multiplicity = 1:

    H           -3.019010321252    -0.689510459782     0.163677243115
    O           -2.225941808684    -1.194044125374     0.155239375193
    C           -1.143209029837    -0.385352017142     0.143726457565
    C           -1.205163131340     0.934341110532     0.542322100493
    C            0.054944285760    -0.930028697224    -0.289822808807
    H           -2.133487333904     1.356532286008     0.880770218421
    C           -0.054270660169     1.702137986605     0.504109216542
    H            0.066351840850    -1.956365547513    -0.602014977217
    C            1.205008958285    -0.166155077110    -0.317470014365
    H           -0.098584370985     2.730352610544     0.809990692976
    C            1.141048571338     1.164649085010     0.081927259383
    C            2.514734623445    -0.766496502193    -0.762239935880
    H            2.024648399075     1.773989729907     0.058726434841
    H            3.051588201988    -0.089330979877    -1.414989429983
    H            2.361918952387    -1.697039321574    -1.291922883330
    H            3.150911292382    -0.970728225014     0.092294530433

  Mulliken Charges: (a.u.)
   Center  Symbol    Alpha    Beta     Spin     Total
       1     H     0.38654  0.38654  0.00000  0.22692
       2     O     4.17773  4.17773  0.00000 -0.35547
       3     C     2.84026  2.84026  0.00000  0.31948
       4     C     3.14635  3.14635  0.00000 -0.29270
       5     C     3.14052  3.14052  0.00000 -0.28104
       6     H     0.43307  0.43307  0.00000  0.13385
       7     C     3.05746  3.05746  0.00000 -0.11491
       8     H     0.42172  0.42172  0.00000  0.15656
       9     C     2.93592  2.93592  0.00000  0.12816
      10     H     0.42292  0.42292  0.00000  0.15415
      11     C     3.11779  3.11779  0.00000 -0.23557
      12     C     3.14632  3.14632  0.00000 -0.29263
      13     H     0.42781  0.42781  0.00000  0.14438
      14     H     0.44855  0.44855  0.00000  0.10291
      15     H     0.45028  0.45028  0.00000  0.09945
      16     H     0.44677  0.44677  0.00000  0.10646

   Total alpha = 29.00000, Total beta = 29.00000, Total charge =  0.00000

*** Psi4 exiting successfully. Buy a developer a beer!
