  ==> Input File <==

--------------------------------------------------------------------------
set {
	reference rhf
	basis 6-31G*
}

set_num_threads( 4 )
memory 2 gb

molecule MOL {
0 1

H	 3.893188	 0.355400	 -0.101367
N	 3.092854	 -0.246221	 -0.068770
C	 1.865559	 0.531981	 0.018834
H	 3.199514	 -0.826043	 0.741946
C	 0.645745	 -0.382037	 -0.029944
H	 1.841966	 1.207024	 -0.831236
H	 1.815756	 1.155410	 0.915079
C	 -0.679275	 0.379305	 0.025956
H	 0.698998	 -0.976915	 -0.937203
H	 0.693479	 -1.083846	 0.802235
C	 -1.691106	 -0.094471	 -1.019084
H	 -0.490773	 1.442405	 -0.115943
H	 -1.116444	 0.277722	 1.018131
C	 -3.012142	 0.671784	 -0.962271
H	 -1.257014	 0.007322	 -2.011262
H	 -1.883446	 -1.155975	 -0.878123
H	 -2.857287	 1.733347	 -1.133791
H	 -3.707780	 0.313614	 -1.714870
H	 -3.488586	 0.560911	 0.007832

	symmetry c1
}
set optking {
	frozen_dihedral = ("
		12 8 5 9
	")
}

ee = optimize('scf')
oeprop('DIPOLE', 'QUADRUPOLE', 'MULLIKEN_CHARGES')
f=open( 'psi4out.xyz', 'w' )
f.write( "19  " )
f.write( str(ee) + "\n" )
f.write( MOL.save_string_xyz() )
f.close()
--------------------------------------------------------------------------

    Molecular point group: c1
  Charge       = 0
  Multiplicity = 1
  Basis Set: 6-31G*
  Basis Set:
  @DF-RHF Final Energy:  -251.34715397482964
    Total Energy =                       -251.3471539748294958
    Molecular point group: c1
  Basis Set: 6-31G*
  Basis Set:
  Basis Set: 6-31G*
  Basis Set:
  @DF-RHF Final Energy:  -251.34737180842009
    Total Energy =                       -251.3473718084201209
  Basis Set: 6-31G*
  Basis Set:
  Basis Set: 6-31G*
  Basis Set:
  @DF-RHF Final Energy:  -251.34742560055969
    Total Energy =                       -251.3474256005595748
  Basis Set: 6-31G*
  Basis Set:
  Basis Set: 6-31G*
  Basis Set:
  @DF-RHF Final Energy:  -251.34742779148266
    Total Energy =                       -251.3474277914828008
  Basis Set: 6-31G*
  Basis Set:
  Basis Set: 6-31G*
  Basis Set:
  @DF-RHF Final Energy:  -251.34743627557347
    Total Energy =                       -251.3474362755735001
  Basis Set: 6-31G*
  Basis Set:
  Charge       = 0
  Multiplicity = 1
  Basis Set: 6-31G*
  Basis Set:

    Orbital Energies (a.u.)
    -----------------------

    Doubly Occupied:

       1A    -15.532528     2A    -11.240305     3A    -11.213904
       4A    -11.212531     5A    -11.209144     6A    -11.207124
       7A     -1.176838     8A     -1.071117     9A     -0.997209
      10A     -0.900167    11A     -0.815492    12A     -0.788834
      13A     -0.661177    14A     -0.636475    15A     -0.622566
      16A     -0.585196    17A     -0.569723    18A     -0.548827
      19A     -0.525522    20A     -0.501191    21A     -0.481238
      22A     -0.466132    23A     -0.453185    24A     -0.450139
      25A     -0.381065

  @DF-RHF Final Energy:  -251.34743629582252

   => Energetics <=

    Nuclear Repulsion Energy =            245.8614024570671006
    One-Electron Energy =                -825.9224195712843084
    Two-Electron Energy =                 328.7135808183947461
    DFT Exchange-Correlation Energy =       0.0000000000000000
    Empirical Dispersion Energy =           0.0000000000000000
    PCM Polarization Energy =               0.0000000000000000
    EFP Energy =                            0.0000000000000000
    Total Energy =                       -251.3474362958224333
    Molecular point group: c1
  Basis Set: 6-31G*
  Basis Set:

  -Total Gradient:
     Atom            X                  Y                   Z
    ------   -----------------  -----------------  -----------------
       1       -0.000003028226     0.000001334112    -0.000004938110
       2       -0.000001381907     0.000005460230    -0.000020034502
       3       -0.000000594777    -0.000006520096     0.000040007845
       4       -0.000008919464     0.000004995335    -0.000001529916
       5        0.001585809185     0.002798328056    -0.001039100513
       6       -0.000002296792    -0.000000449422     0.000004016502
       7        0.000008941788    -0.000003078521     0.000004017690
       8       -0.000658913593    -0.000941114654    -0.003158090702
       9       -0.001212411435    -0.002204533857     0.001378232446
      10        0.000014788854     0.000005340972    -0.000000334845
      11        0.000000110441     0.000011848488     0.000010179821
      12        0.000286289956     0.000331066155     0.002789502676
      13       -0.000002704345    -0.000001811041    -0.000003019467
      14       -0.000005315703    -0.000004452992    -0.000002621094
      15        0.000000589062     0.000004147863     0.000004187764
      16        0.000000606923     0.000000540111    -0.000000328213
      17        0.000001990823    -0.000002203310    -0.000001051036
      18       -0.000004301461     0.000000990764     0.000000904473
      19        0.000000740671     0.000000111808    -0.000000000817

  **** Optimization is complete! (in 6 steps) ****
    Final optimized geometry and variables:
    Molecular point group: c1

    Geometry (in Angstrom), charge = 0, multiplicity = 1:

    H            3.840102518229     0.188235493519     0.285263460982
    N            3.034179510516    -0.406555528559     0.300383540305
    C            1.811710381355     0.380808139699     0.350385713296
    H            3.114716935948    -0.983374841459     1.116243000352
    C            0.585873585099    -0.521998229590     0.272999057924
    H            1.814262035249     1.051751517603    -0.503449621283
    H            1.740379824443     1.009735618763     1.241632261486
    C           -0.748477841356     0.248812327310     0.324402122974
    H            0.648144590960    -1.122041394032    -0.629772240242
    H            0.624656131664    -1.235715436120     1.094132425309
    C           -1.778249951583    -0.236259341493    -0.696929538791
    H           -0.567891820062     1.313045196004     0.181200227700
    H           -1.176725888359     0.168769202432     1.321185152741
    C           -3.107041695484     0.512529849864    -0.609552582167
    H           -1.366211059164    -0.129163000470    -1.697976842419
    H           -1.952028685267    -1.300504958998    -0.552076402835
    H           -2.969354286186     1.576610009163    -0.780790607143
    H           -3.813975215325     0.147771119571    -1.348395674101
    H           -3.561321379507     0.392761234314     0.370093350377

  Mulliken Charges: (a.u.)
   Center  Symbol    Alpha    Beta     Spin     Total
       1     H     0.33239  0.33239  0.00000  0.33522
       2     N     3.92215  3.92215  0.00000 -0.84430
       3     C     3.06256  3.06256  0.00000 -0.12512
       4     H     0.33526  0.33526  0.00000  0.32948
       5     C     3.15382  3.15382  0.00000 -0.30765
       6     H     0.42064  0.42064  0.00000  0.15872
       7     H     0.43426  0.43426  0.00000  0.13149
       8     C     3.15771  3.15771  0.00000 -0.31543
       9     H     0.41095  0.41095  0.00000  0.17809
      10     H     0.42568  0.42568  0.00000  0.14865
      11     C     3.15217  3.15217  0.00000 -0.30434
      12     H     0.42293  0.42293  0.00000  0.15414
      13     H     0.42219  0.42219  0.00000  0.15561
      14     C     3.24011  3.24011  0.00000 -0.48022
      15     H     0.42170  0.42170  0.00000  0.15659
      16     H     0.42208  0.42208  0.00000  0.15584
      17     H     0.42204  0.42204  0.00000  0.15593
      18     H     0.41925  0.41925  0.00000  0.16150
      19     H     0.42211  0.42211  0.00000  0.15578

   Total alpha = 25.00000, Total beta = 25.00000, Total charge =  0.00000
