  ==> Input File <==

--------------------------------------------------------------------------
set {
	reference rhf
	basis 6-31G*
}

set_num_threads( 4 )
memory 2 gb

molecule MOL {
0 1

H	 0.748973	 0.187877	 2.370836
C	 -0.214392	 0.206753	 1.880045
O	 0.000000	 0.000000	 0.521119
H	 -0.842901	 -0.572826	 2.307739
H	 -0.686248	 1.170072	 2.067281
C	 -1.165642	 0.000000	 -0.238270
H	 -1.228672	 0.883184	 -0.872070
H	 -2.003012	 0.000000	 0.445920
H	 -1.228672	 -0.883184	 -0.872070

	symmetry c1
}
set optking {
	frozen_dihedral = ("
		2 3 6 7
	")
}

ee = optimize('scf')
oeprop('DIPOLE', 'QUADRUPOLE', 'MULLIKEN_CHARGES')
f=open( 'psi4out.xyz', 'w' )
f.write( "9  " )
f.write( str(ee) + "\n" )
f.write( MOL.save_string_xyz() )
f.close()
--------------------------------------------------------------------------

    Molecular point group: c1
  Charge       = 0
  Multiplicity = 1
  Basis Set: 6-31G*
  Basis Set:
  @DF-RHF Final Energy:  -154.05952406902560
    Total Energy =                       -154.0595240690255707
    Molecular point group: c1
  Basis Set: 6-31G*
  Basis Set:
  Basis Set: 6-31G*
  Basis Set:
  @DF-RHF Final Energy:  -154.06050288400519
    Total Energy =                       -154.0605028840051602
  Basis Set: 6-31G*
  Basis Set:
  Basis Set: 6-31G*
  Basis Set:
  @DF-RHF Final Energy:  -154.06083781376134
    Total Energy =                       -154.0608378137613954
  Basis Set: 6-31G*
  Basis Set:
  Charge       = 0
  Multiplicity = 1
  Basis Set: 6-31G*
  Basis Set:

    Orbital Energies (a.u.)
    -----------------------

    Doubly Occupied:

       1A    -20.552363     2A    -11.265610     3A    -11.264609
       4A     -1.374216     5A     -0.974968     6A     -0.872734
       7A     -0.656673     8A     -0.653132     9A     -0.642860
      10A     -0.558439    11A     -0.528280    12A     -0.473135
      13A     -0.411599

  @DF-RHF Final Energy:  -154.06084080564096

   => Energetics <=

    Nuclear Repulsion Energy =             84.4874181995647433
    One-Electron Energy =                -376.6392802069197501
    Two-Electron Energy =                 138.0910212017140282
    DFT Exchange-Correlation Energy =       0.0000000000000000
    Empirical Dispersion Energy =           0.0000000000000000
    PCM Polarization Energy =               0.0000000000000000
    EFP Energy =                            0.0000000000000000
    Total Energy =                       -154.0608408056409928
    Molecular point group: c1
  Basis Set: 6-31G*
  Basis Set:

  -Total Gradient:
     Atom            X                  Y                   Z
    ------   -----------------  -----------------  -----------------
       1        0.000008624630    -0.000001893442    -0.000005731962
       2       -0.000128826570    -0.001338615601     0.000246990201
       3        0.000315834172     0.001812037829    -0.000774803171
       4       -0.000007349720    -0.000002703791    -0.000045785558
       5        0.000003157656    -0.000024990827    -0.000025454543
       6       -0.001070887449     0.000401005209     0.001847499320
       7        0.000933078915    -0.000862438986    -0.001206734964
       8       -0.000066918552     0.000007036797    -0.000004117059
       9        0.000013286917     0.000010562812    -0.000031862265

  **** Optimization is complete! (in 4 steps) ****
    Final optimized geometry and variables:
    Molecular point group: c1

    Geometry (in Angstrom), charge = 0, multiplicity = 1:

    H            1.257556920271     0.104551295959     1.624519118349
    C            0.281595383434     0.140554130408     1.159989928125
    O            0.461504547143    -0.074041679166    -0.203621335271
    H           -0.347103483736    -0.627339631469     1.606299690160
    H           -0.164732180996     1.112709690855     1.361224326383
    C           -0.704141966564    -0.071881366472    -0.973646481957
    H           -0.736656600497     0.812040674318    -1.603503634628
    H           -1.599941550200    -0.098943022453    -0.360232136252
    H           -0.702345397384    -0.945598663544    -1.615448498747

  Mulliken Charges: (a.u.)
   Center  Symbol    Alpha    Beta     Spin     Total
       1     H     0.41271  0.41271  0.00000  0.17457
       2     C     3.07892  3.07892  0.00000 -0.15783
       3     O     4.30008  4.30008  0.00000 -0.60016
       4     H     0.42991  0.42991  0.00000  0.14019
       5     H     0.43026  0.43026  0.00000  0.13948
       6     C     3.07769  3.07769  0.00000 -0.15537
       7     H     0.42240  0.42240  0.00000  0.15521
       8     H     0.43007  0.43007  0.00000  0.13986
       9     H     0.41797  0.41797  0.00000  0.16407

   Total alpha = 13.00000, Total beta = 13.00000, Total charge =  0.00000
