                              Psi4 1.0.54 Driver

  ==> Input File <==

--------------------------------------------------------------------------
set {
	reference rhf
	basis cc-pvtz
}

set_num_threads( 4 )
memory 2 gb

molecule MOL {
0 1

H	 2.700023	 -0.495652	 -1.032409
N	 2.433987	 -0.362316	 -0.080024
C	 1.263552	 0.494993	 0.021953
H	 3.215657	 0.044377	 0.390007
C	 -0.016533	 -0.325589	 -0.026925
H	 1.280915	 1.180773	 -0.818522
H	 1.263064	 1.106893	 0.925038
C	 -1.280353	 0.525521	 0.047747
H	 -0.016686	 -0.912532	 -0.939714
H	 -0.014099	 -1.037598	 0.796369
C	 -2.560681	 -0.301323	 -0.007747
H	 -1.279957	 1.241025	 -0.770189
H	 -1.270445	 1.110526	 0.963468
H	 -2.617064	 -0.872870	 -0.928010
H	 -3.439525	 0.331102	 0.043462
H	 -2.609427	 -1.002736	 0.818585

	symmetry c1
}
set optking {
	frozen_dihedral = ("
		1 2 3 6
	")
}

ee,wfn = optimize('scf', return_wfn=True)
oeprop( wfn, 'DIPOLE', 'QUADRUPOLE', 'MULLIKEN_CHARGES')
f=open( 'psi4out.xyz', 'w' )
f.write( "16  " )
f.write( str(ee) + "\n" )
f.write( MOL.save_string_xyz() )
f.close()
--------------------------------------------------------------------------

    Molecular point group: c1
  Charge       = 0
  Multiplicity = 1
  Basis Set: CC-PVTZ
  Basis Set:
  @DF-RHF Final Energy:  -212.39736736466114
    Total Energy =                       -212.3973673646610791
    Molecular point group: c1
  Basis Set: CC-PVTZ
  Basis Set:
  Basis Set: CC-PVTZ
  Basis Set:
  @DF-RHF Final Energy:  -212.39110683587907
    Total Energy =                       -212.3911068358788441
  Basis Set: CC-PVTZ
  Basis Set:
  Basis Set: CC-PVTZ
  Basis Set:
  @DF-RHF Final Energy:  -212.39872509777885
    Total Energy =                       -212.3987250977789927
  Basis Set: CC-PVTZ
  Basis Set:
  Basis Set: CC-PVTZ
  Basis Set:
  @DF-RHF Final Energy:  -212.39884924738701
    Total Energy =                       -212.3988492473871474
  Basis Set: CC-PVTZ
  Basis Set:
  Basis Set: CC-PVTZ
  Basis Set:
  @DF-RHF Final Energy:  -212.39885439208533
    Total Energy =                       -212.3988543920854113
  Basis Set: CC-PVTZ
  Basis Set:
  Basis Set: CC-PVTZ
  Basis Set:
  @DF-RHF Final Energy:  -212.39885560579822
    Total Energy =                       -212.3988556057980759
  Basis Set: CC-PVTZ
  Basis Set:
  Charge       = 0
  Multiplicity = 1
  Basis Set: CC-PVTZ
  Basis Set:

    Orbital Energies (a.u.)
    -----------------------

    Doubly Occupied:

       1A    -15.527023     2A    -11.238867     3A    -11.211052
       4A    -11.204439     5A    -11.203647     6A     -1.177234
       7A     -1.059220     8A     -0.959216     9A     -0.843153
      10A     -0.788653    11A     -0.673494    12A     -0.627663
      13A     -0.610114    14A     -0.576991    15A     -0.556438
      16A     -0.530302    17A     -0.493075    18A     -0.472278
      19A     -0.466106    20A     -0.460477    21A     -0.383596

  @DF-RHF Final Energy:  -212.39885562913983

   => Energetics <=

    Nuclear Repulsion Energy =            186.2607151279727020
    One-Electron Energy =                -655.1930633332278830
    Two-Electron Energy =                 256.5334925761152363
    DFT Exchange-Correlation Energy =       0.0000000000000000
    Empirical Dispersion Energy =           0.0000000000000000
    PCM Polarization Energy =               0.0000000000000000
    EFP Energy =                            0.0000000000000000
    Total Energy =                       -212.3988556291399163
    Molecular point group: c1
  Basis Set: CC-PVTZ
  Basis Set:

  -Total Gradient:
     Atom            X                  Y                   Z
    ------   -----------------  -----------------  -----------------
       1        0.001129553256     0.002413889397     0.000264202680
       2       -0.001622620384    -0.003524842894    -0.000715795130
       3        0.001271702467     0.002971137237     0.001898414731
       4       -0.000000279914    -0.000006471422    -0.000002895329
       5        0.000002413530     0.000010100174    -0.000007589141
       6       -0.000784816282    -0.001864716013    -0.001427998151
       7        0.000004220495     0.000001496572    -0.000002434278
       8       -0.000001250194    -0.000002894425    -0.000012181944
       9       -0.000003737613     0.000001490947     0.000001447989
      10        0.000002691588     0.000001674138    -0.000003017089
      11       -0.000001204253     0.000001019650     0.000009233184
      12        0.000001533728     0.000000341470    -0.000000983184
      13        0.000000671724    -0.000003569179    -0.000004135034
      14        0.000001908908     0.000004938186     0.000001075036
      15       -0.000000303035    -0.000000048971     0.000003011173
      16       -0.000000484022    -0.000003544866    -0.000000355514

  **** Optimization is complete! (in 7 steps) ****
    Final optimized geometry and variables:
    Molecular point group: c1

    Geometry (in Angstrom), charge = 0, multiplicity = 1:

    H            2.878150230551    -0.022113478830    -0.650810824041
    N            2.453547610917     0.082485708362     0.246114654585
    C            1.142035274138     0.712873760473     0.136788223726
    H            3.074705889672     0.647282998274     0.784552951485
    C            0.039378808579    -0.329573775884     0.002388505847
    H            1.081928667519     1.392049136066    -0.712523735448
    H            0.968228210012     1.303903949206     1.028955183942
    C           -1.353679014537     0.279449795459    -0.121211018530
    H            0.244501329957    -0.947897714936    -0.868491577310
    H            0.082751771926    -0.990867211435     0.861762993841
    C           -2.454369288065    -0.768269189122    -0.250980659124
    H           -1.385677478268     0.941341350935    -0.982823656599
    H           -1.552895897323     0.902367683561     0.747163663041
    H           -2.304199140355    -1.385645959553    -1.130387928198
    H           -3.430959173088    -0.305208216580    -0.334849183025
    H           -2.472100645813    -1.424896334164     0.612317962863

  Mulliken Charges: (a.u.)
   Center  Symbol    Alpha    Beta     Spin     Total
       1     H     0.43040  0.43040  0.00000  0.13920
       2     N     3.69073  3.69073  0.00000 -0.38146
       3     C     3.03955  3.03955  0.00000 -0.07910
       4     H     0.42766  0.42766  0.00000  0.14468
       5     C     3.06758  3.06758  0.00000 -0.13517
       6     H     0.46415  0.46415  0.00000  0.07171
       7     H     0.45629  0.45629  0.00000  0.08743
       8     C     3.09019  3.09019  0.00000 -0.18039
       9     H     0.45966  0.45966  0.00000  0.08069
      10     H     0.45277  0.45277  0.00000  0.09446
      11     C     3.14920  3.14920  0.00000 -0.29841
      12     H     0.45692  0.45692  0.00000  0.08616
      13     H     0.45623  0.45623  0.00000  0.08755
      14     H     0.45518  0.45518  0.00000  0.08965
      15     H     0.44916  0.44916  0.00000  0.10168
      16     H     0.45434  0.45434  0.00000  0.09132

   Total alpha = 21.00000, Total beta = 21.00000, Total charge = -0.00000

*** Psi4 exiting successfully. Buy a developer a beer!
