  ==> Input File <==

--------------------------------------------------------------------------
set {
	reference rhf
	basis 6-31G*
}

set_num_threads( 4 )
memory 2 gb

molecule MOL {
0 1

O	 3.476979	 1.156419	 0.481053
C	 2.835298	 0.156971	 0.530156
C	 1.362172	 0.071466	 0.848553
O	 3.347903	 -1.046386	 0.304773
C	 0.723488	 1.434932	 1.103816
H	 0.888344	 -0.451885	 0.024670
H	 1.255802	 -0.578411	 1.713447
C	 -0.746241	 1.357737	 1.530934
H	 0.815560	 2.046784	 0.211471
H	 1.291311	 1.943680	 1.875292
C	 -1.702977	 0.828568	 0.458672
H	 -1.065999	 2.356343	 1.819492
H	 -0.831859	 0.743498	 2.426138
C	 -3.168933	 0.874298	 0.894425
H	 -1.579922	 1.414330	 -0.451031
H	 -1.445595	 -0.195911	 0.199503
C	 -4.133697	 0.343031	 -0.167233
H	 -3.438534	 1.899356	 1.143032
H	 -3.290607	 0.297571	 1.810002
C	 -5.595883	 0.395717	 0.274284
H	 -4.012717	 0.917585	 -1.083145
H	 -3.868507	 -0.682940	 -0.413885
H	 -6.254729	 0.012697	 -0.498907
H	 -5.902267	 1.414347	 0.495002
H	 -5.756708	 -0.198030	 1.169758
C	 4.728119	 -1.109107	 -0.004993
H	 4.882018	 -1.033965	 -1.071845
H	 5.068212	 -2.067527	 0.355250
H	 5.265056	 -0.311663	 0.488280

	symmetry c1
}
set optking {
	frozen_dihedral = ("
		2 4 26 27
	")
}

ee = optimize('scf')
oeprop('DIPOLE', 'QUADRUPOLE', 'MULLIKEN_CHARGES')
f=open( 'psi4out.xyz', 'w' )
f.write( "29  " )
f.write( str(ee) + "\n" )
f.write( MOL.save_string_xyz() )
f.close()
--------------------------------------------------------------------------

    Molecular point group: c1
  Charge       = 0
  Multiplicity = 1
  Basis Set: 6-31G*
  Basis Set:
  @DF-RHF Final Energy:  -501.04275671613209
    Total Energy =                       -501.0427567161318620
    Molecular point group: c1
  Basis Set: 6-31G*
  Basis Set:
  Basis Set: 6-31G*
  Basis Set:
  @DF-RHF Final Energy:  -501.04286426740509
    Total Energy =                       -501.0428642674046387
  Basis Set: 6-31G*
  Basis Set:
  Basis Set: 6-31G*
  Basis Set:
  @DF-RHF Final Energy:  -501.04274451594722
    Total Energy =                       -501.0427445159482431
  Basis Set: 6-31G*
  Basis Set:
  Basis Set: 6-31G*
  Basis Set:
  @DF-RHF Final Energy:  -501.04300705048058
    Total Energy =                       -501.0430070504814921
  Basis Set: 6-31G*
  Basis Set:
  Basis Set: 6-31G*
  Basis Set:
  @DF-RHF Final Energy:  -501.04301512879067
    Total Energy =                       -501.0430151287905574
  Basis Set: 6-31G*
  Basis Set:
  Charge       = 0
  Multiplicity = 1
  Basis Set: 6-31G*
  Basis Set:

    Orbital Energies (a.u.)
    -----------------------

    Doubly Occupied:

       1A    -20.602899     2A    -20.544772     3A    -11.372682
       4A    -11.280021     5A    -11.234379     6A    -11.218786
       7A    -11.217438     8A    -11.215843     9A    -11.215727
      10A    -11.214328    11A    -11.208982    12A     -1.467596
      13A     -1.362784    14A     -1.097840    15A     -1.066636
      16A     -1.019545    17A     -0.977612    18A     -0.928519
      19A     -0.861382    20A     -0.799074    21A     -0.790307
      22A     -0.763305    23A     -0.701147    24A     -0.681111
      25A     -0.672171    26A     -0.650804    27A     -0.628731
      28A     -0.604865    29A     -0.594612    30A     -0.580900
      31A     -0.567794    32A     -0.549534    33A     -0.533019
      34A     -0.528832    35A     -0.515051    36A     -0.511871
      37A     -0.496186    38A     -0.477631    39A     -0.470062
      40A     -0.462199    41A     -0.458415    42A     -0.454589
      43A     -0.440558    44A     -0.435377

  @DF-RHF Final Energy:  -501.04301498146367

   => Energetics <=

    Nuclear Repulsion Energy =            609.8540360839371033
    One-Electron Energy =               -1890.8422688806456335
    Two-Electron Energy =                 779.9452178152450870
    DFT Exchange-Correlation Energy =       0.0000000000000000
    Empirical Dispersion Energy =           0.0000000000000000
    PCM Polarization Energy =               0.0000000000000000
    EFP Energy =                            0.0000000000000000
    Total Energy =                       -501.0430149814633296
    Molecular point group: c1
  Basis Set: 6-31G*
  Basis Set:

  -Total Gradient:
     Atom            X                  Y                   Z
    ------   -----------------  -----------------  -----------------
       1       -0.000017560544    -0.000003857763     0.000009673794
       2        0.000310620759    -0.000128301767     0.001400040535
       3        0.000034264133    -0.000026394827     0.000022245542
       4       -0.000469730805    -0.000260755421    -0.002005687584
       5       -0.000006754934     0.000011624299    -0.000047493979
       6        0.000039134732     0.000013987766     0.000000555474
       7        0.000002389222    -0.000006484941    -0.000007368158
       8        0.000005323865    -0.000027347339     0.000005324098
       9       -0.000002442714    -0.000013381857    -0.000008470716
      10       -0.000006052267     0.000024154531     0.000003438634
      11       -0.000012341359     0.000001192968     0.000005848499
      12        0.000004069785    -0.000003032728     0.000018140341
      13        0.000008044731    -0.000020897868    -0.000011716541
      14        0.000001100171     0.000015864727    -0.000003043736
      15        0.000008285153    -0.000004842348    -0.000009569781
      16       -0.000035077198     0.000017101807     0.000016484805
      17        0.000000030700     0.000005038054    -0.000002805919
      18       -0.000003305291     0.000000703230     0.000004259441
      19        0.000003090870    -0.000001269635    -0.000004087161
      20        0.000000196859     0.000001017557     0.000000032622
      21       -0.000000637154    -0.000000691355    -0.000000929092
      22        0.000000562921    -0.000000039169     0.000001019615
      23        0.000000463834     0.000000022414     0.000000050393
      24       -0.000000059204    -0.000000136100     0.000000026253
      25        0.000000079383    -0.000000094170     0.000000004462
      26        0.000275844831     0.002072614594     0.000759597892
      27       -0.000100494474    -0.001661626751    -0.000154958157
      28       -0.000026104014     0.000001549684     0.000005241816
      29       -0.000012941992    -0.000005717592     0.000004146610

  **** Optimization is complete! (in 6 steps) ****
    Final optimized geometry and variables:
    Molecular point group: c1

    Geometry (in Angstrom), charge = 0, multiplicity = 1:

    O            3.328996990311     0.786715045058    -0.083128390148
    C            2.695438721478    -0.217785380047    -0.035884179604
    C            1.223099315491    -0.311318323976     0.284901620908
    O            3.207308757974    -1.421294266277    -0.265626860667
    C            0.577244226967     1.048331864524     0.542271702613
    H            0.751178534392    -0.836317076978    -0.539010467626
    H            1.121392572423    -0.962798290983     1.149093890898
    C           -0.891080410693     0.962539738712     0.972627681360
    H            0.663895758500     1.661241996362    -0.349878746150
    H            1.143757314739     1.559893481656     1.312843391679
    C           -1.848379327397     0.435148384435    -0.100028808440
    H           -1.214346768643     1.958233129033     1.267301573758
    H           -0.971885329629     0.343192195199     1.864763778345
    C           -3.313755724326     0.476337738027     0.338132439959
    H           -1.727944623655     1.024381420999    -1.007834034653
    H           -1.589323996000    -0.587864909920    -0.363229903513
    C           -4.279101007603    -0.052862142551    -0.724021200260
    H           -3.585011343636     1.499915042354     0.591000216078
    H           -3.432871464943    -0.104052194373     1.251727201062
    C           -5.740677879331    -0.005105776150    -0.279920724452
    H           -4.160876991527     0.525530853295    -1.637871256730
    H           -4.012081302398    -1.077276591772    -0.975125895613
    H           -6.399938461533    -0.386656439560    -1.053490706691
    H           -6.048956898391     1.011993531884    -0.054830310396
    H           -5.898717498910    -0.602601507510     0.613554801060
    C            4.591852489173    -1.518046758608    -0.550014274837
    H            4.752075280771    -1.436960186656    -1.616964822223
    H            4.899858570117    -2.497867003992    -0.217093687879
    H            5.147361149263    -0.751483572446    -0.034980455847

  Mulliken Charges: (a.u.)
   Center  Symbol    Alpha    Beta     Spin     Total
       1     O     4.28570  4.28570  0.00000 -0.57140
       2     C     2.60463  2.60463  0.00000  0.79074
       3     C     3.20988  3.20988  0.00000 -0.41976
       4     O     4.30854  4.30854  0.00000 -0.61708
       5     C     3.15378  3.15378  0.00000 -0.30757
       6     H     0.39875  0.39875  0.00000  0.20250
       7     H     0.40145  0.40145  0.00000  0.19710
       8     C     3.15663  3.15663  0.00000 -0.31327
       9     H     0.41310  0.41310  0.00000  0.17381
      10     H     0.40882  0.40882  0.00000  0.18236
      11     C     3.15501  3.15501  0.00000 -0.31001
      12     H     0.41829  0.41829  0.00000  0.16343
      13     H     0.42392  0.42392  0.00000  0.15216
      14     C     3.15030  3.15030  0.00000 -0.30060
      15     H     0.42261  0.42261  0.00000  0.15479
      16     H     0.42361  0.42361  0.00000  0.15278
      17     C     3.15145  3.15145  0.00000 -0.30290
      18     H     0.42334  0.42334  0.00000  0.15333
      19     H     0.42400  0.42400  0.00000  0.15200
      20     C     3.23934  3.23934  0.00000 -0.47869
      21     H     0.42280  0.42280  0.00000  0.15440
      22     H     0.42344  0.42344  0.00000  0.15313
      23     H     0.41924  0.41924  0.00000  0.16151
      24     H     0.42155  0.42155  0.00000  0.15689
      25     H     0.42184  0.42184  0.00000  0.15631
      26     C     3.09500  3.09500  0.00000 -0.19000
      27     H     0.41317  0.41317  0.00000  0.17366
      28     H     0.40990  0.40990  0.00000  0.18020
      29     H     0.39991  0.39991  0.00000  0.20018

   Total alpha = 44.00000, Total beta = 44.00000, Total charge = -0.00000
