  ==> Input File <==

--------------------------------------------------------------------------
set {
	reference rhf
	basis 6-31G*
}

set_num_threads( 4 )
memory 2 gb

molecule MOL {
0 1

H	 2.591676	 2.013956	 0.335017
O	 3.341076	 1.666752	 -0.126416
C	 3.569581	 0.339145	 0.272707
C	 2.539767	 -0.640285	 -0.279495
H	 4.553106	 0.084646	 -0.100901
H	 3.608576	 0.269204	 1.359154
C	 1.115811	 -0.397273	 0.226630
H	 2.556196	 -0.582511	 -1.364741
H	 2.852081	 -1.648031	 -0.010655
C	 0.311700	 0.527577	 -0.691452
H	 1.159614	 0.030504	 1.224355
H	 0.595866	 -1.351141	 0.316816
C	 -1.149168	 0.736117	 -0.275861
H	 0.809984	 1.493442	 -0.751981
H	 0.327683	 0.115171	 -1.698113
C	 -1.342761	 1.490438	 1.042471
H	 -1.654408	 1.285922	 -1.067229
H	 -1.646970	 -0.230482	 -0.214888
C	 -2.813795	 1.766095	 1.361077
H	 -0.802667	 2.435133	 0.998209
H	 -0.905278	 0.927553	 1.863490
C	 -3.010217	 2.513312	 2.679693
H	 -3.255666	 2.342220	 0.550942
H	 -3.357006	 0.823981	 1.396111
H	 -2.505485	 3.475200	 2.664196
H	 -4.062308	 2.695308	 2.876207
H	 -2.611354	 1.945571	 3.515721

	symmetry c1
}
set optking {
	frozen_dihedral = ("
		10 7 4 8
	")
}

ee = optimize('scf')
oeprop('DIPOLE', 'QUADRUPOLE', 'MULLIKEN_CHARGES')
f=open( 'psi4out.xyz', 'w' )
f.write( "27  " )
f.write( str(ee) + "\n" )
f.write( MOL.save_string_xyz() )
f.close()
--------------------------------------------------------------------------

    Molecular point group: c1
  Charge       = 0
  Multiplicity = 1
  Basis Set: 6-31G*
  Basis Set:
  @DF-RHF Final Energy:  -388.27739148587540
    Total Energy =                       -388.2773914858759099
    Molecular point group: c1
  Basis Set: 6-31G*
  Basis Set:
  Basis Set: 6-31G*
  Basis Set:
  @DF-RHF Final Energy:  -388.27796329726772
    Total Energy =                       -388.2779632972678883
  Basis Set: 6-31G*
  Basis Set:
  Basis Set: 6-31G*
  Basis Set:
  @DF-RHF Final Energy:  -388.27805208178518
    Total Energy =                       -388.2780520817851766
  Basis Set: 6-31G*
  Basis Set:
  Basis Set: 6-31G*
  Basis Set:
  @DF-RHF Final Energy:  -388.27801847442385
    Total Energy =                       -388.2780184744234475
  Basis Set: 6-31G*
  Basis Set:
  Basis Set: 6-31G*
  Basis Set:
  @DF-RHF Final Energy:  -388.27806144741663
    Total Energy =                       -388.2780614474164622
  Basis Set: 6-31G*
  Basis Set:
  Basis Set: 6-31G*
  Basis Set:
  @DF-RHF Final Energy:  -388.27806275403395
    Total Energy =                       -388.2780627540338401
  Basis Set: 6-31G*
  Basis Set:
  Charge       = 0
  Multiplicity = 1
  Basis Set: 6-31G*
  Basis Set:

    Orbital Energies (a.u.)
    -----------------------

    Doubly Occupied:

       1A    -20.553169     2A    -11.267354     3A    -11.219534
       4A    -11.216839     5A    -11.215953     6A    -11.215416
       7A    -11.215216     8A    -11.214650     9A    -11.210204
      10A     -1.359731    11A     -1.093990    12A     -1.060362
      13A     -1.011624    14A     -0.948834    15A     -0.888162
      16A     -0.821499    17A     -0.800858    18A     -0.777440
      19A     -0.697679    20A     -0.648159    21A     -0.639167
      22A     -0.614077    23A     -0.594478    24A     -0.583022
      25A     -0.573743    26A     -0.557412    27A     -0.544946
      28A     -0.530378    29A     -0.513546    30A     -0.495871
      31A     -0.489101    32A     -0.473088    33A     -0.466743
      34A     -0.457784    35A     -0.449634    36A     -0.440040
      37A     -0.421908

  @DF-RHF Final Energy:  -388.27806358915910

   => Energetics <=

    Nuclear Repulsion Energy =            468.0677436337105632
    One-Electron Energy =               -1454.1283852198830573
    Two-Electron Energy =                 597.7825779970135045
    DFT Exchange-Correlation Energy =       0.0000000000000000
    Empirical Dispersion Energy =           0.0000000000000000
    PCM Polarization Energy =               0.0000000000000000
    EFP Energy =                            0.0000000000000000
    Total Energy =                       -388.2780635891590464
    Molecular point group: c1
  Basis Set: 6-31G*
  Basis Set:

  -Total Gradient:
     Atom            X                  Y                   Z
    ------   -----------------  -----------------  -----------------
       1        0.000011844159    -0.000005854945    -0.000001139157
       2       -0.000016657072    -0.000002533459    -0.000017912359
       3       -0.000012824731    -0.000020802775     0.000021915026
       4       -0.000179429223    -0.000988062222    -0.000209326812
       5       -0.000009274817     0.000012383066    -0.000000829597
       6        0.000009588319     0.000002160706     0.000004684984
       7        0.000220594746     0.000697798927     0.000430145042
       8        0.000130568330     0.000663621057     0.000065741434
       9        0.000009000494     0.000001091268    -0.000008819217
      10       -0.000153485899    -0.000395188516    -0.000262287685
      11       -0.000013580526     0.000005473633    -0.000004171339
      12        0.000005490738    -0.000008524220     0.000001024460
      13        0.000022014448    -0.000025624453     0.000005851326
      14       -0.000017437384     0.000001247047    -0.000001865260
      15       -0.000032173655     0.000024322272     0.000000525612
      16        0.000002829373     0.000036513526    -0.000006366287
      17        0.000026004655    -0.000005671484    -0.000011656996
      18        0.000002286998    -0.000008115272    -0.000008897484
      19        0.000003974859    -0.000006768522     0.000004573602
      20        0.000002671756     0.000020413685     0.000004974391
      21       -0.000008780771     0.000013218905    -0.000015212067
      22       -0.000001644649    -0.000011105587     0.000007529524
      23        0.000004348495     0.000006989752     0.000008075367
      24       -0.000005335788    -0.000004193574    -0.000008835475
      25        0.000001232456    -0.000003488624    -0.000002274896
      26       -0.000000917417    -0.000000342836     0.000001678602
      27       -0.000000907908     0.000001042638     0.000002875264

  **** Optimization is complete! (in 7 steps) ****
    Final optimized geometry and variables:
    Molecular point group: c1

    Geometry (in Angstrom), charge = 0, multiplicity = 1:

    H            2.267215141337     1.084536567703     0.052969871272
    O            2.996779369292     0.776963333609    -0.465013177787
    C            3.246095712017    -0.574631273479    -0.172345593467
    C            2.236146730892    -1.537789936263    -0.789171103604
    H            4.233183818077    -0.784688441957    -0.564375080668
    H            3.288496562289    -0.725488236128     0.905529647826
    C            0.783465793784    -1.337729997639    -0.317337844584
    H            2.287690168664    -1.448119507012    -1.870861121844
    H            2.563878142151    -2.545111039233    -0.541774043900
    C           -0.041906729733    -0.405002579369    -1.213558407332
    H            0.785060527206    -0.979762577366     0.710734398633
    H            0.282922541313    -2.302521550109    -0.289288187968
    C           -1.493809614894    -0.208982962707    -0.762148667690
    H            0.445227019101     0.562132060502    -1.301160425762
    H           -0.046267107138    -0.823645883312    -2.217289977972
    C           -1.663290209116     0.593486141474     0.531160208058
    H           -2.033936646754     0.300426305342    -1.557360014387
    H           -1.970382947320    -1.181473949044    -0.648148683327
    C           -3.129315907756     0.837693625119     0.895310634584
    H           -1.157705752780     1.553050791506     0.426249928176
    H           -1.177990779009     0.080039545564     1.357863275523
    C           -3.300136971502     1.634767929277     2.188015885874
    H           -3.619555489567     1.364231371369     0.079391449479
    H           -3.639498326689    -0.118440675500     0.991072407981
    H           -2.828347560116     2.610490958529     2.112407636593
    H           -4.349431068578     1.792367811401     2.417535611035
    H           -2.851919141717     1.116270569985     3.031033246928

  Mulliken Charges: (a.u.)
   Center  Symbol    Alpha    Beta     Spin     Total
       1     H     0.27942  0.27942  0.00000  0.44117
       2     O     4.36970  4.36970  0.00000 -0.73941
       3     C     2.99825  2.99825  0.00000  0.00351
       4     C     3.16329  3.16329  0.00000 -0.32659
       5     H     0.41531  0.41531  0.00000  0.16938
       6     H     0.43195  0.43195  0.00000  0.13610
       7     C     3.16642  3.16642  0.00000 -0.33285
       8     H     0.41460  0.41460  0.00000  0.17081
       9     H     0.42181  0.42181  0.00000  0.15639
      10     C     3.15592  3.15592  0.00000 -0.31183
      11     H     0.42586  0.42586  0.00000  0.14828
      12     H     0.41818  0.41818  0.00000  0.16365
      13     C     3.15384  3.15384  0.00000 -0.30768
      14     H     0.41961  0.41961  0.00000  0.16079
      15     H     0.41941  0.41941  0.00000  0.16118
      16     C     3.15336  3.15336  0.00000 -0.30672
      17     H     0.42064  0.42064  0.00000  0.15871
      18     H     0.42394  0.42394  0.00000  0.15213
      19     C     3.15088  3.15088  0.00000 -0.30177
      20     H     0.42665  0.42665  0.00000  0.14670
      21     H     0.42364  0.42364  0.00000  0.15273
      22     C     3.23939  3.23939  0.00000 -0.47877
      23     H     0.42236  0.42236  0.00000  0.15527
      24     H     0.42265  0.42265  0.00000  0.15470
      25     H     0.42181  0.42181  0.00000  0.15639
      26     H     0.41884  0.41884  0.00000  0.16233
      27     H     0.42229  0.42229  0.00000  0.15543

   Total alpha = 37.00000, Total beta = 37.00000, Total charge = -0.00000
