                              Psi4 1.0.54 Driver

  ==> Input File <==

--------------------------------------------------------------------------
set {
	reference rhf
	basis cc-pvtz
}

set_num_threads( 4 )
memory 2 gb

molecule MOL {
0 1

H	 -3.162190	 0.493205	 -0.000107
C	 -2.363908	 -0.234727	 0.000005
O	 -1.158738	 0.454634	 -0.000087
H	 -2.464314	 -0.863616	 -0.882153
H	 -2.464327	 -0.863359	 0.882345
C	 -0.028611	 -0.359694	 0.000037
C	 0.506388	 -0.470897	 1.413474
H	 0.733364	 0.058152	 -0.658322
H	 -0.279939	 -1.348073	 -0.385430
C	 1.749128	 -1.349967	 1.498231
H	 0.728334	 0.525909	 1.778223
H	 -0.276892	 -0.869182	 2.048922
H	 2.554723	 -0.955669	 0.887795
H	 2.109724	 -1.411807	 2.517626
H	 1.542710	 -2.360145	 1.160592

	symmetry c1
}
set optking {
	frozen_dihedral = ("
		8 6 3 2
	")
}

ee,wfn = optimize('scf', return_wfn=True)
oeprop( wfn, 'DIPOLE', 'QUADRUPOLE', 'MULLIKEN_CHARGES')
f=open( 'psi4out.xyz', 'w' )
f.write( "15  " )
f.write( str(ee) + "\n" )
f.write( MOL.save_string_xyz() )
f.close()
--------------------------------------------------------------------------

    Molecular point group: c1
  Charge       = 0
  Multiplicity = 1
  Basis Set: CC-PVTZ
  Basis Set:
  @DF-RHF Final Energy:  -232.22397613595152
    Total Energy =                       -232.2239761359514887
    Molecular point group: c1
  Basis Set: CC-PVTZ
  Basis Set:
  Basis Set: CC-PVTZ
  Basis Set:
  @DF-RHF Final Energy:  -232.22474674696446
    Total Energy =                       -232.2247467469644562
  Basis Set: CC-PVTZ
  Basis Set:
  Basis Set: CC-PVTZ
  Basis Set:
  @DF-RHF Final Energy:  -232.22489308023827
    Total Energy =                       -232.2248930802380755
  Basis Set: CC-PVTZ
  Basis Set:
  Charge       = 0
  Multiplicity = 1
  Basis Set: CC-PVTZ
  Basis Set:

    Orbital Energies (a.u.)
    -----------------------

    Doubly Occupied:

       1A    -20.544801     2A    -11.264067     3A    -11.262123
       4A    -11.213725     5A    -11.211773     6A     -1.377369
       7A     -1.057187     8A     -0.958243     9A     -0.881034
      10A     -0.808022    11A     -0.670242    12A     -0.656098
      13A     -0.638413    14A     -0.599885    15A     -0.568787
      16A     -0.535299    17A     -0.512973    18A     -0.496710
      19A     -0.483690    20A     -0.461311    21A     -0.407386

  @DF-RHF Final Energy:  -232.22489497137849

   => Energetics <=

    Nuclear Repulsion Energy =            190.9973556214707173
    One-Electron Energy =                -693.2262274384320335
    Two-Electron Energy =                 270.0039768455827698
    DFT Exchange-Correlation Energy =       0.0000000000000000
    Empirical Dispersion Energy =           0.0000000000000000
    PCM Polarization Energy =               0.0000000000000000
    EFP Energy =                            0.0000000000000000
    Total Energy =                       -232.2248949713785464
    Molecular point group: c1
  Basis Set: CC-PVTZ
  Basis Set:

  -Total Gradient:
     Atom            X                  Y                   Z
    ------   -----------------  -----------------  -----------------
       1       -0.000002633411     0.000003187509     0.000005053067
       2        0.000001578879     0.000012724654    -0.000985126018
       3       -0.000163049305    -0.000103305430     0.001201887637
       4        0.000012049816    -0.000005017118     0.000000102384
       5        0.000027597630     0.000013668506    -0.000008438857
       6        0.000417487393     0.000702518039     0.000711834079
       7        0.000117393863    -0.000000144732    -0.000040321625
       8       -0.000416386940    -0.000625018938    -0.000849489328
       9        0.000031808953    -0.000026000398    -0.000020473821
      10       -0.000033907259     0.000005126420     0.000014878988
      11       -0.000013256515     0.000027693088     0.000005303585
      12       -0.000007601969     0.000007013938    -0.000051965687
      13       -0.000001394505    -0.000013318236     0.000003585555
      14        0.000014155273    -0.000009865918     0.000016781947
      15        0.000016158093     0.000010738618    -0.000003611906

  **** Optimization is complete! (in 4 steps) ****
    Final optimized geometry and variables:
    Molecular point group: c1

    Geometry (in Angstrom), charge = 0, multiplicity = 1:

    H           -2.884126260088     0.954194924297    -0.583435678544
    C           -2.107617365187     0.202814407245    -0.596413827923
    O           -0.883457251598     0.860264490853    -0.568230841454
    H           -2.216794980806    -0.395158387119    -1.498125586554
    H           -2.242851417755    -0.446526040647     0.265330152828
    C            0.248647792645     0.039820134577    -0.539272861712
    C            0.808805471382    -0.113661330059     0.865886837135
    H            0.989955784523     0.492676605395    -1.188282356621
    H            0.018424672655    -0.937672725977    -0.958854692038
    C            2.067318048519    -0.974052742883     0.898857515494
    H            1.021193784458     0.874566273174     1.259013348754
    H            0.049267799175    -0.547571923664     1.508767576197
    H            2.851111252348    -0.547934323358     0.281385004228
    H            2.453661707230    -1.060140458589     1.907164002537
    H            1.870187554097    -1.977238490760     0.535192212609

  Mulliken Charges: (a.u.)
   Center  Symbol    Alpha    Beta     Spin     Total
       1     H     0.44811  0.44811  0.00000  0.10378
       2     C     3.03185  3.03185  0.00000 -0.06371
       3     O     4.17992  4.17992  0.00000 -0.35985
       4     H     0.46934  0.46934  0.00000  0.06131
       5     H     0.47301  0.47301  0.00000  0.05398
       6     C     2.97443  2.97443  0.00000  0.05114
       7     C     3.08014  3.08014  0.00000 -0.16028
       8     H     0.45058  0.45058  0.00000  0.09884
       9     H     0.47417  0.47417  0.00000  0.05165
      10     C     3.15407  3.15407  0.00000 -0.30813
      11     H     0.45094  0.45094  0.00000  0.09812
      12     H     0.45667  0.45667  0.00000  0.08665
      13     H     0.45442  0.45442  0.00000  0.09115
      14     H     0.44670  0.44670  0.00000  0.10661
      15     H     0.45564  0.45564  0.00000  0.08872

   Total alpha = 21.00000, Total beta = 21.00000, Total charge = -0.00000

*** Psi4 exiting successfully. Buy a developer a beer!
