                              Psi4 1.0.54 Driver

  ==> Input File <==

--------------------------------------------------------------------------
set {
	reference rhf
	basis cc-pvtz
}

set_num_threads( 4 )
memory 2 gb

molecule MOL {
0 1

H	 -0.000342	 -0.223902	 -3.352295
C	 -0.027146	 0.371068	 -2.446756
C	 0.024493	 -0.518541	 -1.216015
H	 -0.932586	 0.964979	 -2.449855
H	 0.819708	 1.049865	 -2.473332
N	 -0.042516	 0.263377	 0.000000
H	 -0.822211	 -1.197105	 -1.225584
H	 0.921114	 -1.142847	 -1.255206
C	 0.024493	 -0.518541	 1.216015
H	 0.682568	 0.950412	 0.000000
C	 0.197597	 0.371974	 2.434954
H	 -0.900831	 -1.078042	 1.306475
H	 0.830279	 -1.256839	 1.186912
H	 -0.617293	 1.081394	 2.507337
H	 0.223007	 -0.219800	 3.342624
H	 1.126211	 0.931745	 2.380489

	symmetry c1
}
set optking {
	frozen_dihedral = ("
		12 9 6 3
	")
}

ee,wfn = optimize('scf', return_wfn=True)
oeprop( wfn, 'DIPOLE', 'QUADRUPOLE', 'MULLIKEN_CHARGES')
f=open( 'psi4out.xyz', 'w' )
f.write( "16  " )
f.write( str(ee) + "\n" )
f.write( MOL.save_string_xyz() )
f.close()
--------------------------------------------------------------------------

    Molecular point group: c1
  Charge       = 0
  Multiplicity = 1
  Basis Set: CC-PVTZ
  Basis Set:
  @DF-RHF Final Energy:  -212.39440084079339
    Total Energy =                       -212.3944008407934803
    Molecular point group: c1
  Basis Set: CC-PVTZ
  Basis Set:
  Basis Set: CC-PVTZ
  Basis Set:
  @DF-RHF Final Energy:  -212.39443086948916
    Total Energy =                       -212.3944308694891561
  Basis Set: CC-PVTZ
  Basis Set:
  Basis Set: CC-PVTZ
  Basis Set:
  @DF-RHF Final Energy:  -212.39443348385680
    Total Energy =                       -212.3944334838566306
  Basis Set: CC-PVTZ
  Basis Set:
  Charge       = 0
  Multiplicity = 1
  Basis Set: CC-PVTZ
  Basis Set:

    Orbital Energies (a.u.)
    -----------------------

    Doubly Occupied:

       1A    -15.528959     2A    -11.238942     3A    -11.238881
       4A    -11.207752     5A    -11.206427     6A     -1.207601
       7A     -1.029538     8A     -0.964007     9A     -0.832578
      10A     -0.822637    11A     -0.661135    12A     -0.629684
      13A     -0.601546    14A     -0.591655    15A     -0.553331
      16A     -0.521514    17A     -0.508562    18A     -0.488995
      19A     -0.483548    20A     -0.474071    21A     -0.363190

  @DF-RHF Final Energy:  -212.39443365011670

   => Energetics <=

    Nuclear Repulsion Energy =            189.4844031154220261
    One-Electron Energy =                -661.4485666290484005
    Two-Electron Energy =                 259.5697298635097923
    DFT Exchange-Correlation Energy =       0.0000000000000000
    Empirical Dispersion Energy =           0.0000000000000000
    PCM Polarization Energy =               0.0000000000000000
    EFP Energy =                            0.0000000000000000
    Total Energy =                       -212.3944336501165822
    Molecular point group: c1
  Basis Set: CC-PVTZ
  Basis Set:

  -Total Gradient:
     Atom            X                  Y                   Z
    ------   -----------------  -----------------  -----------------
       1       -0.000001281470    -0.000000483437     0.000003109614
       2        0.000002154135     0.000003815610    -0.000002041746
       3        0.001268537731     0.000129514836     0.000026832509
       4       -0.000000015137     0.000000757230    -0.000002114794
       5        0.000000652676     0.000002960848    -0.000002921448
       6       -0.001954384477     0.000113441132     0.000194326471
       7       -0.000003781134    -0.000008762701    -0.000005110969
       8        0.000003840033    -0.000010766377    -0.000002887695
       9        0.001350596592    -0.001495588447    -0.001080473591
      10       -0.000000719192     0.000005401963    -0.000002735673
      11        0.000006229534     0.000002040026     0.000012927181
      12       -0.000656115058     0.001253292221     0.000842073499
      13       -0.000006052453    -0.000001678553     0.000009769381
      14       -0.000001085177    -0.000000417642     0.000004111348
      15       -0.000001494551     0.000006432534    -0.000000583372
      16       -0.000007082051     0.000000040757     0.000005719284

  **** Optimization is complete! (in 4 steps) ****
    Final optimized geometry and variables:
    Molecular point group: c1

    Geometry (in Angstrom), charge = 0, multiplicity = 1:

    H           -0.054520830112    -0.224106285097    -3.350279675430
    C           -0.080590798063     0.371088955908    -2.444832452641
    C           -0.020566009996    -0.517632079567    -1.213896504713
    H           -0.988339984505     0.961391381756    -2.444866850956
    H            0.763357062759     1.053400967283    -2.474462482086
    N           -0.081331416627     0.264553036082     0.002603759622
    H           -0.866045986695    -1.198141788977    -1.218939845348
    H            0.876715556551    -1.140418307611    -1.256239420492
    C           -0.017884904035    -0.520463719185     1.217702859488
    H            0.656574821643     0.937933988227     0.001054925121
    C            0.146520152902     0.370929511664     2.437876523246
    H           -0.945609294890    -1.075911462230     1.311566718916
    H            0.791005057723    -1.254499479349     1.191760264700
    H           -0.663534492467     1.087371475835     2.498321313517
    H            0.152162665482    -0.219424053963     3.346544859930
    H            1.081101527737     0.921953075735     2.396864089357

  Mulliken Charges: (a.u.)
   Center  Symbol    Alpha    Beta     Spin     Total
       1     H     0.45385  0.45385  0.00000  0.09230
       2     C     3.14192  3.14192  0.00000 -0.28384
       3     C     3.02253  3.02253  0.00000 -0.04505
       4     H     0.44946  0.44946  0.00000  0.10109
       5     H     0.45956  0.45956  0.00000  0.08088
       6     N     3.63515  3.63515  0.00000 -0.27030
       7     H     0.45865  0.45865  0.00000  0.08269
       8     H     0.47324  0.47324  0.00000  0.05352
       9     C     3.01973  3.01973  0.00000 -0.03946
      10     H     0.44622  0.44622  0.00000  0.10756
      11     C     3.14404  3.14404  0.00000 -0.28808
      12     H     0.45855  0.45855  0.00000  0.08289
      13     H     0.47539  0.47539  0.00000  0.04922
      14     H     0.44905  0.44905  0.00000  0.10191
      15     H     0.45279  0.45279  0.00000  0.09442
      16     H     0.45987  0.45987  0.00000  0.08027

   Total alpha = 21.00000, Total beta = 21.00000, Total charge = -0.00000

*** Psi4 exiting successfully. Buy a developer a beer!
