  ==> Input File <==

--------------------------------------------------------------------------
set {
	reference rhf
	basis 6-31G*
}

set_num_threads( 4 )
memory 2 gb

molecule MOL {
0 1

O	 2.905137	 1.287170	 -0.398957
C	 2.843464	 0.164689	 -0.000222
C	 1.546494	 -0.624492	 -0.000609
C	 4.066530	 -0.550286	 0.536506
C	 0.291004	 0.242674	 0.000989
H	 1.557904	 -1.283758	 -0.867573
H	 1.558622	 -1.285963	 0.864672
C	 -0.994322	 -0.586602	 0.000262
H	 0.309117	 0.896430	 -0.865270
H	 0.309661	 0.894078	 0.869017
C	 -2.259874	 0.272531	 0.000494
H	 -1.004862	 -1.240012	 -0.870939
H	 -1.005220	 -1.241071	 0.870675
C	 -3.549786	 -0.549746	 -0.000374
H	 -2.250389	 0.926680	 -0.869574
H	 -2.250838	 0.925513	 0.871430
C	 -4.809590	 0.315458	 -0.000369
H	 -3.560515	 -1.202009	 -0.871156
H	 -3.561123	 -1.202955	 0.869711
H	 -4.844746	 0.956611	 -0.876632
H	 -5.706986	 -0.295590	 -0.001609
H	 -4.845960	 0.954827	 0.877144
H	 4.263117	 -1.449671	 -0.039757
H	 4.924319	 0.105785	 0.485506
H	 3.904923	 -0.856229	 1.566028

	symmetry c1
}
set optking {
	frozen_dihedral = ("
		1 2 3 6
	")
}

ee = optimize('scf')
oeprop('DIPOLE', 'QUADRUPOLE', 'MULLIKEN_CHARGES')
f=open( 'psi4out.xyz', 'w' )
f.write( "25  " )
f.write( str(ee) + "\n" )
f.write( MOL.save_string_xyz() )
f.close()
--------------------------------------------------------------------------

    Molecular point group: c1
  Charge       = 0
  Multiplicity = 1
  Basis Set: 6-31G*
  Basis Set:
  @DF-RHF Final Energy:  -387.13580795029151
    Total Energy =                       -387.1358079502913370
    Molecular point group: c1
  Basis Set: 6-31G*
  Basis Set:
  Basis Set: 6-31G*
  Basis Set:
  @DF-RHF Final Energy:  -387.13462388591648
    Total Energy =                       -387.1346238859160849
  Basis Set: 6-31G*
  Basis Set:
  Basis Set: 6-31G*
  Basis Set:
  @DF-RHF Final Energy:  -387.13598868245617
    Total Energy =                       -387.1359886824557179
  Basis Set: 6-31G*
  Basis Set:
  Basis Set: 6-31G*
  Basis Set:
  @DF-RHF Final Energy:  -387.13613539494696
    Total Energy =                       -387.1361353949459954
  Basis Set: 6-31G*
  Basis Set:
  Basis Set: 6-31G*
  Basis Set:
  @DF-RHF Final Energy:  -387.13615183661830
    Total Energy =                       -387.1361518366180690
  Basis Set: 6-31G*
  Basis Set:
  Basis Set: 6-31G*
  Basis Set:
  @DF-RHF Final Energy:  -387.13616154097241
    Total Energy =                       -387.1361615409725800
  Basis Set: 6-31G*
  Basis Set:
  Charge       = 0
  Multiplicity = 1
  Basis Set: 6-31G*
  Basis Set:

    Orbital Energies (a.u.)
    -----------------------

    Doubly Occupied:

       1A    -20.549574     2A    -11.326280     3A    -11.231693
       4A    -11.228509     5A    -11.217949     6A    -11.217111
       7A    -11.215617     8A    -11.213877     9A    -11.208514
      10A     -1.395256    11A     -1.093935    12A     -1.056418
      13A     -1.014596    14A     -0.969450    15A     -0.890899
      16A     -0.814305    17A     -0.791160    18A     -0.729998
      19A     -0.662413    20A     -0.650800    21A     -0.632923
      22A     -0.621837    23A     -0.596737    24A     -0.584431
      25A     -0.566959    26A     -0.560640    27A     -0.540331
      28A     -0.527473    29A     -0.512833    30A     -0.490429
      31A     -0.487064    32A     -0.473416    33A     -0.464017
      34A     -0.462798    35A     -0.450779    36A     -0.398377

  @DF-RHF Final Energy:  -387.13616149883023

   => Energetics <=

    Nuclear Repulsion Energy =            438.3112415207540380
    One-Electron Energy =               -1393.1960100198659802
    Two-Electron Energy =                 567.7486070002821634
    DFT Exchange-Correlation Energy =       0.0000000000000000
    Empirical Dispersion Energy =           0.0000000000000000
    PCM Polarization Energy =               0.0000000000000000
    EFP Energy =                            0.0000000000000000
    Total Energy =                       -387.1361614988297788
    Molecular point group: c1
  Basis Set: 6-31G*
  Basis Set:

  -Total Gradient:
     Atom            X                  Y                   Z
    ------   -----------------  -----------------  -----------------
       1        0.000178430408    -0.000379261736    -0.001041206630
       2       -0.000366823420     0.000701750776     0.001350666082
       3        0.000678050897    -0.001113753232     0.000233127118
       4        0.000004561308     0.000001874158    -0.000018255609
       5       -0.000007875419     0.000000568686     0.000078815765
       6       -0.000484783301     0.000771835405    -0.000572918419
       7       -0.000001006751     0.000013583542    -0.000005270978
       8       -0.000001915487     0.000001772440    -0.000016738219
       9       -0.000011404801    -0.000000302319     0.000006175576
      10       -0.000000769057     0.000015990676     0.000004419916
      11        0.000001807997     0.000003480472    -0.000044745044
      12        0.000008604962     0.000000020261    -0.000004198883
      13       -0.000008877806     0.000000146129    -0.000001339879
      14        0.000003485152    -0.000005042024     0.000023836005
      15       -0.000003859629    -0.000002154610    -0.000014965947
      16        0.000005537734     0.000002389020    -0.000012544878
      17        0.000003771417     0.000003113734     0.000010194760
      18       -0.000000706113     0.000012445024     0.000000739834
      19        0.000001367314    -0.000013188810     0.000000802070
      20        0.000003771768     0.000000051943     0.000001885052
      21        0.000002325283    -0.000001104574    -0.000000516136
      22       -0.000004640339     0.000000489795     0.000002138309
      23       -0.000000663915    -0.000001735534     0.000003866410
      24        0.000002363278    -0.000011053803     0.000006686086
      25       -0.000000751486    -0.000001915417     0.000009347643

  **** Optimization is complete! (in 7 steps) ****
    Final optimized geometry and variables:
    Molecular point group: c1

    Geometry (in Angstrom), charge = 0, multiplicity = 1:

    O            2.885997587664     1.295081549116    -0.381712761732
    C            2.843733611052     0.166420182475     0.002084361273
    C            1.549907802628    -0.628864139955     0.023506174434
    C            4.089241496422    -0.557810432174     0.466448742352
    C            0.292355678821     0.238079679774     0.017228422738
    H            1.564764202076    -1.265812958114    -0.861276668857
    H            1.555843311070    -1.302938114157     0.876758047304
    C           -0.992464880863    -0.591240014185    -0.011974576772
    H            0.325983630591     0.901708749922    -0.839380603693
    H            0.295179637261     0.877716613498     0.896032176455
    C           -2.258136833212     0.267693646702    -0.019340962441
    H           -0.989051492300    -1.232424410322    -0.892221607884
    H           -1.016191882470    -1.257542465083     0.849103722049
    C           -3.547615071251    -0.554819166676    -0.046415753735
    H           -2.236983600573     0.931324645746    -0.881902046561
    H           -2.261269826897     0.911022322424     0.858887763423
    C           -4.807619492014     0.310072005655    -0.050097208452
    H           -3.547609519623    -1.195438221512    -0.925827170716
    H           -3.569133226263    -1.219513383903     0.814747634428
    H           -4.832327838418     0.962895569463    -0.918030815524
    H           -5.704664506291    -0.301118462376    -0.070473306825
    H           -4.854956464356     0.937582583311     0.835435615121
    H            4.170484378466    -1.531878087656    -0.006561239292
    H            4.965371914815     0.034534356380     0.241981195774
    H            4.035126998267    -0.724208782394     1.539054635150

  Mulliken Charges: (a.u.)
   Center  Symbol    Alpha    Beta     Spin     Total
       1     O     4.26235  4.26235  0.00000 -0.52471
       2     C     2.73415  2.73415  0.00000  0.53171
       3     C     3.21097  3.21097  0.00000 -0.42193
       4     C     3.28741  3.28741  0.00000 -0.57482
       5     C     3.15025  3.15025  0.00000 -0.30050
       6     H     0.40596  0.40596  0.00000  0.18808
       7     H     0.41306  0.41306  0.00000  0.17387
       8     C     3.15365  3.15365  0.00000 -0.30731
       9     H     0.40630  0.40630  0.00000  0.18741
      10     H     0.41731  0.41731  0.00000  0.16539
      11     C     3.15083  3.15083  0.00000 -0.30167
      12     H     0.42417  0.42417  0.00000  0.15166
      13     H     0.42505  0.42505  0.00000  0.14991
      14     C     3.15155  3.15155  0.00000 -0.30309
      15     H     0.42191  0.42191  0.00000  0.15619
      16     H     0.42299  0.42299  0.00000  0.15403
      17     C     3.23935  3.23935  0.00000 -0.47870
      18     H     0.42328  0.42328  0.00000  0.15344
      19     H     0.42363  0.42363  0.00000  0.15273
      20     H     0.42120  0.42120  0.00000  0.15761
      21     H     0.41947  0.41947  0.00000  0.16106
      22     H     0.42153  0.42153  0.00000  0.15694
      23     H     0.41011  0.41011  0.00000  0.17978
      24     H     0.39688  0.39688  0.00000  0.20624
      25     H     0.40665  0.40665  0.00000  0.18669

   Total alpha = 36.00000, Total beta = 36.00000, Total charge = -0.00000
