  ==> Input File <==

--------------------------------------------------------------------------
set {
	reference rhf
	basis 6-31G*
}

set_num_threads( 1 )
memory 2 gb

molecule MOL {
0 1

H	 -1.910849	 0.935312	 0.563793
N	 -1.852125	 0.165761	 -0.074816
C	 -0.563778	 -0.502042	 0.037919
H	 -1.972672	 0.543498	 -0.995435
C	 0.575259	 0.508231	 -0.048326
H	 -0.482092	 -1.204004	 -0.786564
H	 -0.460411	 -1.085169	 0.956626
C	 1.954651	 -0.143624	 0.035137
H	 0.475158	 1.060484	 -0.977307
H	 0.469181	 1.234488	 0.755973
H	 2.103292	 -0.853109	 -0.774172
H	 2.742821	 0.599562	 -0.030094
H	 2.083613	 -0.679371	 0.971560

	symmetry c1
}
set optking {
	frozen_dihedral = ("
		6 3 5 9
	")
}

ee = energy('scf')
oeprop('DIPOLE', 'QUADRUPOLE', 'MULLIKEN_CHARGES')
f=open( 'psi4out.xyz', 'w' )
f.write( "13  " )
f.write( str(ee) + "\n" )
f.write( MOL.save_string_xyz() )
f.close()
--------------------------------------------------------------------------

    Molecular point group: c1

    Geometry (in Angstrom), charge = 0, multiplicity = 1:

       Center              X                  Y                   Z               Mass
    ------------   -----------------  -----------------  -----------------  -----------------
           H         -1.923207038481     0.914525157091     0.581888825271     1.007825032070
           N         -1.864483038481     0.144974157091    -0.056720174729    14.003074004780
           C         -0.576136038481    -0.522828842909     0.056014825271    12.000000000000
           H         -1.985030038481     0.522711157091    -0.977339174729     1.007825032070
           C          0.562900961519     0.487444157091    -0.030230174729    12.000000000000
           H         -0.494450038481    -1.224790842909    -0.768468174729     1.007825032070
           H         -0.472769038481    -1.105955842909     0.974721825271     1.007825032070
           C          1.942292961519    -0.164410842909     0.053232825271    12.000000000000
           H          0.462799961519     1.039697157091    -0.959211174729     1.007825032070
           H          0.456822961519     1.213701157091     0.774068825271     1.007825032070
           H          2.090933961519    -0.873895842909    -0.756076174729     1.007825032070
           H          2.730462961519     0.578775157091    -0.011998174729     1.007825032070
           H          2.071254961519    -0.700157842909     0.989655825271     1.007825032070

  Charge       = 0
  Multiplicity = 1
  Basis Set: 6-31G*
  Basis Set:

    Orbital Energies (a.u.)
    -----------------------

    Doubly Occupied:

       1A    -15.531714     2A    -11.241581     3A    -11.215057
       4A    -11.211445     5A     -1.179116     6A     -1.036365
       7A     -0.899350     8A     -0.807999     9A     -0.678132
      10A     -0.606440    11A     -0.605136    12A     -0.565557
      13A     -0.523023    14A     -0.516368    15A     -0.488847
      16A     -0.473216    17A     -0.374029

  @DF-RHF Final Energy:  -173.28002085174134

   => Energetics <=

    Nuclear Repulsion Energy =            132.2329437807844386
    One-Electron Energy =                -495.1191754554424733
    Two-Electron Energy =                 189.6062108229169496
    DFT Exchange-Correlation Energy =       0.0000000000000000
    Empirical Dispersion Energy =           0.0000000000000000
    PCM Polarization Energy =               0.0000000000000000
    EFP Energy =                            0.0000000000000000
    Total Energy =                       -173.2800208517410567

  Mulliken Charges: (a.u.)
   Center  Symbol    Alpha    Beta     Spin     Total
       1     H     0.33526  0.33526  0.00000  0.32948
       2     N     3.91742  3.91742  0.00000 -0.83483
       3     C     3.06101  3.06101  0.00000 -0.12202
       4     H     0.33407  0.33407  0.00000  0.33186
       5     C     3.15679  3.15679  0.00000 -0.31358
       6     H     0.41979  0.41979  0.00000  0.16043
       7     H     0.41875  0.41875  0.00000  0.16249
       8     C     3.24428  3.24428  0.00000 -0.48855
       9     H     0.42600  0.42600  0.00000  0.14799
      10     H     0.42637  0.42637  0.00000  0.14725
      11     H     0.42116  0.42116  0.00000  0.15768
      12     H     0.41836  0.41836  0.00000  0.16328
      13     H     0.42074  0.42074  0.00000  0.15853

   Total alpha = 17.00000, Total beta = 17.00000, Total charge =  0.00000
