                              Psi4 1.0.54 Driver

  ==> Input File <==

--------------------------------------------------------------------------
set {
	reference rhf
	basis cc-pvtz
}

set_num_threads( 4 )
memory 2 gb

molecule MOL {
0 1

H	 -1.563033	 -1.910555	 -2.786971
C	 -2.282352	 -1.411594	 -2.123267
C	 -2.088476	 -1.687526	 -0.656923
O	 -3.132282	 -0.728207	 -2.579237
C	 -0.652254	 -1.431887	 -0.190459
H	 -2.801070	 -1.095130	 -0.097806
H	 -2.332541	 -2.736461	 -0.503717
C	 -0.247837	 0.040196	 -0.230469
H	 -0.548801	 -1.806662	 0.822053
H	 0.033301	 -2.015811	 -0.799755
C	 1.181757	 0.280428	 0.247371
H	 -0.936004	 0.613938	 0.384636
H	 -0.357135	 0.424616	 -1.241262
C	 2.151032	 -0.811012	 -0.202643
H	 1.515939	 1.247397	 -0.115449
H	 1.191514	 0.341223	 1.333422
C	 3.580021	 -0.656538	 0.320835
H	 2.170545	 -0.847575	 -1.289412
H	 1.766632	 -1.772905	 0.124928
C	 4.327657	 0.562694	 -0.213579
H	 4.138806	 -1.549270	 0.057813
H	 3.561991	 -0.620783	 1.406976
H	 4.355973	 0.557257	 -1.298551
H	 3.867136	 1.491650	 0.100501
H	 5.351524	 0.571613	 0.142204

	symmetry c1
}
set optking {
	frozen_dihedral = ("
		12 8 11 14
	")
}

ee,wfn = optimize('scf', return_wfn=True)
oeprop( wfn, 'DIPOLE', 'QUADRUPOLE', 'MULLIKEN_CHARGES')
f=open( 'psi4out.xyz', 'w' )
f.write( "25  " )
f.write( str(ee) + "\n" )
f.write( MOL.save_string_xyz() )
f.close()
--------------------------------------------------------------------------

    Molecular point group: c1
  Charge       = 0
  Multiplicity = 1
  Basis Set: CC-PVTZ
  Basis Set:
  @DF-RHF Final Energy:  -387.25288658253294
    Total Energy =                       -387.2528865825327102
    Molecular point group: c1
  Basis Set: CC-PVTZ
  Basis Set:
  Basis Set: CC-PVTZ
  Basis Set:
  @DF-RHF Final Energy:  -386.52413026756449
    Total Energy =                       -386.5241302675647148
  Basis Set: CC-PVTZ
  Basis Set:
  Basis Set: CC-PVTZ
  Basis Set:
  @DF-RHF Final Energy:  -386.74637629533311
    Total Energy =                       -386.7463762953328796
  Basis Set: CC-PVTZ
  Basis Set:
  Basis Set: CC-PVTZ
  Basis Set:
  @DF-RHF Final Energy:  -387.05806978901580
    Total Energy =                       -387.0580697890160309
  Basis Set: CC-PVTZ
  Basis Set:
  @DF-RHF Final Energy:  -387.21972998762095
    Total Energy =                       -387.2197299876210081
  @DF-RHF Final Energy:  -387.25269919732187
    Total Energy =                       -387.2526991973218173
  @DF-RHF Final Energy:  -387.25532422065805
    Total Energy =                       -387.2553242206580535
  @DF-RHF Final Energy:  -387.25077175794524
    Total Energy =                       -387.2507717579452446
  @DF-RHF Final Energy:  -387.25544262114192
    Total Energy =                       -387.2554426211420378
  @DF-RHF Final Energy:  -387.25569040856340
    Total Energy =                       -387.2556904085632823
  @DF-RHF Final Energy:  -387.25572183952778
    Total Energy =                       -387.2557218395273821
  Basis Set: CC-PVTZ
  Basis Set:
  @DF-RHF Final Energy:  -387.25572910943663
    Total Energy =                       -387.2557291094367429
  Basis Set: CC-PVTZ
  Basis Set:
  Basis Set: CC-PVTZ
  Basis Set:
  @DF-RHF Final Energy:  -387.25573521604207
    Total Energy =                       -387.2557352160418986
  Basis Set: CC-PVTZ
  Basis Set:
  Basis Set: CC-PVTZ
  Basis Set:
  @DF-RHF Final Energy:  -387.25573674525896
    Total Energy =                       -387.2557367452589006
  Basis Set: CC-PVTZ
  Basis Set:
  Charge       = 0
  Multiplicity = 1
  Basis Set: CC-PVTZ
  Basis Set:

    Orbital Energies (a.u.)
    -----------------------

    Doubly Occupied:

       1A    -20.551049     2A    -11.320762     3A    -11.233401
       4A    -11.231990     5A    -11.222676     6A    -11.218377
       7A    -11.217715     8A    -11.216862     9A    -11.209321
      10A     -1.406084    11A     -1.105230    12A     -1.070133
      13A     -1.013162    14A     -0.941445    15A     -0.884948
      16A     -0.823062    17A     -0.793980    18A     -0.769637
      19A     -0.668553    20A     -0.655494    21A     -0.636887
      22A     -0.629983    23A     -0.610921    24A     -0.590549
      25A     -0.575293    26A     -0.558516    27A     -0.537145
      28A     -0.526179    29A     -0.519277    30A     -0.499264
      31A     -0.484907    32A     -0.480609    33A     -0.460406
      34A     -0.452787    35A     -0.448667    36A     -0.411212

  @DF-RHF Final Energy:  -387.25573724690429

   => Energetics <=

    Nuclear Repulsion Energy =            444.5909472745241260
    One-Electron Energy =               -1405.7403991776131988
    Two-Electron Energy =                 573.8937146561850113
    DFT Exchange-Correlation Energy =       0.0000000000000000
    Empirical Dispersion Energy =           0.0000000000000000
    PCM Polarization Energy =               0.0000000000000000
    EFP Energy =                            0.0000000000000000
    Total Energy =                       -387.2557372469041184
    Molecular point group: c1
  Basis Set: CC-PVTZ
  Basis Set:

  -Total Gradient:
     Atom            X                  Y                   Z
    ------   -----------------  -----------------  -----------------
       1        0.000000533140     0.000005680522    -0.000027833110
       2       -0.000011237765    -0.000006808514     0.000023241955
       3        0.000056543698    -0.000018031584    -0.000012914380
       4       -0.000018439875    -0.000000177132    -0.000003465371
       5       -0.000023335716     0.000015096957     0.000017554195
       6       -0.000000159407     0.000013087581    -0.000001483520
       7       -0.000016224737     0.000003628789     0.000017705642
       8        0.000118042366     0.004161592370    -0.002763602543
       9       -0.000005045997    -0.000006872267    -0.000001531739
      10        0.000004648143     0.000003718391    -0.000008098079
      11       -0.000659095017     0.002096641002    -0.004283395195
      12        0.000066629363    -0.004166836633     0.003533550464
      13       -0.000004749736     0.000003316716    -0.000001516097
      14        0.000467605346    -0.002091909490     0.003511107842
      15        0.000002130642    -0.000002218072     0.000005917704
      16        0.000001224687    -0.000013803291     0.000004008413
      17        0.000009200918     0.000002567876     0.000001764379
      18       -0.000005838189     0.000003509162    -0.000003689662
      19        0.000002988513     0.000008800194    -0.000003539881
      20       -0.000003701020    -0.000007831851    -0.000001720666
      21        0.000012619537     0.000005953496     0.000005288531
      22        0.000004320838    -0.000007870605     0.000000606239
      23       -0.000002607257     0.000003470270    -0.000004675852
      24        0.000002813692    -0.000005626635    -0.000000923664
      25        0.000001133829     0.000000922749    -0.000002355603

  **** Optimization is complete! (in 15 steps) ****
    Final optimized geometry and variables:
    Molecular point group: c1

    Geometry (in Angstrom), charge = 0, multiplicity = 1:

    H           -3.174601624288    -0.294014983184    -0.532051148393
    C           -3.129540367426     0.337340077228     0.365925570557
    C           -2.237714400696    -0.181133129009     1.461523633004
    O           -3.763790534735     1.333344753147     0.420952328736
    C           -0.835918523238    -0.546667753388     0.963584843485
    H           -2.203031037399     0.555051562592     2.254077291719
    H           -2.720146182191    -1.073040262079     1.855661636388
    C           -0.028287950760     0.673297478716     0.513194161028
    H           -0.310773570489    -1.054289480856     1.766029774923
    H           -0.925058456504    -1.265851884990     0.156270531602
    C            1.438127152170     0.393202720646     0.149599791790
    H           -0.040291523483     1.374577695441     1.341710266802
    H           -0.530746724852     1.152913409197    -0.321444748019
    C            1.699804419659    -0.888427417061    -0.642481321183
    H            1.820413957905     1.251584210503    -0.389560396420
    H            2.015936755778     0.335664104696     1.069411354172
    C            3.165172083668    -1.089878151573    -1.036722553181
    H            1.086970319336    -0.900152335500    -1.542150212570
    H            1.389258052233    -1.742221553823    -0.051443353630
    C            3.689156061143    -0.107740162745    -2.081682080712
    H            3.279495274639    -2.098059094428    -1.422756272889
    H            3.786118395551    -1.035751770858    -0.146246840073
    H            3.086780911044    -0.142097132372    -2.983778963928
    H            3.685641628790     0.913400092928    -1.720631501794
    H            4.708937775660    -0.350157494353    -2.357829883831

  Mulliken Charges: (a.u.)
   Center  Symbol    Alpha    Beta     Spin     Total
       1     H     0.46429  0.46429  0.00000  0.07142
       2     C     2.90482  2.90482  0.00000  0.19037
       3     C     3.08871  3.08871  0.00000 -0.17743
       4     O     4.16649  4.16649  0.00000 -0.33298
       5     C     3.12180  3.12180  0.00000 -0.24361
       6     H     0.44310  0.44310  0.00000  0.11381
       7     H     0.44002  0.44002  0.00000  0.11997
       8     C     3.09577  3.09577  0.00000 -0.19153
       9     H     0.44234  0.44234  0.00000  0.11531
      10     H     0.44598  0.44598  0.00000  0.10804
      11     C     3.09927  3.09927  0.00000 -0.19853
      12     H     0.44536  0.44536  0.00000  0.10928
      13     H     0.44621  0.44621  0.00000  0.10759
      14     C     3.10139  3.10139  0.00000 -0.20278
      15     H     0.44423  0.44423  0.00000  0.11153
      16     H     0.45246  0.45246  0.00000  0.09508
      17     C     3.09031  3.09031  0.00000 -0.18063
      18     H     0.45365  0.45365  0.00000  0.09271
      19     H     0.44526  0.44526  0.00000  0.10948
      20     C     3.15128  3.15128  0.00000 -0.30257
      21     H     0.44801  0.44801  0.00000  0.10398
      22     H     0.45452  0.45452  0.00000  0.09095
      23     H     0.45465  0.45465  0.00000  0.09069
      24     H     0.45383  0.45383  0.00000  0.09234
      25     H     0.44625  0.44625  0.00000  0.10750

   Total alpha = 36.00000, Total beta = 36.00000, Total charge = -0.00000

*** Psi4 exiting successfully. Buy a developer a beer!
