  ==> Input File <==

--------------------------------------------------------------------------
set {
	reference rhf
	basis 6-31G*
}

set_num_threads( 4 )
memory 2 gb

molecule MOL {
0 1

H	 3.893188	 0.355400	 -0.101367
N	 3.092854	 -0.246221	 -0.068770
C	 1.865559	 0.531981	 0.018834
H	 3.199514	 -0.826043	 0.741946
C	 0.645745	 -0.382037	 -0.029944
H	 1.841966	 1.207024	 -0.831236
H	 1.815756	 1.155410	 0.915079
C	 -0.679275	 0.379305	 0.025956
H	 0.698998	 -0.976915	 -0.937203
H	 0.693479	 -1.083846	 0.802235
C	 -0.501421	 1.898741	 0.033508
H	 -1.230082	 0.079935	 0.916371
H	 -1.298353	 0.096391	 -0.824073
C	 -1.827828	 2.655412	 0.093542
H	 0.115698	 2.183874	 0.882670
H	 0.046439	 2.201157	 -0.856463
H	 -2.384623	 2.399966	 0.990784
H	 -1.668674	 3.729308	 0.098090
H	 -2.454213	 2.417611	 -0.761727

	symmetry c1
}
set optking {
	frozen_dihedral = ("
		12 8 5 9
	")
}

ee = optimize('scf')
oeprop('DIPOLE', 'QUADRUPOLE', 'MULLIKEN_CHARGES')
f=open( 'psi4out.xyz', 'w' )
f.write( "19  " )
f.write( str(ee) + "\n" )
f.write( MOL.save_string_xyz() )
f.close()
--------------------------------------------------------------------------

    Molecular point group: c1
  Charge       = 0
  Multiplicity = 1
  Basis Set: 6-31G*
  Basis Set:
  @DF-RHF Final Energy:  -251.33689447329670
    Total Energy =                       -251.3368944732969226
    Molecular point group: c1
  Basis Set: 6-31G*
  Basis Set:
  Basis Set: 6-31G*
  Basis Set:
  @DF-RHF Final Energy:  -251.33697979244008
    Total Energy =                       -251.3369797924402747
  Basis Set: 6-31G*
  Basis Set:
  Basis Set: 6-31G*
  Basis Set:
  @DF-RHF Final Energy:  -251.34109806496511
    Total Energy =                       -251.3410980649651947
  Basis Set: 6-31G*
  Basis Set:
  Basis Set: 6-31G*
  Basis Set:
  @DF-RHF Final Energy:  -251.34185801750695
    Total Energy =                       -251.3418580175069792
  Basis Set: 6-31G*
  Basis Set:
  Basis Set: 6-31G*
  Basis Set:
  @DF-RHF Final Energy:  -251.34194835769304
    Total Energy =                       -251.3419483576931270
  Basis Set: 6-31G*
  Basis Set:
  Basis Set: 6-31G*
  Basis Set:
  @DF-RHF Final Energy:  -251.34198658076187
    Total Energy =                       -251.3419865807620113
  Basis Set: 6-31G*
  Basis Set:
  Basis Set: 6-31G*
  Basis Set:
  @DF-RHF Final Energy:  -251.34199009866276
    Total Energy =                       -251.3419900986626772
  Basis Set: 6-31G*
  Basis Set:
  Charge       = 0
  Multiplicity = 1
  Basis Set: 6-31G*
  Basis Set:

    Orbital Energies (a.u.)
    -----------------------

    Doubly Occupied:

       1A    -15.532211     2A    -11.239406     3A    -11.215054
       4A    -11.213264     5A    -11.209895     6A    -11.208193
       7A     -1.176392     8A     -1.069405     9A     -0.994199
      10A     -0.899653    11A     -0.836167    12A     -0.767861
      13A     -0.662580    14A     -0.640634    15A     -0.616821
      16A     -0.586019    17A     -0.572512    18A     -0.548471
      19A     -0.523896    20A     -0.502970    21A     -0.491869
      22A     -0.459506    23A     -0.452259    24A     -0.445444
      25A     -0.380328

  @DF-RHF Final Energy:  -251.34199055181833

   => Energetics <=

    Nuclear Repulsion Energy =            249.2273953548817360
    One-Electron Energy =                -832.6487481665824362
    Two-Electron Energy =                 332.0793622598823163
    DFT Exchange-Correlation Energy =       0.0000000000000000
    Empirical Dispersion Energy =           0.0000000000000000
    PCM Polarization Energy =               0.0000000000000000
    EFP Energy =                            0.0000000000000000
    Total Energy =                       -251.3419905518183555
    Molecular point group: c1
  Basis Set: 6-31G*
  Basis Set:

  -Total Gradient:
     Atom            X                  Y                   Z
    ------   -----------------  -----------------  -----------------
       1        0.000006374472    -0.000005935218    -0.000000819046
       2        0.000013426834     0.000002500745    -0.000002033770
       3       -0.000004670344    -0.000000960458     0.000007086345
       4        0.000000509278     0.000003480335    -0.000001237216
       5        0.000985442921     0.001898335860    -0.001720708629
       6       -0.000002943953    -0.000003007168     0.000002803080
       7        0.000000003747     0.000001430220    -0.000001803340
       8        0.001089279305     0.001670821638     0.001805480177
       9       -0.000997741383    -0.001855738253     0.001156759627
      10       -0.000006626957     0.000011102149    -0.000001531692
      11        0.000001131482     0.000004587031    -0.000027110442
      12       -0.001084262897    -0.001737356822    -0.001236132481
      13       -0.000003195740     0.000013585177     0.000006487435
      14        0.000000102533    -0.000003274958     0.000010587578
      15       -0.000004889839    -0.000003887426     0.000002687044
      16        0.000009787053     0.000003088457    -0.000004694519
      17       -0.000004671368     0.000000415352     0.000001156142
      18        0.000000276891     0.000000372710     0.000000628619
      19        0.000002667963     0.000000440628     0.000002395088

  **** Optimization is complete! (in 8 steps) ****
    Final optimized geometry and variables:
    Molecular point group: c1

    Geometry (in Angstrom), charge = 0, multiplicity = 1:

    H            3.516981755252    -0.687794807563    -0.114414568888
    N            2.660521421359    -1.207513601993    -0.110131525292
    C            1.517552537920    -0.314448739401     0.024959429384
    H            2.708368591856    -1.837717891574     0.668045010722
    C            0.225502059979    -1.126125187245    -0.052633537636
    H            1.563391234449     0.396606752324    -0.792170380765
    H            1.540307496752     0.264571755888     0.949603423805
    C           -1.114445058351    -0.345275063016     0.030753032981
    H            0.257145906797    -1.712094833337    -0.964632952043
    H            0.249806790861    -1.856948475655     0.753519373740
    C           -1.047805949849     1.185880545872    -0.004263511830
    H           -1.650199197470    -0.649231370528     0.926372895913
    H           -1.746304716265    -0.665502117511    -0.793959768894
    C           -2.437774892468     1.818752171577     0.063743105861
    H           -0.449956787298     1.557000280170     0.823343410746
    H           -0.553398880521     1.515184623064    -0.914364319654
    H           -2.951998923411     1.538678536392     0.978878407753
    H           -2.377693921888     2.902457777030     0.036649214621
    H           -3.055198017588     1.500557661938    -0.771537324637

  Mulliken Charges: (a.u.)
   Center  Symbol    Alpha    Beta     Spin     Total
       1     H     0.33240  0.33240  0.00000  0.33520
       2     N     3.92249  3.92249  0.00000 -0.84498
       3     C     3.06327  3.06327  0.00000 -0.12654
       4     H     0.33554  0.33554  0.00000  0.32892
       5     C     3.15645  3.15645  0.00000 -0.31291
       6     H     0.41936  0.41936  0.00000  0.16129
       7     H     0.43325  0.43325  0.00000  0.13350
       8     C     3.15735  3.15735  0.00000 -0.31470
       9     H     0.41002  0.41002  0.00000  0.17996
      10     H     0.42605  0.42605  0.00000  0.14790
      11     C     3.15605  3.15605  0.00000 -0.31210
      12     H     0.42190  0.42190  0.00000  0.15619
      13     H     0.42032  0.42032  0.00000  0.15936
      14     C     3.23911  3.23911  0.00000 -0.47823
      15     H     0.42215  0.42215  0.00000  0.15569
      16     H     0.42150  0.42150  0.00000  0.15700
      17     H     0.42192  0.42192  0.00000  0.15616
      18     H     0.41943  0.41943  0.00000  0.16115
      19     H     0.42143  0.42143  0.00000  0.15713

   Total alpha = 25.00000, Total beta = 25.00000, Total charge =  0.00000
