  ==> Input File <==

--------------------------------------------------------------------------
set {
	reference rhf
	basis 6-31G*
}

set_num_threads( 1 )
memory 2 gb

molecule MOL {
0 1

O	 -2.042549	 -1.228399	 -0.269030
C	 -1.653912	 -0.146171	 0.050137
C	 -0.332303	 0.024011	 0.778412
C	 -2.438579	 1.106236	 -0.272369
C	 -0.359496	 1.266486	 1.682509
H	 -0.106693	 -0.858907	 1.369968
H	 0.443764	 0.137286	 0.029539
C	 0.965232	 1.492622	 2.412570
H	 -1.160208	 1.171897	 2.413943
H	 -0.596000	 2.133237	 1.072632
C	 0.943972	 2.732586	 3.305455
H	 1.200632	 0.617314	 3.014108
H	 1.764947	 1.586554	 1.681680
H	 0.175607	 2.653474	 4.069268
H	 0.742963	 3.628888	 2.726076
H	 1.896373	 2.869543	 3.807653
H	 -3.277823	 0.863061	 -0.908988
H	 -1.806773	 1.843019	 -0.759671
H	 -2.802853	 1.554979	 0.648059

	symmetry c1
}
set optking {
	frozen_dihedral = ("
		11 8 5 9,
		9 5 3 2
	")
}

ee = energy('scf')
oeprop('DIPOLE', 'QUADRUPOLE', 'MULLIKEN_CHARGES')
f=open( 'psi4out.xyz', 'w' )
f.write( "19  " )
f.write( str(ee) + "\n" )
f.write( MOL.save_string_xyz() )
f.close()
--------------------------------------------------------------------------

    Molecular point group: c1

    Geometry (in Angstrom), charge = 0, multiplicity = 1:

       Center              X                  Y                   Z               Mass
    ------------   -----------------  -----------------  -----------------  -----------------
           O         -1.335925743225    -1.991759682772    -1.372966380093    15.994914619560
           C         -0.947288743225    -0.909531682772    -1.053799380093    12.000000000000
           C          0.374320256775    -0.739349682772    -0.325524380093    12.000000000000
           C         -1.731955743225     0.342875317228    -1.376305380093    12.000000000000
           C          0.347127256775     0.503125317228     0.578572619907    12.000000000000
           H          0.599930256775    -1.622267682772     0.266031619907     1.007825032070
           H          1.150387256775    -0.626074682772    -1.074397380093     1.007825032070
           C          1.671855256775     0.729261317228     1.308633619907    12.000000000000
           H         -0.453584743225     0.408536317228     1.310006619907     1.007825032070
           H          0.110623256775     1.369876317228    -0.031304380093     1.007825032070
           C          1.650595256775     1.969225317228     2.201518619907    12.000000000000
           H          1.907255256775    -0.146046682772     1.910171619907     1.007825032070
           H          2.471570256775     0.823193317228     0.577743619907     1.007825032070
           H          0.882230256775     1.890113317228     2.965331619907     1.007825032070
           H          1.449586256775     2.865527317228     1.622139619907     1.007825032070
           H          2.602996256775     2.106182317228     2.703716619907     1.007825032070
           H         -2.571199743225     0.099700317228    -2.012924380093     1.007825032070
           H         -1.100149743225     1.079658317228    -1.863607380093     1.007825032070
           H         -2.096229743225     0.791618317228    -0.455877380093     1.007825032070

  Charge       = 0
  Multiplicity = 1
  Basis Set: 6-31G*
  Basis Set:

    Orbital Energies (a.u.)
    -----------------------

    Doubly Occupied:

       1A    -20.546453     2A    -11.324731     3A    -11.231117
       4A    -11.230469     5A    -11.228169     6A    -11.226444
       7A    -11.217078     8A     -1.392139     9A     -1.097080
      10A     -1.030988    11A     -0.980425    12A     -0.894104
      13A     -0.810025    14A     -0.733118    15A     -0.665280
      16A     -0.649410    17A     -0.627523    18A     -0.613144
      19A     -0.584027    20A     -0.573866    21A     -0.551517
      22A     -0.535483    23A     -0.522349    24A     -0.491487
      25A     -0.486327    26A     -0.477827    27A     -0.471289
      28A     -0.396252

  @DF-RHF Final Energy:  -309.06062745376528

   => Energetics <=

    Nuclear Repulsion Energy =            303.0439369590231991
    One-Electron Energy =               -1019.0329318624102370
    Two-Electron Energy =                 406.9283674496224990
    DFT Exchange-Correlation Energy =       0.0000000000000000
    Empirical Dispersion Energy =           0.0000000000000000
    PCM Polarization Energy =               0.0000000000000000
    EFP Energy =                            0.0000000000000000
    Total Energy =                       -309.0606274537645390

  Mulliken Charges: (a.u.)
   Center  Symbol    Alpha    Beta     Spin     Total
       1     O     4.26304  4.26304  0.00000 -0.52609
       2     C     2.73130  2.73130  0.00000  0.53740
       3     C     3.20314  3.20314  0.00000 -0.40629
       4     C     3.29646  3.29646  0.00000 -0.59292
       5     C     3.16822  3.16822  0.00000 -0.33644
       6     H     0.39898  0.39898  0.00000  0.20205
       7     H     0.40460  0.40460  0.00000  0.19080
       8     C     3.15075  3.15075  0.00000 -0.30151
       9     H     0.41792  0.41792  0.00000  0.16416
      10     H     0.41817  0.41817  0.00000  0.16366
      11     C     3.23994  3.23994  0.00000 -0.47987
      12     H     0.41968  0.41968  0.00000  0.16064
      13     H     0.42147  0.42147  0.00000  0.15706
      14     H     0.42050  0.42050  0.00000  0.15899
      15     H     0.42125  0.42125  0.00000  0.15750
      16     H     0.41688  0.41688  0.00000  0.16624
      17     H     0.39484  0.39484  0.00000  0.21032
      18     H     0.40889  0.40889  0.00000  0.18223
      19     H     0.40396  0.40396  0.00000  0.19208

   Total alpha = 28.00000, Total beta = 28.00000, Total charge =  0.00000
