  ==> Input File <==

--------------------------------------------------------------------------
set {
	reference rhf
	basis 6-31G*
}

set_num_threads( 4 )
memory 2 gb

molecule MOL {
0 1

O	 0.625848	 1.349995	 -0.000749
C	 0.486307	 0.169203	 0.000779
C	 1.608116	 -0.841643	 0.000302
O	 -0.698257	 -0.426125	 0.001050
C	 2.990107	 -0.200498	 -0.000684
H	 1.468623	 -1.481519	 -0.865924
H	 1.469683	 -1.481289	 0.866878
H	 3.129736	 0.423364	 -0.875135
H	 3.757882	 -0.966877	 -0.001197
H	 3.130964	 0.423383	 0.873533
C	 -0.851899	 -1.585754	 -0.810772
C	 -2.274346	 -2.074981	 -0.638694
H	 -0.132506	 -2.331209	 -0.500363
H	 -0.639750	 -1.326887	 -1.839155
H	 -2.472575	 -2.324882	 0.397363
H	 -2.435603	 -2.961899	 -1.242864
H	 -2.982689	 -1.315148	 -0.948791

	symmetry c1
}
set optking {
	frozen_dihedral = ("
		11 4 2 3
	")
}

ee = optimize('scf')
oeprop('DIPOLE', 'QUADRUPOLE', 'MULLIKEN_CHARGES')
f=open( 'psi4out.xyz', 'w' )
f.write( "17  " )
f.write( str(ee) + "\n" )
f.write( MOL.save_string_xyz() )
f.close()
--------------------------------------------------------------------------

    Molecular point group: c1
  Charge       = 0
  Multiplicity = 1
  Basis Set: 6-31G*
  Basis Set:
  @DF-RHF Final Energy:  -344.88645532543143
    Total Energy =                       -344.8864553254314274
    Molecular point group: c1
  Basis Set: 6-31G*
  Basis Set:
  Basis Set: 6-31G*
  Basis Set:
  @DF-RHF Final Energy:  -344.88791001294226
    Total Energy =                       -344.8879100129420294
  Basis Set: 6-31G*
  Basis Set:
  Basis Set: 6-31G*
  Basis Set:
  @DF-RHF Final Energy:  -344.89332244289858
    Total Energy =                       -344.8933224428985795
  Basis Set: 6-31G*
  Basis Set:
  Basis Set: 6-31G*
  Basis Set:
  @DF-RHF Final Energy:  -344.89468270116572
    Total Energy =                       -344.8946827011652658
  Basis Set: 6-31G*
  Basis Set:
  @DF-RHF Final Energy:  -344.89483953119878
    Total Energy =                       -344.8948395311987269
  @DF-RHF Final Energy:  -344.89491833074834
    Total Energy =                       -344.8949183307487374
  Basis Set: 6-31G*
  Basis Set:
  @DF-RHF Final Energy:  -344.89490423394363
    Total Energy =                       -344.8949042339434072
  Basis Set: 6-31G*
  Basis Set:
  Basis Set: 6-31G*
  Basis Set:
  @DF-RHF Final Energy:  -344.89492313570520
    Total Energy =                       -344.8949231357056533
  Basis Set: 6-31G*
  Basis Set:
  Basis Set: 6-31G*
  Basis Set:
  @DF-RHF Final Energy:  -344.89492538544891
    Total Energy =                       -344.8949253854489143
  Basis Set: 6-31G*
  Basis Set:
  Charge       = 0
  Multiplicity = 1
  Basis Set: 6-31G*
  Basis Set:

    Orbital Energies (a.u.)
    -----------------------

    Doubly Occupied:

       1A    -20.593721     2A    -20.544673     3A    -11.372935
       4A    -11.299533     5A    -11.245902     6A    -11.226911
       7A    -11.219717     8A     -1.459712     9A     -1.365529
      10A     -1.063539    11A     -1.044736    12A     -0.901110
      13A     -0.878172    14A     -0.770760    15A     -0.703871
      16A     -0.691965    17A     -0.655006    18A     -0.636608
      19A     -0.596895    20A     -0.567099    21A     -0.560352
      22A     -0.538089    23A     -0.526517    24A     -0.518662
      25A     -0.509547    26A     -0.490722    27A     -0.447853
      28A     -0.431824

  @DF-RHF Final Energy:  -344.89492563955389

   => Energetics <=

    Nuclear Repulsion Energy =            315.0414734985565701
    One-Electron Energy =               -1094.1488762761900944
    Two-Electron Energy =                 434.2124771380796915
    DFT Exchange-Correlation Energy =       0.0000000000000000
    Empirical Dispersion Energy =           0.0000000000000000
    PCM Polarization Energy =               0.0000000000000000
    EFP Energy =                            0.0000000000000000
    Total Energy =                       -344.8949256395538328
    Molecular point group: c1
  Basis Set: 6-31G*
  Basis Set:

  -Total Gradient:
     Atom            X                  Y                   Z
    ------   -----------------  -----------------  -----------------
       1        0.000022400890     0.000021673505    -0.000008686286
       2       -0.000693568185     0.000874940796    -0.005105189182
       3        0.000080027775     0.000019687446     0.002576557073
       4        0.001499555343    -0.002543280650     0.004721989671
       5        0.000009509643    -0.000004127672    -0.000004939319
       6       -0.000014650675     0.000007844241     0.000012163863
       7        0.000003513943    -0.000011105008     0.000007828658
       8        0.000000415582     0.000000467935     0.000001734382
       9        0.000007601694     0.000002898998    -0.000000890395
      10       -0.000000947751    -0.000000923480    -0.000002627256
      11       -0.000912626872     0.001651628063    -0.002176299634
      12       -0.000000389982    -0.000017618352    -0.000006819880
      13       -0.000004491357    -0.000009727752    -0.000020609393
      14        0.000002985805     0.000005475942     0.000007134793
      15        0.000001518160     0.000001915695    -0.000001069938
      16       -0.000005287910    -0.000001723717    -0.000000580146
      17        0.000004433896     0.000001974007     0.000000302987

  **** Optimization is complete! (in 10 steps) ****
    Final optimized geometry and variables:
    Molecular point group: c1

    Geometry (in Angstrom), charge = 0, multiplicity = 1:

    O            0.328767759055     1.792464261232     0.239572307582
    C            0.267079662276     0.613559876353     0.162100461762
    C            1.487565376452    -0.285483467008     0.125212838238
    O           -0.926858029143     0.006440879043     0.206711153487
    C            2.791973007054     0.490731624891     0.264822334307
    H            1.485345634977    -0.852796729442    -0.801476232894
    H            1.379709254970    -1.014387873191     0.923911060728
    H            2.904656905892     1.207438846818    -0.538801344992
    H            3.635389493690    -0.191045638173     0.238871533966
    H            2.820670629207     1.037315376959     1.198994939988
    C           -1.197839567118    -1.158619158781    -0.552961280632
    C           -2.680584499049    -1.441690594255    -0.430485151988
    H           -0.618446322093    -1.995741299466    -0.180425526231
    H           -0.925285792962    -0.989470372999    -1.589124913333
    H           -2.949745854229    -1.602792774109     0.606760877268
    H           -2.938803018274    -2.330072717175    -0.997846220086
    H           -3.257435564220    -0.606341063241    -0.808162776560

  Mulliken Charges: (a.u.)
   Center  Symbol    Alpha    Beta     Spin     Total
       1     O     4.26137  4.26137  0.00000 -0.52274
       2     C     2.60494  2.60494  0.00000  0.79011
       3     C     3.22614  3.22614  0.00000 -0.45228
       4     O     4.31094  4.31094  0.00000 -0.62188
       5     C     3.23545  3.23545  0.00000 -0.47090
       6     H     0.40551  0.40551  0.00000  0.18898
       7     H     0.40130  0.40130  0.00000  0.19739
       8     H     0.40793  0.40793  0.00000  0.18415
       9     H     0.41901  0.41901  0.00000  0.16198
      10     H     0.40763  0.40763  0.00000  0.18474
      11     C     3.00475  3.00475  0.00000 -0.00950
      12     C     3.24521  3.24521  0.00000 -0.49042
      13     H     0.41971  0.41971  0.00000  0.16058
      14     H     0.41771  0.41771  0.00000  0.16459
      15     H     0.40852  0.40852  0.00000  0.18296
      16     H     0.41799  0.41799  0.00000  0.16403
      17     H     0.40589  0.40589  0.00000  0.18821

   Total alpha = 28.00000, Total beta = 28.00000, Total charge =  0.00000
