                              Psi4 1.0.54 Driver

  ==> Input File <==

--------------------------------------------------------------------------
set {
	reference rhf
	basis cc-pvtz
}

set_num_threads( 4 )
memory 2 gb

molecule MOL {
0 1

H	 2.584622	 2.237295	 -2.576274
N	 1.818654	 1.598133	 -2.595835
C	 1.222380	 1.454480	 -1.277017
H	 2.172900	 0.723915	 -2.923862
C	 0.004592	 0.543924	 -1.328063
H	 0.918021	 2.440347	 -0.941846
H	 1.923949	 1.073986	 -0.533392
C	 -0.678115	 0.376691	 0.025731
H	 -0.696562	 0.945491	 -2.052309
H	 0.307255	 -0.432482	 -1.701575
C	 -1.900706	 -0.535531	 -0.022488
H	 -0.976794	 1.352953	 0.400775
H	 0.034162	 -0.019885	 0.745635
C	 -3.220513	 0.226854	 0.028039
H	 -1.865036	 -1.134397	 -0.928236
H	 -1.857948	 -1.236381	 0.806820
H	 -3.309098	 0.911849	 -0.808725
H	 -4.066838	 -0.449485	 -0.008086
H	 -3.301685	 0.809374	 0.939860

	symmetry c1
}
set optking {
	frozen_dihedral = ("
		12 8 11 15
	")
}

ee,wfn = optimize('scf', return_wfn=True)
oeprop( wfn, 'DIPOLE', 'QUADRUPOLE', 'MULLIKEN_CHARGES')
f=open( 'psi4out.xyz', 'w' )
f.write( "19  " )
f.write( str(ee) + "\n" )
f.write( MOL.save_string_xyz() )
f.close()
--------------------------------------------------------------------------

    Molecular point group: c1
  Charge       = 0
  Multiplicity = 1
  Basis Set: CC-PVTZ
  Basis Set:
  @DF-RHF Final Energy:  -251.44301920049648
    Total Energy =                       -251.4430192004966784
    Molecular point group: c1
  Basis Set: CC-PVTZ
  Basis Set:
  Basis Set: CC-PVTZ
  Basis Set:
  @DF-RHF Final Energy:  -251.44333061831003
    Total Energy =                       -251.4433306183100854
  Basis Set: CC-PVTZ
  Basis Set:
  Basis Set: CC-PVTZ
  Basis Set:
  @DF-RHF Final Energy:  -251.44342260548584
    Total Energy =                       -251.4434226054858641
  Basis Set: CC-PVTZ
  Basis Set:
  Basis Set: CC-PVTZ
  Basis Set:
  @DF-RHF Final Energy:  -251.44342370120404
    Total Energy =                       -251.4434237012039830
  Basis Set: CC-PVTZ
  Basis Set:
  Charge       = 0
  Multiplicity = 1
  Basis Set: CC-PVTZ
  Basis Set:

    Orbital Energies (a.u.)
    -----------------------

    Doubly Occupied:

       1A    -15.526465     2A    -11.237755     3A    -11.211713
       4A    -11.210329     5A    -11.208012     6A    -11.205028
       7A     -1.178167     8A     -1.072424     9A     -0.997738
      10A     -0.900908    11A     -0.817305    12A     -0.786274
      13A     -0.665712    14A     -0.637302    15A     -0.612642
      16A     -0.594378    17A     -0.583490    18A     -0.536501
      19A     -0.524210    20A     -0.504322    21A     -0.486895
      22A     -0.462734    23A     -0.455008    24A     -0.449394
      25A     -0.383846

  @DF-RHF Final Energy:  -251.44342394230165

   => Energetics <=

    Nuclear Repulsion Energy =            247.7258780259008404
    One-Electron Energy =                -829.8415071466704376
    Two-Electron Energy =                 330.6722051784678342
    DFT Exchange-Correlation Energy =       0.0000000000000000
    Empirical Dispersion Energy =           0.0000000000000000
    PCM Polarization Energy =               0.0000000000000000
    EFP Energy =                            0.0000000000000000
    Total Energy =                       -251.4434239423018198
    Molecular point group: c1
  Basis Set: CC-PVTZ
  Basis Set:

  -Total Gradient:
     Atom            X                  Y                   Z
    ------   -----------------  -----------------  -----------------
       1        0.000005122406     0.000004806305    -0.000007404849
       2        0.000005899147     0.000013609408     0.000002927035
       3        0.000002475704     0.000000265115    -0.000004098840
       4        0.000000380392    -0.000004739625     0.000000169943
       5       -0.000003040878    -0.000021322297     0.000018741443
       6        0.000004734873     0.000005348543     0.000001328921
       7        0.000001256498     0.000001864755    -0.000004417813
       8        0.000302798245    -0.000612760934     0.003109190402
       9        0.000000198527    -0.000007330767     0.000005861344
      10        0.000000282835    -0.000002754574    -0.000004485108
      11        0.001698817225    -0.002450221450     0.001165853276
      12       -0.000540109363     0.000905227558    -0.002801668938
      13       -0.000009418882    -0.000011559432    -0.000013376454
      14        0.000002340435    -0.000009152374    -0.000004314536
      15       -0.001469567114     0.002170262337    -0.001467461956
      16        0.000012490910     0.000016695703     0.000000414195
      17        0.000001972430     0.000003299080     0.000004213964
      18       -0.000015794081    -0.000000156031    -0.000001488060
      19       -0.000000839311    -0.000001381322     0.000000016031

  **** Optimization is complete! (in 5 steps) ****
    Final optimized geometry and variables:
    Molecular point group: c1

    Geometry (in Angstrom), charge = 0, multiplicity = 1:

    H            2.972183783491     1.646679110324    -1.717570444390
    N            2.222875254481     0.987782487044    -1.725213396167
    C            1.639919436389     0.841548712392    -0.400695965396
    H            2.597554674748     0.119910799014    -2.047347968043
    C            0.446039137468    -0.100383403357    -0.433772022829
    H            1.312755277740     1.822420928324    -0.072316674241
    H            2.356330840478     0.486384584216     0.341539276113
    C           -0.218771554300    -0.279637087935     0.930274759407
    H           -0.273089447800     0.278697978506    -1.152967097489
    H            0.769186256306    -1.070930425315    -0.804777371577
    C           -1.473677955231    -1.170643914372     0.878721040445
    H           -0.492449311404     0.703441939959     1.303246356888
    H            0.504413831128    -0.689391685607     1.627620538859
    C           -2.776465038670    -0.373195783645     0.885259585308
    H           -1.451208743244    -1.771004792880    -0.025284068962
    H           -1.478233944704    -1.861501806403     1.714188789072
    H           -2.810009463235     0.328392661475     0.058104951552
    H           -3.637874065000    -1.026001459982     0.798873586382
    H           -2.881518529783     0.195203642493     1.803239416404

  Mulliken Charges: (a.u.)
   Center  Symbol    Alpha    Beta     Spin     Total
       1     H     0.43022  0.43022  0.00000  0.13957
       2     N     3.68891  3.68891  0.00000 -0.37783
       3     C     3.02853  3.02853  0.00000 -0.05706
       4     H     0.43101  0.43101  0.00000  0.13798
       5     C     3.08249  3.08249  0.00000 -0.16498
       6     H     0.45669  0.45669  0.00000  0.08663
       7     H     0.46856  0.46856  0.00000  0.06288
       8     C     3.10074  3.10074  0.00000 -0.20148
       9     H     0.44867  0.44867  0.00000  0.10266
      10     H     0.45952  0.45952  0.00000  0.08096
      11     C     3.08923  3.08923  0.00000 -0.17846
      12     H     0.45573  0.45573  0.00000  0.08854
      13     H     0.44935  0.44935  0.00000  0.10131
      14     C     3.14763  3.14763  0.00000 -0.29526
      15     H     0.45493  0.45493  0.00000  0.09014
      16     H     0.44851  0.44851  0.00000  0.10299
      17     H     0.45415  0.45415  0.00000  0.09169
      18     H     0.44967  0.44967  0.00000  0.10066
      19     H     0.45546  0.45546  0.00000  0.08907

   Total alpha = 25.00000, Total beta = 25.00000, Total charge = -0.00000

*** Psi4 exiting successfully. Buy a developer a beer!
