  ==> Input File <==

--------------------------------------------------------------------------
set {
	reference rhf
	basis 6-31G*
}

set_num_threads( 4 )
memory 2 gb

molecule MOL {
0 1

H	 -0.007418	 3.804211	 -1.520962
O	 -0.366455	 3.099543	 -1.001130
C	 0.636931	 2.153880	 -0.728908
C	 0.031547	 1.023609	 0.088541
H	 1.447382	 2.610672	 -0.163754
H	 1.062999	 1.772531	 -1.654186
C	 -1.134819	 0.293262	 -0.585751
H	 -0.310107	 1.438918	 1.032510
H	 0.823893	 0.315051	 0.323815
C	 -1.917817	 -0.639439	 0.339494
H	 -0.758119	 -0.268455	 -1.433105
H	 -1.813832	 1.041889	 -0.986690
H	 -2.777680	 -1.057197	 -0.174994
H	 -1.310268	 -1.471279	 0.680599
H	 -2.283753	 -0.111424	 1.216626

	symmetry c1
}
set optking {
	frozen_dihedral = ("
		8 4 7 11
	")
}

ee = optimize('scf')
oeprop('DIPOLE', 'QUADRUPOLE', 'MULLIKEN_CHARGES')
f=open( 'psi4out.xyz', 'w' )
f.write( "15  " )
f.write( str(ee) + "\n" )
f.write( MOL.save_string_xyz() )
f.close()
--------------------------------------------------------------------------

    Molecular point group: c1
  Charge       = 0
  Multiplicity = 1
  Basis Set: 6-31G*
  Basis Set:
  @DF-RHF Final Energy:  -232.14422435536568
    Total Energy =                       -232.1442243553659068
    Molecular point group: c1
  Basis Set: 6-31G*
  Basis Set:
  Basis Set: 6-31G*
  Basis Set:
  @DF-RHF Final Energy:  -232.14487304963387
    Total Energy =                       -232.1448730496337589
  Basis Set: 6-31G*
  Basis Set:
  Basis Set: 6-31G*
  Basis Set:
  @DF-RHF Final Energy:  -232.14493343005739
    Total Energy =                       -232.1449334300574492
  Basis Set: 6-31G*
  Basis Set:
  Basis Set: 6-31G*
  Basis Set:
  @DF-RHF Final Energy:  -232.14493916993473
    Total Energy =                       -232.1449391699349007
  Basis Set: 6-31G*
  Basis Set:
  Charge       = 0
  Multiplicity = 1
  Basis Set: 6-31G*
  Basis Set:

    Orbital Energies (a.u.)
    -----------------------

    Doubly Occupied:

       1A    -20.553256     2A    -11.268290     3A    -11.212079
       4A    -11.208602     5A    -11.204366     6A     -1.359976
       7A     -1.064387     8A     -0.973422     9A     -0.855839
      10A     -0.786457    11A     -0.705468    12A     -0.635882
      13A     -0.611938    14A     -0.591933    15A     -0.545639
      16A     -0.525417    17A     -0.514073    18A     -0.475146
      19A     -0.464581    20A     -0.457261    21A     -0.430028

  @DF-RHF Final Energy:  -232.14494222643501

   => Energetics <=

    Nuclear Repulsion Energy =            188.7082116716433404
    One-Electron Energy =                -688.8182260040164238
    Two-Electron Energy =                 267.9650721059381340
    DFT Exchange-Correlation Energy =       0.0000000000000000
    Empirical Dispersion Energy =           0.0000000000000000
    PCM Polarization Energy =               0.0000000000000000
    EFP Energy =                            0.0000000000000000
    Total Energy =                       -232.1449422264349778
    Molecular point group: c1
  Basis Set: 6-31G*
  Basis Set:

  -Total Gradient:
     Atom            X                  Y                   Z
    ------   -----------------  -----------------  -----------------
       1       -0.000002595245     0.000007744421     0.000003687647
       2        0.000040180748     0.000004178196     0.000057353246
       3       -0.000014417517    -0.000002746332    -0.000086628738
       4       -0.000472156577     0.001585235056    -0.000838663787
       5       -0.000043639770     0.000039322447    -0.000023310666
       6        0.000063596081    -0.000011963103     0.000000049081
       7       -0.000151201471     0.001397247068    -0.001056274150
       8        0.000408011985    -0.001561098682     0.000851006397
       9       -0.000001490869    -0.000010494577     0.000005327701
      10       -0.000047960683    -0.000061461996    -0.000018081452
      11        0.000228113800    -0.001397119700     0.001104402175
      12        0.000000282023     0.000023561431    -0.000021033812
      13        0.000001394016    -0.000014409792     0.000029325566
      14       -0.000002457242    -0.000009682823     0.000000077030
      15       -0.000005659277     0.000011688385    -0.000007236238

  **** Optimization is complete! (in 5 steps) ****
    Final optimized geometry and variables:
    Molecular point group: c1

    Geometry (in Angstrom), charge = 0, multiplicity = 1:

    H            0.583237747205     2.575267641250    -1.103413392357
    O            0.217971164083     1.897940728067    -0.552405745301
    C            1.173245689838     0.887472931451    -0.348437353783
    C            0.544850258921    -0.215859663979     0.484934403847
    H            2.043435522267     1.287874205335     0.168351461504
    H            1.514144074299     0.484935731315    -1.301646593104
    C           -0.611530979921    -0.934159916046    -0.214015501334
    H            0.203520583347     0.207778740334     1.425885040053
    H            1.321070822638    -0.936636402611     0.736549961058
    C           -1.355295608989    -1.890294129218     0.718809800217
    H           -0.220876591022    -1.500201914155    -1.057547349378
    H           -1.302647179400    -0.200718283314    -0.613623407119
    H           -2.153864667089    -2.407375339746     0.195725855111
    H           -0.686641642748    -2.643487985115     1.127343297805
    H           -1.799146100606    -1.355626724926     1.553708947073

  Mulliken Charges: (a.u.)
   Center  Symbol    Alpha    Beta     Spin     Total
       1     H     0.28055  0.28055  0.00000  0.43889
       2     O     4.36951  4.36951  0.00000 -0.73902
       3     C     2.99747  2.99747  0.00000  0.00506
       4     C     3.15878  3.15878  0.00000 -0.31756
       5     H     0.42915  0.42915  0.00000  0.14170
       6     H     0.43268  0.43268  0.00000  0.13464
       7     C     3.15487  3.15487  0.00000 -0.30974
       8     H     0.41527  0.41527  0.00000  0.16946
       9     H     0.42425  0.42425  0.00000  0.15150
      10     C     3.24006  3.24006  0.00000 -0.48011
      11     H     0.42654  0.42654  0.00000  0.14691
      12     H     0.40646  0.40646  0.00000  0.18707
      13     H     0.41975  0.41975  0.00000  0.16050
      14     H     0.42409  0.42409  0.00000  0.15182
      15     H     0.42056  0.42056  0.00000  0.15889

   Total alpha = 21.00000, Total beta = 21.00000, Total charge = -0.00000
