  ==> Input File <==

--------------------------------------------------------------------------
set {
	reference rhf
	basis 6-31G*
}

set_num_threads( 4 )
memory 2 gb

molecule MOL {
0 1

H	 -3.407059	 -1.043082	 0.000000
O	 -3.119761	 -0.140267	 0.000000
C	 -1.777559	 -0.059267	 0.000000
C	 -1.104118	 1.090169	 0.402835
C	 -1.070440	 -1.178174	 -0.422013
H	 -1.659760	 1.953022	 0.728500
C	 0.274546	 1.116030	 0.382003
H	 -1.612549	 -2.052730	 -0.727861
C	 0.308146	 -1.136909	 -0.437247
H	 0.807090	 1.996137	 0.690078
C	 0.997126	 0.003899	 -0.037887
H	 0.856597	 -2.003725	 -0.764194
C	 2.472822	 0.033243	 -0.059581
O	 3.138412	 0.967213	 0.265146
H	 2.948058	 -0.890636	 -0.405654

	symmetry c1
}
set optking {
	frozen_dihedral = ("
		5 3 2 1
	")
}

ee = optimize('scf')
oeprop('DIPOLE', 'QUADRUPOLE', 'MULLIKEN_CHARGES')
f=open( 'psi4out.xyz', 'w' )
f.write( "15  " )
f.write( str(ee) + "\n" )
f.write( MOL.save_string_xyz() )
f.close()
--------------------------------------------------------------------------

    Molecular point group: c1
  Charge       = 0
  Multiplicity = 1
  Basis Set: 6-31G*
  Basis Set:
  @DF-RHF Final Energy:  -418.28702565174308
    Total Energy =                       -418.2870256517434200
    Molecular point group: c1
  Basis Set: 6-31G*
  Basis Set:
  Basis Set: 6-31G*
  Basis Set:
  @DF-RHF Final Energy:  -418.28897117870895
    Total Energy =                       -418.2889711787095166
  Basis Set: 6-31G*
  Basis Set:
  Basis Set: 6-31G*
  Basis Set:
  @DF-RHF Final Energy:  -418.28913439619100
    Total Energy =                       -418.2891343961914572
  Basis Set: 6-31G*
  Basis Set:
  Basis Set: 6-31G*
  Basis Set:
  @DF-RHF Final Energy:  -418.28848755964430
    Total Energy =                       -418.2884875596441816
  Basis Set: 6-31G*
  Basis Set:
  Basis Set: 6-31G*
  Basis Set:
  @DF-RHF Final Energy:  -418.28916056688979
    Total Energy =                       -418.2891605668896773
  Basis Set: 6-31G*
  Basis Set:
  Basis Set: 6-31G*
  Basis Set:
  @DF-RHF Final Energy:  -418.28916327650313
    Total Energy =                       -418.2891632765033592
  Basis Set: 6-31G*
  Basis Set:
  Charge       = 0
  Multiplicity = 1
  Basis Set: 6-31G*
  Basis Set:

    Orbital Energies (a.u.)
    -----------------------

    Doubly Occupied:

       1A    -20.609337     2A    -20.556199     3A    -11.328216
       4A    -11.322902     5A    -11.263206     6A    -11.253636
       7A    -11.245155     8A    -11.239454     9A    -11.237978
      10A     -1.430007    11A     -1.397424    12A     -1.170626
      13A     -1.042845    14A     -1.036970    15A     -0.893137
      16A     -0.858107    17A     -0.802377    18A     -0.756266
      19A     -0.696040    20A     -0.684799    21A     -0.639883
      22A     -0.624508    23A     -0.613592    24A     -0.607639
      25A     -0.575691    26A     -0.556393    27A     -0.549162
      28A     -0.506026    29A     -0.483757    30A     -0.418700
      31A     -0.357074    32A     -0.328286

  @DF-RHF Final Energy:  -418.28916368797451

   => Energetics <=

    Nuclear Repulsion Energy =            401.2872991912292377
    One-Electron Energy =               -1364.9821416582899474
    Two-Electron Energy =                 545.4056787790856333
    DFT Exchange-Correlation Energy =       0.0000000000000000
    Empirical Dispersion Energy =           0.0000000000000000
    PCM Polarization Energy =               0.0000000000000000
    EFP Energy =                            0.0000000000000000
    Total Energy =                       -418.2891636879750195
    Molecular point group: c1
  Basis Set: 6-31G*
  Basis Set:

  -Total Gradient:
     Atom            X                  Y                   Z
    ------   -----------------  -----------------  -----------------
       1        0.000011384945    -0.000032043335     0.002301425773
       2       -0.000085213171     0.000358254116    -0.003804834499
       3        0.000035538397    -0.000979520082     0.003168061391
       4        0.000096463477     0.000030435874    -0.000020119938
       5       -0.000063405245     0.000604788554    -0.001637003210
       6       -0.000012580515    -0.000006796791    -0.000001521239
       7       -0.000032474891     0.000020395323    -0.000007007629
       8        0.000004585882     0.000008067896     0.000000815808
       9        0.000038653185     0.000017927464    -0.000019889587
      10        0.000001403857    -0.000003360510     0.000005913171
      11       -0.000004535745    -0.000027437590     0.000006246905
      12        0.000010313217     0.000003418071     0.000005886294
      13        0.000011531225    -0.000005845485    -0.000002701526
      14        0.000006512624     0.000006648551     0.000001597256
      15       -0.000018177234     0.000005067943     0.000003131031

  **** Optimization is complete! (in 7 steps) ****
    Final optimized geometry and variables:
    Molecular point group: c1

    Geometry (in Angstrom), charge = 0, multiplicity = 1:

    H           -3.471357411991    -1.028951102354    -0.007170339217
    O           -3.116206582234    -0.150761199913     0.005410418301
    C           -1.769461280774    -0.172750032246    -0.009071499064
    C           -1.107790543855     0.988009853636     0.387551552421
    C           -1.052813534013    -1.279500374172    -0.438447763944
    H           -1.689641918230     1.831247092426     0.708718944448
    C            0.266141954403     1.027290659087     0.362114307741
    H           -1.569629056035    -2.167113216482    -0.759937770668
    C            0.330484940163    -1.227739495300    -0.452053859394
    H            0.791708189415     1.912582468099     0.667290891313
    C            1.003252870943    -0.082656528541    -0.055731658323
    H            0.885983495081    -2.088934502504    -0.781746000783
    C            2.478842990336    -0.040363880679    -0.078407515368
    O            3.136428932742     0.899347815304     0.245311508718
    H            2.961955163131    -0.960317941552    -0.424202400456

  Mulliken Charges: (a.u.)
   Center  Symbol    Alpha    Beta     Spin     Total
       1     H     0.26910  0.26910  0.00000  0.46180
       2     O     4.37366  4.37366  0.00000 -0.74732
       3     C     2.78777  2.78777  0.00000  0.42447
       4     C     3.12588  3.12588  0.00000 -0.25176
       5     C     3.14651  3.14651  0.00000 -0.29303
       6     H     0.38552  0.38552  0.00000  0.22895
       7     C     3.07949  3.07949  0.00000 -0.15899
       8     H     0.39807  0.39807  0.00000  0.20386
       9     C     3.09251  3.09251  0.00000 -0.18502
      10     H     0.37470  0.37470  0.00000  0.25060
      11     C     3.06707  3.06707  0.00000 -0.13414
      12     H     0.38990  0.38990  0.00000  0.22020
      13     C     2.83066  2.83066  0.00000  0.33868
      14     O     4.25382  4.25382  0.00000 -0.50763
      15     H     0.42533  0.42533  0.00000  0.14934

   Total alpha = 32.00000, Total beta = 32.00000, Total charge = -0.00000
