  ==> Input File <==

--------------------------------------------------------------------------
set {
	reference rhf
	basis 6-31G*
}

set_num_threads( 4 )
memory 2 gb

molecule MOL {
0 1

O	 1.846825	 1.296220	 0.000415
C	 1.705091	 0.115954	 0.001797
C	 0.381791	 -0.609817	 0.001258
O	 2.721346	 -0.737485	 -0.000216
C	 -0.823008	 0.326187	 0.001381
H	 0.371250	 -1.265087	 -0.865474
H	 0.370908	 -1.265746	 0.867490
C	 -1.977523	 -0.213717	 -0.843994
H	 -0.519006	 1.300361	 -0.368425
H	 -1.154977	 0.481674	 1.023110
C	 -3.194255	 0.713258	 -0.855745
H	 -1.637321	 -0.370904	 -1.866516
H	 -2.276206	 -1.191752	 -0.469668
C	 -4.347931	 0.172692	 -1.699589
H	 -2.898111	 1.689977	 -1.231858
H	 -3.535804	 0.870543	 0.164913
H	 -4.047133	 0.037283	 -2.734673
H	 -5.195046	 0.851447	 -1.687860
H	 -4.689605	 -0.788958	 -1.327034
C	 4.024888	 -0.184556	 -0.001949
H	 4.179030	 0.422472	 -0.882452
H	 4.701782	 -1.024608	 -0.003642
H	 4.181981	 0.421185	 0.878906

	symmetry c1
}
set optking {
	frozen_dihedral = ("
		9 5 3 6
	")
}

ee = optimize('scf')
oeprop('DIPOLE', 'QUADRUPOLE', 'MULLIKEN_CHARGES')
f=open( 'psi4out.xyz', 'w' )
f.write( "23  " )
f.write( str(ee) + "\n" )
f.write( MOL.save_string_xyz() )
f.close()
--------------------------------------------------------------------------

    Molecular point group: c1
  Charge       = 0
  Multiplicity = 1
  Basis Set: 6-31G*
  Basis Set:
  @DF-RHF Final Energy:  -422.97295115140673
    Total Energy =                       -422.9729511514066189
    Molecular point group: c1
  Basis Set: 6-31G*
  Basis Set:
  Basis Set: 6-31G*
  Basis Set:
  @DF-RHF Final Energy:  -422.97318859363764
    Total Energy =                       -422.9731885936378148
  Basis Set: 6-31G*
  Basis Set:
  Basis Set: 6-31G*
  Basis Set:
  @DF-RHF Final Energy:  -422.97259877985636
    Total Energy =                       -422.9725987798567530
  Basis Set: 6-31G*
  Basis Set:
  Basis Set: 6-31G*
  Basis Set:
  @DF-RHF Final Energy:  -422.97328211948889
    Total Energy =                       -422.9732821194889993
  Basis Set: 6-31G*
  Basis Set:
  Basis Set: 6-31G*
  Basis Set:
  @DF-RHF Final Energy:  -422.97329141123583
    Total Energy =                       -422.9732914112361186
  Basis Set: 6-31G*
  Basis Set:
  Charge       = 0
  Multiplicity = 1
  Basis Set: 6-31G*
  Basis Set:

    Orbital Energies (a.u.)
    -----------------------

    Doubly Occupied:

       1A    -20.603884     2A    -20.546087     3A    -11.373110
       4A    -11.281014     5A    -11.235149     6A    -11.218090
       7A    -11.217504     8A    -11.216044     9A    -11.209357
      10A     -1.469831    11A     -1.363248    12A     -1.091722
      13A     -1.043114    14A     -0.986956    15A     -0.931932
      16A     -0.844024    17A     -0.795373    18A     -0.767356
      19A     -0.699902    20A     -0.681922    21A     -0.672134
      22A     -0.647629    23A     -0.609259    24A     -0.599966
      25A     -0.571954    26A     -0.558098    27A     -0.556448
      28A     -0.525504    29A     -0.523184    30A     -0.504043
      31A     -0.483634    32A     -0.469357    33A     -0.463889
      34A     -0.459287    35A     -0.456470    36A     -0.437262

  @DF-RHF Final Energy:  -422.97329112397176

   => Energetics <=

    Nuclear Repulsion Energy =            452.5036753856369387
    One-Electron Energy =               -1472.7264601898457386
    Two-Electron Energy =                 597.2494936802370376
    DFT Exchange-Correlation Energy =       0.0000000000000000
    Empirical Dispersion Energy =           0.0000000000000000
    PCM Polarization Energy =               0.0000000000000000
    EFP Energy =                            0.0000000000000000
    Total Energy =                       -422.9732911239717623
    Molecular point group: c1
  Basis Set: 6-31G*
  Basis Set:

  -Total Gradient:
     Atom            X                  Y                   Z
    ------   -----------------  -----------------  -----------------
       1       -0.000110037225    -0.000063877058    -0.000008464679
       2       -0.000127976611     0.000110217678     0.000034861577
       3        0.002630818444     0.003487361044    -0.001705075772
       4       -0.000093225455    -0.000071406191    -0.000006363807
       5       -0.001458882809    -0.001957950159    -0.003591886942
       6       -0.001863041373    -0.002448106512     0.001822305090
       7       -0.000038704013    -0.000043254948     0.000014047836
       8        0.000066564941    -0.000075879310    -0.000008480060
       9        0.000827509679     0.001048532028     0.003288873509
      10        0.000062491548     0.000010467807     0.000112871581
      11        0.000052070102     0.000016847078     0.000029182504
      12       -0.000004675073    -0.000085361941    -0.000007205077
      13        0.000024964591     0.000047117418     0.000079273127
      14        0.000034396898     0.000033092427    -0.000078141398
      15       -0.000015427182     0.000024044169     0.000033075922
      16       -0.000003572730    -0.000040025271    -0.000003535089
      17       -0.000010504510    -0.000021347880    -0.000006434827
      18        0.000009087428     0.000010051586    -0.000014607908
      19        0.000007351798     0.000018318194     0.000019044457
      20        0.000013432794     0.000002188165    -0.000003467583
      21        0.000000757728    -0.000001036248     0.000001801774
      22        0.000002321006     0.000001122150    -0.000000603904
      23       -0.000005719980    -0.000001114223    -0.000001070333

  **** Optimization is complete! (in 6 steps) ****
    Final optimized geometry and variables:
    Molecular point group: c1

    Geometry (in Angstrom), charge = 0, multiplicity = 1:

    O            1.813194452694     1.205581597903     0.363915314163
    C            1.648666062653     0.028375825850     0.364891261935
    C            0.317067168037    -0.680735688219     0.325330702800
    O            2.648569694223    -0.843212493552     0.403384728078
    C           -0.900252357946     0.250873980228     0.319567827449
    H            0.317636683447    -1.342397648361    -0.536598259965
    H            0.292289601552    -1.350816649480     1.180014006751
    C           -2.074384976203    -0.307947993154    -0.484031616701
    H           -0.606124260654     1.224817613772    -0.053141324632
    H           -1.216649540132     0.421639007723     1.345628743252
    C           -3.304944770209     0.599332326065    -0.454428344179
    H           -1.763435023382    -0.458202659361    -1.516688942528
    H           -2.343963260658    -1.291297349340    -0.101057783643
    C           -4.469132692950     0.052754723888    -1.279877700314
    H           -3.032046512383     1.585691158401    -0.822703193021
    H           -3.625935884263     0.736539331366     0.575858167400
    H           -4.189390454315    -0.064755675816    -2.323005615681
    H           -5.325512096675     0.718687839137    -1.240633829588
    H           -4.788529861633    -0.918576138260    -0.912660118555
    C            3.961499930840    -0.314201933621     0.441930464856
    H            4.156565840795     0.283263238635    -0.436970388165
    H            4.622285427426    -1.166608348494     0.468769905366
    H            4.099930345626     0.294923049855     1.323562243933

  Mulliken Charges: (a.u.)
   Center  Symbol    Alpha    Beta     Spin     Total
       1     O     4.28521  4.28521  0.00000 -0.57042
       2     C     2.60926  2.60926  0.00000  0.78149
       3     C     3.21044  3.21044  0.00000 -0.42089
       4     O     4.30592  4.30592  0.00000 -0.61185
       5     C     3.15830  3.15830  0.00000 -0.31659
       6     H     0.39896  0.39896  0.00000  0.20209
       7     H     0.39873  0.39873  0.00000  0.20255
       8     C     3.15460  3.15460  0.00000 -0.30921
       9     H     0.39845  0.39845  0.00000  0.20309
      10     H     0.41810  0.41810  0.00000  0.16380
      11     C     3.15228  3.15228  0.00000 -0.30456
      12     H     0.42273  0.42273  0.00000  0.15454
      13     H     0.42415  0.42415  0.00000  0.15169
      14     C     3.23954  3.23954  0.00000 -0.47908
      15     H     0.42032  0.42032  0.00000  0.15935
      16     H     0.42220  0.42220  0.00000  0.15560
      17     H     0.42152  0.42152  0.00000  0.15696
      18     H     0.41858  0.41858  0.00000  0.16284
      19     H     0.42203  0.42203  0.00000  0.15593
      20     C     3.09218  3.09218  0.00000 -0.18437
      21     H     0.40908  0.40908  0.00000  0.18184
      22     H     0.40842  0.40842  0.00000  0.18316
      23     H     0.40898  0.40898  0.00000  0.18204

   Total alpha = 36.00000, Total beta = 36.00000, Total charge = -0.00000
