                              Psi4 1.0.54 Driver

  ==> Input File <==

--------------------------------------------------------------------------
set {
	reference rhf
	basis cc-pvtz
}

set_num_threads( 4 )
memory 2 gb

molecule MOL {
0 1

O	 -2.071633	 -1.227563	 -0.223463
C	 -1.652164	 -0.152425	 0.058082
C	 -0.327811	 0.006324	 0.778296
C	 -2.402515	 1.108629	 -0.298924
C	 0.843231	 -0.001575	 -0.211665
H	 -0.319484	 0.928173	 1.350354
H	 -0.227804	 -0.823091	 1.466705
C	 1.383910	 1.396708	 -0.495745
H	 0.531674	 -0.460840	 -1.146386
H	 1.634331	 -0.624516	 0.191410
C	 2.556835	 1.392616	 -1.470112
H	 0.585993	 2.017779	 -0.893394
H	 1.692177	 1.856140	 0.438831
H	 2.269793	 0.970400	 -2.427387
H	 3.382948	 0.804914	 -1.084738
H	 2.920457	 2.397846	 -1.648142
H	 -3.240910	 0.874416	 -0.936711
H	 -1.747554	 1.818823	 -0.790984
H	 -2.760419	 1.579708	 0.610998

	symmetry c1
}
set optking {
	frozen_dihedral = ("
		9 5 3 2
	")
}

ee,wfn = optimize('scf', return_wfn=True)
oeprop( wfn, 'DIPOLE', 'QUADRUPOLE', 'MULLIKEN_CHARGES')
f=open( 'psi4out.xyz', 'w' )
f.write( "19  " )
f.write( str(ee) + "\n" )
f.write( MOL.save_string_xyz() )
f.close()
--------------------------------------------------------------------------

    Molecular point group: c1
  Charge       = 0
  Multiplicity = 1
  Basis Set: CC-PVTZ
  Basis Set:
  @DF-RHF Final Energy:  -309.17175860322658
    Total Energy =                       -309.1717586032267491
    Molecular point group: c1
  Basis Set: CC-PVTZ
  Basis Set:
  Basis Set: CC-PVTZ
  Basis Set:
  @DF-RHF Final Energy:  -309.17202761016057
    Total Energy =                       -309.1720276101606260
  Basis Set: CC-PVTZ
  Basis Set:
  Basis Set: CC-PVTZ
  Basis Set:
  @DF-RHF Final Energy:  -309.17221272153103
    Total Energy =                       -309.1722127215310820
  Basis Set: CC-PVTZ
  Basis Set:
  Basis Set: CC-PVTZ
  Basis Set:
  @DF-RHF Final Energy:  -309.17229274905412
    Total Energy =                       -309.1722927490541224
  Basis Set: CC-PVTZ
  Basis Set:
  @DF-RHF Final Energy:  -309.17234550619293
    Total Energy =                       -309.1723455061928121
  @DF-RHF Final Energy:  -309.17240235910003
    Total Energy =                       -309.1724023591001469
  @DF-RHF Final Energy:  -309.15883673147562
    Total Energy =                       -309.1588367314756169
  @DF-RHF Final Energy:  -309.17226306374107
    Total Energy =                       -309.1722630637411271
  @DF-RHF Final Energy:  -309.17270474257583
    Total Energy =                       -309.1727047425754904
  @DF-RHF Final Energy:  -309.17295157854619
    Total Energy =                       -309.1729515785459625
  @DF-RHF Final Energy:  -309.17350901041959
    Total Energy =                       -309.1735090104195933
  @DF-RHF Final Energy:  -309.17335344485144
    Total Energy =                       -309.1733534448515002
  @DF-RHF Final Energy:  -309.13678028795903
    Total Energy =                       -309.1367802879586861
  @DF-RHF Final Energy:  -309.17335095637111
    Total Energy =                       -309.1733509563712232
  @DF-RHF Final Energy:  -309.17387645360282
    Total Energy =                       -309.1738764536028725
  @DF-RHF Final Energy:  -309.17423631922037
    Total Energy =                       -309.1742363192203129
  @DF-RHF Final Energy:  -309.17441195542352
    Total Energy =                       -309.1744119554232384
  @DF-RHF Final Energy:  -309.17470289655705
    Total Energy =                       -309.1747028965568234
  @DF-RHF Final Energy:  -309.17499868927302
    Total Energy =                       -309.1749986892731386
  @DF-RHF Final Energy:  -309.17545039259528
    Total Energy =                       -309.1754503925951667
  @DF-RHF Final Energy:  -309.17573078598576
    Total Energy =                       -309.1757307859858770
  @DF-RHF Final Energy:  -309.17550616961893
    Total Energy =                       -309.1755061696190978
  @DF-RHF Final Energy:  -309.17588990042213
    Total Energy =                       -309.1758899004221917
  @DF-RHF Final Energy:  -309.17591030443242
    Total Energy =                       -309.1759103044324775
  @DF-RHF Final Energy:  -309.17591405503481
    Total Energy =                       -309.1759140550349230
  Basis Set: CC-PVTZ
  Basis Set:
  @DF-RHF Final Energy:  -309.17591605302295
    Total Energy =                       -309.1759160530229451
  Basis Set: CC-PVTZ
  Basis Set:
  Basis Set: CC-PVTZ
  Basis Set:
  @DF-RHF Final Energy:  -309.17591809397885
    Total Energy =                       -309.1759180939790781
  Basis Set: CC-PVTZ
  Basis Set:
  Basis Set: CC-PVTZ
  Basis Set:
  @DF-RHF Final Energy:  -309.17591917211121
    Total Energy =                       -309.1759191721112643
  Basis Set: CC-PVTZ
  Basis Set:
  Charge       = 0
  Multiplicity = 1
  Basis Set: CC-PVTZ
  Basis Set:

    Orbital Energies (a.u.)
    -----------------------

    Doubly Occupied:

       1A    -20.540104     2A    -11.322212     3A    -11.230726
       4A    -11.227355     5A    -11.215129     6A    -11.213764
       7A    -11.205925     8A     -1.400480     9A     -1.084835
      10A     -1.030561    11A     -0.983082    12A     -0.886472
      13A     -0.802165    14A     -0.731153    15A     -0.668751
      16A     -0.633633    17A     -0.628080    18A     -0.616249
      19A     -0.580902    20A     -0.572014    21A     -0.559537
      22A     -0.523295    23A     -0.517238    24A     -0.497526
      25A     -0.476412    26A     -0.467885    27A     -0.459673
      28A     -0.404771

  @DF-RHF Final Energy:  -309.17591943527395

   => Energetics <=

    Nuclear Repulsion Energy =            304.5347247963168229
    One-Electron Energy =               -1022.4614324569533892
    Two-Electron Energy =                 408.7507882253624985
    DFT Exchange-Correlation Energy =       0.0000000000000000
    Empirical Dispersion Energy =           0.0000000000000000
    PCM Polarization Energy =               0.0000000000000000
    EFP Energy =                            0.0000000000000000
    Total Energy =                       -309.1759194352740678
    Molecular point group: c1
  Basis Set: CC-PVTZ
  Basis Set:

  -Total Gradient:
     Atom            X                  Y                   Z
    ------   -----------------  -----------------  -----------------
       1       -0.000002853582    -0.000010688463    -0.000030249441
       2       -0.000337741756    -0.002295394961     0.001007278584
       3        0.000455963452     0.003815455986    -0.001904638916
       4        0.000006507513    -0.000020502164    -0.000019460964
       5       -0.000042818620    -0.004085573468     0.003106940719
       6        0.000023693298     0.000002571390     0.000011058133
       7       -0.000002238701     0.000008187035     0.000006984345
       8        0.000008481117     0.000002222173     0.000004163168
       9       -0.000097889359     0.002546414392    -0.002211767503
      10       -0.000007445345     0.000007813771     0.000009221200
      11        0.000000602312     0.000001414781    -0.000000981543
      12        0.000001387627    -0.000000587336    -0.000000895084
      13        0.000002070581     0.000002930633    -0.000001008560
      14       -0.000000075440    -0.000000774736    -0.000001642283
      15       -0.000001529139     0.000000746723     0.000000006191
      16        0.000000955663     0.000000342647     0.000000186307
      17       -0.000000867418    -0.000005469993    -0.000006556639
      18        0.000001784931     0.000034132779     0.000002149580
      19       -0.000007987132    -0.000003241189     0.000029212704

  **** Optimization is complete! (in 29 steps) ****
    Final optimized geometry and variables:
    Molecular point group: c1

    Geometry (in Angstrom), charge = 0, multiplicity = 1:

    O           -1.457653109133    -0.747685428860    -0.961044448286
    C           -1.513329566340    -0.178771580864     0.079418308850
    C           -0.304241813995     0.020739182221     0.975961694252
    C           -2.816124804467     0.391242947365     0.593452801792
    C            1.030297293184    -0.442259027819     0.385791628794
    H           -0.269951617872     1.066281416771     1.268201195094
    H           -0.529260656611    -0.521434228970     1.891260910606
    C            1.862443685751     0.707522560455    -0.181708900169
    H            0.831693824521    -1.142698465438    -0.413814347300
    H            1.605694590025    -0.959690742744     1.145288796283
    C            3.170088800578     0.239122174224    -0.809470273543
    H            1.275117654414     1.236705051258    -0.927138564635
    H            2.077320285950     1.424366909875     0.606819104486
    H            2.984954337338    -0.448087970266    -1.627739643083
    H            3.791547156999    -0.273207554119    -0.082201075904
    H            3.739456452838     1.074540922094    -1.200350371773
    H           -3.629873156790     0.077146598899    -0.041886096845
    H           -2.759599593288     1.474770949354     0.596039696710
    H           -2.999535521116     0.075185198318     1.613869252086

  Mulliken Charges: (a.u.)
   Center  Symbol    Alpha    Beta     Spin     Total
       1     O     4.17188  4.17188  0.00000 -0.34375
       2     C     2.85856  2.85856  0.00000  0.28289
       3     C     3.12167  3.12167  0.00000 -0.24333
       4     C     3.15080  3.15080  0.00000 -0.30159
       5     C     3.09602  3.09602  0.00000 -0.19204
       6     H     0.44400  0.44400  0.00000  0.11200
       7     H     0.43634  0.43634  0.00000  0.12732
       8     C     3.08222  3.08222  0.00000 -0.16444
       9     H     0.43876  0.43876  0.00000  0.12249
      10     H     0.44761  0.44761  0.00000  0.10477
      11     C     3.15139  3.15139  0.00000 -0.30278
      12     H     0.45231  0.45231  0.00000  0.09538
      13     H     0.45712  0.45712  0.00000  0.08576
      14     H     0.45145  0.45145  0.00000  0.09711
      15     H     0.45619  0.45619  0.00000  0.08762
      16     H     0.44878  0.44878  0.00000  0.10244
      17     H     0.43535  0.43535  0.00000  0.12930
      18     H     0.44881  0.44881  0.00000  0.10237
      19     H     0.45075  0.45075  0.00000  0.09849

   Total alpha = 28.00000, Total beta = 28.00000, Total charge = -0.00000

*** Psi4 exiting successfully. Buy a developer a beer!
