  ==> Input File <==

--------------------------------------------------------------------------
set {
	reference rhf
	basis cc-pvtz
}

set_num_threads( 4 )
memory 2 gb

molecule MOL {
0 1

H	 -3.436473	 1.252944	 -1.023892
O	 -3.458596	 0.315260	 -0.960865
C	 -3.176635	 -0.080824	 0.355601
C	 -1.763371	 0.265266	 0.799691
H	 -3.321825	 -1.153438	 0.379502
H	 -3.895468	 0.357385	 1.043382
C	 -0.673390	 -0.426948	 -0.013392
H	 -1.631049	 1.344913	 0.747560
H	 -1.664587	 -0.001624	 1.849167
C	 0.737842	 -0.043159	 0.423759
H	 -0.806103	 -0.190518	 -1.063345
H	 -0.797221	 -1.503753	 0.074146
C	 1.824000	 -0.743224	 -0.390623
H	 0.850588	 1.033777	 0.343840
H	 0.868587	 -0.286314	 1.476203
C	 3.255957	 -0.453067	 0.062319
H	 1.718250	 -0.470599	 -1.438164
H	 1.658105	 -1.815850	 -0.339904
C	 4.239312	 -1.600518	 -0.155653
H	 3.237951	 -0.207675	 1.119785
H	 3.620201	 0.435014	 -0.447640
H	 3.897912	 -2.504623	 0.338430
H	 5.214476	 -1.352975	 0.248104
H	 4.371307	 -1.827923	 -1.206590

	symmetry c1
}
set optking {
	frozen_dihedral = ("
		20 16 13 17
	")
}

ee = optimize('scf')
oeprop('DIPOLE', 'QUADRUPOLE', 'MULLIKEN_CHARGES')
f=open( 'psi4out.xyz', 'w' )
f.write( "24  " )
f.write( str(ee) + "\n" )
f.write( MOL.save_string_xyz() )
f.close()
--------------------------------------------------------------------------

    Molecular point group: c1
  Charge       = 0
  Multiplicity = 1
  Basis Set: CC-PVTZ
  Basis Set:
  @DF-RHF Final Energy:  -349.37877173699758
    Total Energy =                       -349.3787717369976917
    Molecular point group: c1
  Basis Set: CC-PVTZ
  Basis Set:
  Basis Set: CC-PVTZ
  Basis Set:
  @DF-RHF Final Energy:  -349.37954658564092
    Total Energy =                       -349.3795465856405826
  Basis Set: CC-PVTZ
  Basis Set:
  Basis Set: CC-PVTZ
  Basis Set:
  @DF-RHF Final Energy:  -349.37959519326409
    Total Energy =                       -349.3795951932639809
  Basis Set: CC-PVTZ
  Basis Set:
  Basis Set: CC-PVTZ
  Basis Set:
  @DF-RHF Final Energy:  -349.37959807579574
    Total Energy =                       -349.3795980757959683
  Basis Set: CC-PVTZ
  Basis Set:
  Charge       = 0
  Multiplicity = 1
  Basis Set: CC-PVTZ
  Basis Set:

    Orbital Energies (a.u.)
    -----------------------

    Doubly Occupied:

       1A    -20.546310     2A    -11.265528     3A    -11.215203
       4A    -11.211478     5A    -11.210630     6A    -11.209136
       7A    -11.208877     8A    -11.205710     9A     -1.364161
      10A     -1.089430    11A     -1.049566    12A     -0.989122
      13A     -0.914889    14A     -0.842917    15A     -0.798239
      16A     -0.788468    17A     -0.681685    18A     -0.657718
      19A     -0.630259    20A     -0.615928    21A     -0.592486
      22A     -0.587610    23A     -0.552892    24A     -0.540064
      25A     -0.530987    26A     -0.502090    27A     -0.496391
      28A     -0.473809    29A     -0.465833    30A     -0.460699
      31A     -0.457180    32A     -0.455758    33A     -0.420410

  @DF-RHF Final Energy:  -349.37959886565341

   => Energetics <=

    Nuclear Repulsion Energy =            380.9663383837519177
    One-Electron Energy =               -1228.6289390061456288
    Two-Electron Energy =                 498.2830017567400773
    DFT Exchange-Correlation Energy =       0.0000000000000000
    Empirical Dispersion Energy =           0.0000000000000000
    PCM Polarization Energy =               0.0000000000000000
    EFP Energy =                            0.0000000000000000
    Total Energy =                       -349.3795988656536338
    Molecular point group: c1
  Basis Set: CC-PVTZ
  Basis Set:

  -Total Gradient:
     Atom            X                  Y                   Z
    ------   -----------------  -----------------  -----------------
       1        0.000000160707    -0.000000659681     0.000002165432
       2       -0.000001675193    -0.000001427982     0.000001265278
       3        0.000004782637    -0.000003864655    -0.000002726808
       4        0.000009555834    -0.000005630549     0.000000464314
       5       -0.000001070686    -0.000000409354    -0.000003479902
       6        0.000003837355    -0.000000883903     0.000001812080
       7       -0.000030597216     0.000014465306     0.000001913533
       8        0.000001678674     0.000001204626    -0.000001982851
       9       -0.000003170036     0.000002278370     0.000002750145
      10       -0.000025096883     0.000005131955    -0.000023262276
      11        0.000000925668     0.000001717615     0.000001263789
      12        0.000003437686    -0.000004603676     0.000002297063
      13        0.001532828404    -0.003856329938    -0.001565290743
      14       -0.000004364257     0.000006716526    -0.000009963249
      15        0.000027467944    -0.000001078553    -0.000001903844
      16        0.000689674725    -0.004191744598     0.001609205533
      17       -0.001413067996     0.003896848719     0.001070735511
      18       -0.000001138346     0.000018409634    -0.000005980994
      19        0.000039068271     0.000034190690     0.000003970373
      20       -0.000822474766     0.004068177347    -0.001067392269
      21        0.000016693742     0.000005435249    -0.000004669340
      22       -0.000013517118     0.000023596088     0.000002737652
      23       -0.000003948927    -0.000015255243    -0.000004833878
      24       -0.000009990232     0.000003716012    -0.000009094548

  **** Optimization is complete! (in 5 steps) ****
    Final optimized geometry and variables:
    Molecular point group: c1

    Geometry (in Angstrom), charge = 0, multiplicity = 1:

    H           -3.446995550906     1.666690036634    -1.032576647968
    O           -3.499968746424     0.729289494266    -0.986196744830
    C           -3.252515922198     0.302542807636     0.327546561739
    C           -1.836124351374     0.594769899060     0.799524266691
    H           -3.432857831319    -0.764995999015     0.330525566103
    H           -3.967919622150     0.752457197608     1.011336368016
    C           -0.756051958894    -0.118191823287    -0.008877513960
    H           -1.668066976245     1.670275059503     0.768588051949
    H           -1.762818568685     0.306835752453     1.845484513431
    C            0.659157182045     0.212138267589     0.455885416941
    H           -0.865348191006     0.139193475794    -1.056551703070
    H           -0.915036730839    -1.192000297193     0.058845535672
    C            1.743273734928    -0.517852605524    -0.335407972754
    H            0.821623201394     1.285155562480     0.377674249147
    H            0.760725333356    -0.033013738077     1.510579876744
    C            3.163489523538    -0.120544904013     0.084073907260
    H            1.601811926149    -0.284457597469    -1.386893882356
    H            1.606661320934    -1.589583302247    -0.223318269063
    C            4.207547456337    -1.196981843471    -0.186210033172
    H            3.170466410083     0.158906647076     1.133707496283
    H            3.443034556470     0.785636248935    -0.446778116541
    H            3.997647062641    -2.096154227573     0.383322692411
    H            5.202071052020    -0.858829934543     0.081683186143
    H            4.222787706127    -1.469673756928    -1.236494076290

  Mulliken Charges: (a.u.)
   Center  Symbol    Alpha    Beta     Spin     Total
       1     H     0.39531  0.39531  0.00000  0.20937
       2     O     4.20371  4.20371  0.00000 -0.40741
       3     C     2.97773  2.97773  0.00000  0.04455
       4     C     3.10232  3.10232  0.00000 -0.20464
       5     H     0.45889  0.45889  0.00000  0.08222
       6     H     0.46026  0.46026  0.00000  0.07947
       7     C     3.08845  3.08845  0.00000 -0.17691
       8     H     0.45903  0.45903  0.00000  0.08194
       9     H     0.45333  0.45333  0.00000  0.09334
      10     C     3.08915  3.08915  0.00000 -0.17830
      11     H     0.44644  0.44644  0.00000  0.10711
      12     H     0.45526  0.45526  0.00000  0.08948
      13     C     3.08736  3.08736  0.00000 -0.17472
      14     H     0.45503  0.45503  0.00000  0.08995
      15     H     0.45612  0.45612  0.00000  0.08776
      16     C     3.08550  3.08550  0.00000 -0.17099
      17     H     0.45349  0.45349  0.00000  0.09302
      18     H     0.45491  0.45491  0.00000  0.09018
      19     C     3.14861  3.14861  0.00000 -0.29723
      20     H     0.45551  0.45551  0.00000  0.08898
      21     H     0.45420  0.45420  0.00000  0.09161
      22     H     0.45570  0.45570  0.00000  0.08860
      23     H     0.44937  0.44937  0.00000  0.10125
      24     H     0.45432  0.45432  0.00000  0.09137

   Total alpha = 33.00000, Total beta = 33.00000, Total charge =  0.00000
