                              Psi4 1.0.54 Driver

  ==> Input File <==

--------------------------------------------------------------------------
set {
	reference rhf
	basis cc-pvtz
}

set_num_threads( 4 )
memory 2 gb

molecule MOL {
0 1

H	 -2.698799	 -0.000846	 0.036018
C	 -1.694291	 -0.000483	 0.434279
O	 -0.828718	 -0.000608	 -0.655022
H	 -1.576855	 0.881100	 1.056504
H	 -1.576401	 -0.881658	 1.057001
C	 -0.736590	 1.156645	 -1.448844
C	 -2.044226	 1.483896	 -2.161069
C	 -0.181000	 2.350815	 -0.681037
H	 -0.009718	 0.882107	 -2.203102
H	 -2.429729	 0.605437	 -2.663818
H	 -1.875007	 2.254489	 -2.904236
H	 -2.802360	 1.849813	 -1.478484
H	 0.725673	 2.073595	 -0.157456
H	 0.055858	 3.152987	 -1.370379
H	 -0.889648	 2.739653	 0.040881

	symmetry c1
}
set optking {
	frozen_dihedral = ("
		6 3 2 1
	")
}

ee,wfn = optimize('scf', return_wfn=True)
oeprop( wfn, 'DIPOLE', 'QUADRUPOLE', 'MULLIKEN_CHARGES')
f=open( 'psi4out.xyz', 'w' )
f.write( "15  " )
f.write( str(ee) + "\n" )
f.write( MOL.save_string_xyz() )
f.close()
--------------------------------------------------------------------------

    Molecular point group: c1
  Charge       = 0
  Multiplicity = 1
  Basis Set: CC-PVTZ
  Basis Set:
  @DF-RHF Final Energy:  -232.22381717989120
    Total Energy =                       -232.2238171798911139
    Molecular point group: c1
  Basis Set: CC-PVTZ
  Basis Set:
  Basis Set: CC-PVTZ
  Basis Set:
  @DF-RHF Final Energy:  -232.22563354993693
    Total Energy =                       -232.2256335499370152
  Basis Set: CC-PVTZ
  Basis Set:
  Basis Set: CC-PVTZ
  Basis Set:
  @DF-RHF Final Energy:  -232.22610331125887
    Total Energy =                       -232.2261033112588962
  Basis Set: CC-PVTZ
  Basis Set:
  Basis Set: CC-PVTZ
  Basis Set:
  @DF-RHF Final Energy:  -232.22610733631802
    Total Energy =                       -232.2261073363181936
  Basis Set: CC-PVTZ
  Basis Set:
  Basis Set: CC-PVTZ
  Basis Set:
  @DF-RHF Final Energy:  -232.22611254652330
    Total Energy =                       -232.2261125465232681
  Basis Set: CC-PVTZ
  Basis Set:
  Charge       = 0
  Multiplicity = 1
  Basis Set: CC-PVTZ
  Basis Set:

    Orbital Energies (a.u.)
    -----------------------

    Doubly Occupied:

       1A    -20.541789     2A    -11.272641     3A    -11.258584
       4A    -11.209206     5A    -11.208157     6A     -1.373518
       7A     -1.051578     8A     -0.940410     9A     -0.931451
      10A     -0.781490    11A     -0.675758    12A     -0.642458
      13A     -0.635036    14A     -0.573774    15A     -0.565347
      16A     -0.552818    17A     -0.534063    18A     -0.498505
      19A     -0.497299    20A     -0.444811    21A     -0.409384

  @DF-RHF Final Energy:  -232.22611267251273

   => Energetics <=

    Nuclear Repulsion Energy =            199.0418037884800810
    One-Electron Energy =                -709.3396794329402155
    Two-Electron Energy =                 278.0717629719475781
    DFT Exchange-Correlation Energy =       0.0000000000000000
    Empirical Dispersion Energy =           0.0000000000000000
    PCM Polarization Energy =               0.0000000000000000
    EFP Energy =                            0.0000000000000000
    Total Energy =                       -232.2261126725125564
    Molecular point group: c1
  Basis Set: CC-PVTZ
  Basis Set:

  -Total Gradient:
     Atom            X                  Y                   Z
    ------   -----------------  -----------------  -----------------
       1        0.000024190337    -0.000515427589    -0.000001680697
       2        0.000152779498     0.000737388829     0.000140441731
       3       -0.000482494942    -0.000367800483    -0.000349559104
       4       -0.000006971792    -0.000009544548    -0.000008570869
       5       -0.000008805160    -0.000003841755     0.000001796124
       6        0.000327771350     0.000151698980     0.000216232434
       7        0.000004133630     0.000004211759    -0.000000656262
       8       -0.000016189296    -0.000009565132     0.000001451914
       9        0.000002837020     0.000016061893    -0.000008707611
      10       -0.000000030705    -0.000003737746     0.000010469735
      11       -0.000001869022    -0.000001417752    -0.000001009318
      12        0.000004275601     0.000005831935    -0.000001615575
      13       -0.000002342062    -0.000001041473     0.000005670503
      14        0.000001062943    -0.000007115122    -0.000002892209
      15        0.000001652602     0.000004298203    -0.000001370798

  **** Optimization is complete! (in 6 steps) ****
    Final optimized geometry and variables:
    Molecular point group: c1

    Geometry (in Angstrom), charge = 0, multiplicity = 1:

    H           -1.597985949566    -1.038760697935     1.029741872806
    C           -0.553632704512    -0.999602784645     1.323822358946
    O            0.300993807712    -0.986676940818     0.225814390747
    H           -0.408350775487    -0.145257477933     1.976909466058
    H           -0.329227951164    -1.894991906049     1.885971011464
    C            0.346444413934     0.161855490064    -0.584533397224
    C           -1.005922700302     0.503214748961    -1.199386320027
    C            0.974740796776     1.352418309118     0.131554515852
    H            1.011966808583    -0.127062645459    -1.388444278068
    H           -1.438071647722    -0.370215795195    -1.672418411551
    H           -0.883687171376     1.272345343511    -1.953101001833
    H           -1.706915527167     0.876366589568    -0.461562905018
    H            1.915452254587     1.064102625504     0.584014526262
    H            1.167638975308     2.149009638864    -0.577915187455
    H            0.330423894301     1.753951984176     0.904869997042

  Mulliken Charges: (a.u.)
   Center  Symbol    Alpha    Beta     Spin     Total
       1     H     0.46869  0.46869  0.00000  0.06263
       2     C     3.03934  3.03934  0.00000 -0.07869
       3     O     4.18325  4.18325  0.00000 -0.36649
       4     H     0.47095  0.47095  0.00000  0.05811
       5     H     0.44133  0.44133  0.00000  0.11735
       6     C     2.93392  2.93392  0.00000  0.13215
       7     C     3.16067  3.16067  0.00000 -0.32135
       8     C     3.15571  3.15571  0.00000 -0.31141
       9     H     0.44701  0.44701  0.00000  0.10598
      10     H     0.44381  0.44381  0.00000  0.11238
      11     H     0.44871  0.44871  0.00000  0.10258
      12     H     0.45540  0.45540  0.00000  0.08921
      13     H     0.44425  0.44425  0.00000  0.11150
      14     H     0.45070  0.45070  0.00000  0.09860
      15     H     0.45627  0.45627  0.00000  0.08746

   Total alpha = 21.00000, Total beta = 21.00000, Total charge = -0.00000

*** Psi4 exiting successfully. Buy a developer a beer!
