  ==> Input File <==

--------------------------------------------------------------------------
set {
	reference rhf
	basis 6-31G*
}

set_num_threads( 1 )
memory 2 gb

molecule MOL {
0 1

H	 -2.172150	 0.880146	 0.502514
C	 -2.018062	 -0.000025	 -0.114509
O	 -0.774054	 0.001095	 -0.743181
H	 -2.760490	 0.003458	 -0.901350
H	 -2.173624	 -0.884374	 0.496163
C	 0.115306	 -1.082565	 -0.540072
C	 1.333206	 -0.713210	 -1.384055
C	 0.516957	 -1.198975	 0.933805
C	 -0.490303	 -2.396638	 -1.043625
H	 1.748464	 0.230007	 -1.047404
H	 1.047172	 -0.602941	 -2.423959
H	 2.102548	 -1.475432	 -1.314822
H	 0.877680	 -0.244011	 1.301163
H	 1.309385	 -1.931064	 1.050868
H	 -0.310687	 -1.514731	 1.559790
H	 -0.836781	 -2.283205	 -2.065456
H	 0.253661	 -3.186290	 -1.021293
H	 -1.326392	 -2.722047	 -0.433957

	symmetry c1
}
set optking {
	frozen_dihedral = ("
		2 3 6 7
	")
}

ee = energy('scf')
oeprop('DIPOLE', 'QUADRUPOLE', 'MULLIKEN_CHARGES')
f=open( 'psi4out.xyz', 'w' )
f.write( "18  " )
f.write( str(ee) + "\n" )
f.write( MOL.save_string_xyz() )
f.close()
--------------------------------------------------------------------------

    Molecular point group: c1

    Geometry (in Angstrom), charge = 0, multiplicity = 1:

       Center              X                  Y                   Z               Mass
    ------------   -----------------  -----------------  -----------------  -----------------
           H         -1.932001109232     1.771489209035     0.979305084278     1.007825032070
           C         -1.777913109232     0.891318209035     0.362282084278    12.000000000000
           O         -0.533905109232     0.892438209035    -0.266389915722    15.994914619560
           H         -2.520341109232     0.894801209035    -0.424558915722     1.007825032070
           H         -1.933475109232     0.006969209035     0.972954084278     1.007825032070
           C          0.355454890768    -0.191221790965    -0.063280915722    12.000000000000
           C          1.573354890768     0.178133209035    -0.907263915722    12.000000000000
           C          0.757105890768    -0.307631790965     1.410596084278    12.000000000000
           C         -0.250154109232    -1.505294790965    -0.566833915722    12.000000000000
           H          1.988612890768     1.121350209035    -0.570612915722     1.007825032070
           H          1.287320890768     0.288402209035    -1.947167915722     1.007825032070
           H          2.342696890768    -0.584088790965    -0.838030915722     1.007825032070
           H          1.117828890768     0.647332209035     1.777954084278     1.007825032070
           H          1.549533890768    -1.039720790965     1.527659084278     1.007825032070
           H         -0.070538109232    -0.623387790965     2.036581084278     1.007825032070
           H         -0.596632109232    -1.391861790965    -1.588664915722     1.007825032070
           H          0.493809890768    -2.294946790965    -0.544501915722     1.007825032070
           H         -1.086243109232    -1.830703790965     0.042834084278     1.007825032070

  Charge       = 0
  Multiplicity = 1
  Basis Set: 6-31G*
  Basis Set:

    Orbital Energies (a.u.)
    -----------------------

    Doubly Occupied:

       1A    -20.544266     2A    -11.282124     3A    -11.260332
       4A    -11.208877     5A    -11.208770     6A    -11.203273
       7A     -1.369087     8A     -1.073012     9A     -0.946177
      10A     -0.939801    11A     -0.912018    12A     -0.752790
      13A     -0.655422    14A     -0.643821    15A     -0.639489
      16A     -0.589411    17A     -0.572327    18A     -0.551384
      19A     -0.539156    20A     -0.523671    21A     -0.515272
      22A     -0.490011    23A     -0.486279    24A     -0.438325
      25A     -0.400506

  @DF-RHF Final Energy:  -271.17227391379527

   => Energetics <=

    Nuclear Repulsion Energy =            272.3376968031305978
    One-Electron Energy =                -907.5283230151421776
    Two-Electron Energy =                 364.0183522982160298
    DFT Exchange-Correlation Energy =       0.0000000000000000
    Empirical Dispersion Energy =           0.0000000000000000
    PCM Polarization Energy =               0.0000000000000000
    EFP Energy =                            0.0000000000000000
    Total Energy =                       -271.1722739137955500

  Mulliken Charges: (a.u.)
   Center  Symbol    Alpha    Beta     Spin     Total
       1     H     0.42076  0.42076  0.00000  0.15848
       2     C     3.07629  3.07629  0.00000 -0.15258
       3     O     4.32117  4.32117  0.00000 -0.64234
       4     H     0.42086  0.42086  0.00000  0.15828
       5     H     0.43045  0.43045  0.00000  0.13911
       6     C     2.84466  2.84466  0.00000  0.31069
       7     C     3.23298  3.23298  0.00000 -0.46596
       8     C     3.24548  3.24548  0.00000 -0.49096
       9     C     3.24586  3.24586  0.00000 -0.49172
      10     H     0.41396  0.41396  0.00000  0.17208
      11     H     0.41407  0.41407  0.00000  0.17185
      12     H     0.42522  0.42522  0.00000  0.14955
      13     H     0.41315  0.41315  0.00000  0.17369
      14     H     0.42004  0.42004  0.00000  0.15992
      15     H     0.42104  0.42104  0.00000  0.15792
      16     H     0.41326  0.41326  0.00000  0.17349
      17     H     0.41983  0.41983  0.00000  0.16034
      18     H     0.42092  0.42092  0.00000  0.15816

   Total alpha = 25.00000, Total beta = 25.00000, Total charge = -0.00000
