                              Psi4 1.0.54 Driver

  ==> Input File <==

--------------------------------------------------------------------------
set {
	reference rhf
	basis cc-pvtz
}

set_num_threads( 4 )
memory 2 gb

molecule MOL {
0 1

H	 1.289234	 -2.201773	 -0.517896
C	 0.336354	 -1.711172	 -0.623549
O	 0.462329	 -0.453336	 -0.000137
H	 -0.427085	 -2.309809	 -0.142910
H	 0.106613	 -1.603391	 -1.676089
C	 -0.590565	 0.341382	 0.000062
O	 -1.693898	 -0.053880	 0.000252
H	 -0.340426	 1.403822	 0.000200

	symmetry c1
}
set optking {
	frozen_dihedral = ("
		2 3 6 7
	")
}

ee,wfn = optimize('scf', return_wfn=True)
oeprop( wfn, 'DIPOLE', 'QUADRUPOLE', 'MULLIKEN_CHARGES')
f=open( 'psi4out.xyz', 'w' )
f.write( "8  " )
f.write( str(ee) + "\n" )
f.write( MOL.save_string_xyz() )
f.close()
--------------------------------------------------------------------------

    Molecular point group: c1
  Charge       = 0
  Multiplicity = 1
  Basis Set: CC-PVTZ
  Basis Set:
  @DF-RHF Final Energy:  -227.87253256303291
    Total Energy =                       -227.8725325630327916
    Molecular point group: c1
  Basis Set: CC-PVTZ
  Basis Set:
  Basis Set: CC-PVTZ
  Basis Set:
  @DF-RHF Final Energy:  -227.86684066754964
    Total Energy =                       -227.8668406675498090
  Basis Set: CC-PVTZ
  Basis Set:
  Basis Set: CC-PVTZ
  Basis Set:
  @DF-RHF Final Energy:  -227.87214596851672
    Total Energy =                       -227.8721459685167474
  Basis Set: CC-PVTZ
  Basis Set:
  Basis Set: CC-PVTZ
  Basis Set:
  @DF-RHF Final Energy:  -227.87380040049447
    Total Energy =                       -227.8738004004943605
  Basis Set: CC-PVTZ
  Basis Set:
  Basis Set: CC-PVTZ
  Basis Set:
  @DF-RHF Final Energy:  -227.87382229978286
    Total Energy =                       -227.8738222997828302
  Basis Set: CC-PVTZ
  Basis Set:
  Basis Set: CC-PVTZ
  Basis Set:
  @DF-RHF Final Energy:  -227.87385097691299
    Total Energy =                       -227.8738509769131042
  Basis Set: CC-PVTZ
  Basis Set:
  Charge       = 0
  Multiplicity = 1
  Basis Set: CC-PVTZ
  Basis Set:

    Orbital Energies (a.u.)
    -----------------------

    Doubly Occupied:

       1A    -20.605099     2A    -20.551239     3A    -11.373233
       4A    -11.289020     5A     -1.479575     6A     -1.380763
       7A     -0.996979     8A     -0.821679     9A     -0.746249
      10A     -0.686092    11A     -0.680567    12A     -0.607661
      13A     -0.561016    14A     -0.532138    15A     -0.470793
      16A     -0.460214

  @DF-RHF Final Energy:  -227.87385183038606

   => Energetics <=

    Nuclear Repulsion Energy =            123.5701633875739986
    One-Electron Energy =                -556.4033938131857440
    Two-Electron Energy =                 204.9593785952257576
    DFT Exchange-Correlation Energy =       0.0000000000000000
    Empirical Dispersion Energy =           0.0000000000000000
    PCM Polarization Energy =               0.0000000000000000
    EFP Energy =                            0.0000000000000000
    Total Energy =                       -227.8738518303860019
    Molecular point group: c1
  Basis Set: CC-PVTZ
  Basis Set:

  -Total Gradient:
     Atom            X                  Y                   Z
    ------   -----------------  -----------------  -----------------
       1       -0.000003206110    -0.000021169121    -0.000024728666
       2        0.002871197976     0.003069929183    -0.005701556339
       3       -0.004897981463    -0.004879527094     0.013504344386
       4        0.000007298268     0.000011316222    -0.000011692342
       5        0.000014925561     0.000032718083    -0.000013395276
       6        0.003008668063     0.002170639421    -0.017185797744
       7       -0.001000604324    -0.000403797418     0.009405034055
       8       -0.000000297974     0.000019890726     0.000027791926

  **** Optimization is complete! (in 7 steps) ****
    Final optimized geometry and variables:
    Molecular point group: c1

    Geometry (in Angstrom), charge = 0, multiplicity = 1:

    H            1.728840975629    -1.668593385509    -0.324823899883
    C            0.755470247913    -1.219949515288    -0.433331873521
    O            0.812388671308     0.014913550668     0.260649481292
    H           -0.000991410714    -1.865202628701    -0.013384178040
    H            0.541133007278    -1.048798626273    -1.478737012006
    C           -0.234575291344     0.810548501176     0.173062638181
    O           -1.349899418243     0.464853986972     0.027924235223
    H            0.059496033529     1.843003397375     0.336051992881

  Mulliken Charges: (a.u.)
   Center  Symbol    Alpha    Beta     Spin     Total
       1     H     0.44435  0.44435  0.00000  0.11130
       2     C     3.02715  3.02715  0.00000 -0.05429
       3     O     4.14412  4.14412  0.00000 -0.28824
       4     H     0.44920  0.44920  0.00000  0.10161
       5     H     0.45891  0.45891  0.00000  0.08218
       6     C     2.83547  2.83547  0.00000  0.32907
       7     O     4.18827  4.18827  0.00000 -0.37655
       8     H     0.45254  0.45254  0.00000  0.09492

   Total alpha = 16.00000, Total beta = 16.00000, Total charge = -0.00000

*** Psi4 exiting successfully. Buy a developer a beer!
