  ==> Input File <==

--------------------------------------------------------------------------
set {
	reference rhf
	basis 6-31G*
}

set_num_threads( 1 )
memory 2 gb

molecule MOL {
0 1

O	 1.208500	 0.533766	 0.997764
C	 1.705091	 0.115954	 0.001797
C	 1.287354	 0.471821	 -1.404162
O	 2.721346	 -0.737485	 -0.000216
C	 0.121280	 1.454070	 -1.459871
H	 2.161863	 0.869601	 -1.911823
H	 1.045509	 -0.455882	 -1.915628
C	 -0.280210	 1.797548	 -2.895102
H	 0.390654	 2.359556	 -0.925341
H	 -0.727181	 1.032342	 -0.930183
C	 -1.448123	 2.782577	 -2.969620
H	 0.575780	 2.216654	 -3.422006
H	 -0.546901	 0.885220	 -3.426531
C	 -1.849617	 3.124444	 -4.403908
H	 -1.182329	 3.695518	 -2.441383
H	 -2.304246	 2.364959	 -2.444466
H	 -1.023426	 3.576424	 -4.945513
H	 -2.679518	 3.823965	 -4.423530
H	 -2.153843	 2.235140	 -4.948789
C	 4.024888	 -0.184556	 -0.001949
H	 4.179030	 0.422472	 -0.882452
H	 4.701782	 -1.024608	 -0.003642
H	 4.181981	 0.421185	 0.878906

	symmetry c1
}
set optking {
	frozen_dihedral = ("
		15 11 8 12,
		9 5 8 12,
		1 2 3 6,
		9 5 3 6
	")
}

ee = energy('scf')
oeprop('DIPOLE', 'QUADRUPOLE', 'MULLIKEN_CHARGES')
f=open( 'psi4out.xyz', 'w' )
f.write( "23  " )
f.write( str(ee) + "\n" )
f.write( MOL.save_string_xyz() )
f.close()
--------------------------------------------------------------------------

    Molecular point group: c1

    Geometry (in Angstrom), charge = 0, multiplicity = 1:

       Center              X                  Y                   Z               Mass
    ------------   -----------------  -----------------  -----------------  -----------------
           O          0.345648404494    -0.496844841125     2.332350309917    15.994914619560
           C          0.842239404494    -0.914656841125     1.336383309917    12.000000000000
           C          0.424502404494    -0.558789841125    -0.069575690083    12.000000000000
           O          1.858494404494    -1.768095841125     1.334370309917    15.994914619560
           C         -0.741571595506     0.423459158875    -0.125284690083    12.000000000000
           H          1.299011404494    -0.161009841125    -0.577236690083     1.007825032070
           H          0.182657404494    -1.486492841125    -0.581041690083     1.007825032070
           C         -1.143061595506     0.766937158875    -1.560515690083    12.000000000000
           H         -0.472197595506     1.328945158875     0.409245309917     1.007825032070
           H         -1.590032595506     0.001731158875     0.404403309917     1.007825032070
           C         -2.310974595506     1.751966158875    -1.635033690083    12.000000000000
           H         -0.287071595506     1.186043158875    -2.087419690083     1.007825032070
           H         -1.409752595506    -0.145390841125    -2.091944690083     1.007825032070
           C         -2.712468595506     2.093833158875    -3.069321690083    12.000000000000
           H         -2.045180595506     2.664907158875    -1.106796690083     1.007825032070
           H         -3.167097595506     1.334348158875    -1.109879690083     1.007825032070
           H         -1.886277595506     2.545813158875    -3.610926690083     1.007825032070
           H         -3.542369595506     2.793354158875    -3.088943690083     1.007825032070
           H         -3.016694595506     1.204529158875    -3.614202690083     1.007825032070
           C          3.162036404494    -1.215166841125     1.332637309917    12.000000000000
           H          3.316178404494    -0.608138841125     0.452134309917     1.007825032070
           H          3.838930404494    -2.055218841125     1.330944309917     1.007825032070
           H          3.319129404494    -0.609425841125     2.213492309917     1.007825032070

  Charge       = 0
  Multiplicity = 1
  Basis Set: 6-31G*
  Basis Set:

    Orbital Energies (a.u.)
    -----------------------

    Doubly Occupied:

       1A    -20.587164     2A    -20.554972     3A    -11.373662
       4A    -11.295476     5A    -11.237188     6A    -11.220233
       7A    -11.219147     8A    -11.217507     9A    -11.210654
      10A     -1.464002    11A     -1.367310    12A     -1.093797
      13A     -1.041401    14A     -0.986617    15A     -0.943724
      16A     -0.849948    17A     -0.796659    18A     -0.768454
      19A     -0.695378    20A     -0.682058    21A     -0.676694
      22A     -0.650048    23A     -0.618677    24A     -0.606253
      25A     -0.578948    26A     -0.568021    27A     -0.556905
      28A     -0.538271    29A     -0.509583    30A     -0.492759
      31A     -0.486642    32A     -0.480061    33A     -0.469999
      34A     -0.466893    35A     -0.450606    36A     -0.429947

  @DF-RHF Final Energy:  -422.95459926443544

   => Energetics <=

    Nuclear Repulsion Energy =            454.1893410044467032
    One-Electron Energy =               -1475.9168118611066802
    Two-Electron Energy =                 598.7728715922238507
    DFT Exchange-Correlation Energy =       0.0000000000000000
    Empirical Dispersion Energy =           0.0000000000000000
    PCM Polarization Energy =               0.0000000000000000
    EFP Energy =                            0.0000000000000000
    Total Energy =                       -422.9545992644360695

  Mulliken Charges: (a.u.)
   Center  Symbol    Alpha    Beta     Spin     Total
       1     O     4.25874  4.25874  0.00000 -0.51749
       2     C     2.61444  2.61444  0.00000  0.77112
       3     C     3.21291  3.21291  0.00000 -0.42582
       4     O     4.31040  4.31040  0.00000 -0.62080
       5     C     3.15307  3.15307  0.00000 -0.30614
       6     H     0.40823  0.40823  0.00000  0.18354
       7     H     0.39859  0.39859  0.00000  0.20283
       8     C     3.15298  3.15298  0.00000 -0.30596
       9     H     0.41301  0.41301  0.00000  0.17398
      10     H     0.41033  0.41033  0.00000  0.17933
      11     C     3.15156  3.15156  0.00000 -0.30313
      12     H     0.42537  0.42537  0.00000  0.14926
      13     H     0.42374  0.42374  0.00000  0.15251
      14     C     3.23958  3.23958  0.00000 -0.47915
      15     H     0.42156  0.42156  0.00000  0.15688
      16     H     0.42086  0.42086  0.00000  0.15829
      17     H     0.42218  0.42218  0.00000  0.15563
      18     H     0.41827  0.41827  0.00000  0.16346
      19     H     0.42166  0.42166  0.00000  0.15667
      20     C     3.09330  3.09330  0.00000 -0.18659
      21     H     0.42104  0.42104  0.00000  0.15791
      22     H     0.40088  0.40088  0.00000  0.19824
      23     H     0.40728  0.40728  0.00000  0.18543

   Total alpha = 36.00000, Total beta = 36.00000, Total charge =  0.00000
