  ==> Input File <==

--------------------------------------------------------------------------
set {
	reference rhf
	basis cc-pvtz
}

set_num_threads( 4 )
memory 2 gb

molecule MOL {
0 1

H	 -3.642953	 0.223825	 0.000000
C	 -2.571844	 0.155001	 0.000000
C	 -1.957580	 -1.086132	 0.000000
C	 -1.807160	 1.303787	 0.000000
H	 -2.551493	 -1.979629	 0.000000
C	 -0.582719	 -1.174294	 0.000000
H	 -2.279934	 2.266806	 0.000000
C	 -0.427220	 1.213406	 0.000000
H	 -0.094904	 -2.127556	 0.000000
C	 0.196908	 -0.024061	 0.000000
H	 0.151409	 2.115254	 0.000000
C	 1.690041	 -0.173233	 0.000000
C	 2.534557	 0.892191	 0.660547
O	 2.202866	 -1.116500	 -0.512464
H	 2.370216	 1.856135	 0.193872
H	 3.572491	 0.617024	 0.562038
H	 2.283175	 0.984904	 1.710400

	symmetry c1
}
set optking {
	frozen_dihedral = ("
		13 12 10 8
	")
}

ee = optimize('scf')
oeprop('DIPOLE', 'QUADRUPOLE', 'MULLIKEN_CHARGES')
f=open( 'psi4out.xyz', 'w' )
f.write( "17  " )
f.write( str(ee) + "\n" )
f.write( MOL.save_string_xyz() )
f.close()
--------------------------------------------------------------------------

    Molecular point group: c1
  Charge       = 0
  Multiplicity = 1
  Basis Set: CC-PVTZ
  Basis Set:
  @DF-RHF Final Energy:  -382.60371678187391
    Total Energy =                       -382.6037167818741409
    Molecular point group: c1
  Basis Set: CC-PVTZ
  Basis Set:
  Basis Set: CC-PVTZ
  Basis Set:
  @DF-RHF Final Energy:  -382.60192253896986
    Total Energy =                       -382.6019225389700296
  Basis Set: CC-PVTZ
  Basis Set:
  Basis Set: CC-PVTZ
  Basis Set:
  @DF-RHF Final Energy:  -382.60409421745186
    Total Energy =                       -382.6040942174519159
  Basis Set: CC-PVTZ
  Basis Set:
  Basis Set: CC-PVTZ
  Basis Set:
  @DF-RHF Final Energy:  -382.60415965907271
    Total Energy =                       -382.6041596590724794
  Basis Set: CC-PVTZ
  Basis Set:
  Basis Set: CC-PVTZ
  Basis Set:
  @DF-RHF Final Energy:  -382.60416916723983
    Total Energy =                       -382.6041691672403431
  Basis Set: CC-PVTZ
  Basis Set:
  Basis Set: CC-PVTZ
  Basis Set:
  @DF-RHF Final Energy:  -382.60417592812104
    Total Energy =                       -382.6041759281210943
  Basis Set: CC-PVTZ
  Basis Set:
  Charge       = 0
  Multiplicity = 1
  Basis Set: CC-PVTZ
  Basis Set:

    Orbital Energies (a.u.)
    -----------------------

    Doubly Occupied:

       1A    -20.541752     2A    -11.328129     3A    -11.246278
       4A    -11.243225     5A    -11.243163     6A    -11.239391
       7A    -11.239015     8A    -11.236937     9A    -11.229345
      10A     -1.402870    11A     -1.171186    12A     -1.053405
      13A     -1.030571    14A     -0.999303    15A     -0.864233
      16A     -0.839522    17A     -0.763935    18A     -0.711658
      19A     -0.660177    20A     -0.651769    21A     -0.627887
      22A     -0.615828    23A     -0.602998    24A     -0.596137
      25A     -0.557886    26A     -0.530644    27A     -0.519342
      28A     -0.504603    29A     -0.497087    30A     -0.414574
      31A     -0.350342    32A     -0.346826

  @DF-RHF Final Energy:  -382.60417616200624

   => Energetics <=

    Nuclear Repulsion Energy =            404.3607004664618785
    One-Electron Energy =               -1320.2097140182092971
    Two-Electron Energy =                 533.2448373897411784
    DFT Exchange-Correlation Energy =       0.0000000000000000
    Empirical Dispersion Energy =           0.0000000000000000
    PCM Polarization Energy =               0.0000000000000000
    EFP Energy =                            0.0000000000000000
    Total Energy =                       -382.6041761620062971
    Molecular point group: c1
  Basis Set: CC-PVTZ
  Basis Set:

  -Total Gradient:
     Atom            X                  Y                   Z
    ------   -----------------  -----------------  -----------------
       1       -0.000000645401    -0.000001211785    -0.000002690340
       2        0.000000254843     0.000011519464     0.000026771995
       3        0.000009264658    -0.000011224223    -0.000000625048
       4       -0.000009453183    -0.000007614221    -0.000026770656
       5       -0.000001505733     0.000000103343     0.000001332437
       6       -0.000014118609    -0.000002839888    -0.000030098382
       7        0.000001822704     0.000000588219     0.000005549940
       8       -0.000057777903    -0.000015588524    -0.002813177944
       9        0.000000684949    -0.000000433617     0.000012370560
      10        0.000047358570    -0.000550731477     0.005237163433
      11       -0.000004767384     0.000002082049     0.000006596012
      12        0.000117903473     0.001782690669    -0.004573773370
      13       -0.000070569837    -0.001240314529     0.002143547483
      14       -0.000021740490     0.000027231253     0.000007611248
      15       -0.000001539476     0.000001717313    -0.000000245886
      16        0.000005434996     0.000007078469     0.000007821368
      17       -0.000000606178    -0.000003052519    -0.000001382852

  **** Optimization is complete! (in 7 steps) ****
    Final optimized geometry and variables:
    Molecular point group: c1

    Geometry (in Angstrom), charge = 0, multiplicity = 1:

    H           -3.640445028276     0.228100423552    -0.031561398925
    C           -2.569391381129     0.159327134319    -0.023241702339
    C           -1.955116316561    -1.081248763063    -0.038118963796
    C           -1.804335266789     1.308120123441    -0.001577738163
    H           -2.548854865240    -1.974728044604    -0.057836252862
    C           -0.579461692708    -1.169493049411    -0.037908170768
    H           -2.277086669311     2.271254853045    -0.000131997382
    C           -0.424643690211     1.218011188402     0.018913699189
    H           -0.092949560734    -2.123441727001    -0.071238989806
    C            0.197508189924    -0.019731751144     0.005599889458
    H            0.156813313077     2.118636919540     0.039935231719
    C            1.691013261352    -0.163585885021    -0.031822175847
    C            2.537336659631     0.912714756691     0.608678332039
    O            2.191784093009    -1.128909268310    -0.512123288619
    H            2.467463606733     1.839857313389     0.051563179037
    H            3.565413524266     0.586359582442     0.618969237744
    H            2.198666998831     1.109666957238     1.618425584843

  Mulliken Charges: (a.u.)
   Center  Symbol    Alpha    Beta     Spin     Total
       1     H     0.42053  0.42053  0.00000  0.15895
       2     C     3.07562  3.07562  0.00000 -0.15124
       3     C     3.07090  3.07090  0.00000 -0.14181
       4     C     3.07266  3.07266  0.00000 -0.14532
       5     H     0.42053  0.42053  0.00000  0.15893
       6     C     3.08065  3.08065  0.00000 -0.16130
       7     H     0.42195  0.42195  0.00000  0.15610
       8     C     3.08809  3.08809  0.00000 -0.17618
       9     H     0.41021  0.41021  0.00000  0.17957
      10     C     2.99758  2.99758  0.00000  0.00484
      11     H     0.42277  0.42277  0.00000  0.15446
      12     C     2.85077  2.85077  0.00000  0.29845
      13     C     3.16220  3.16220  0.00000 -0.32440
      14     O     4.17809  4.17809  0.00000 -0.35618
      15     H     0.45012  0.45012  0.00000  0.09975
      16     H     0.43282  0.43282  0.00000  0.13437
      17     H     0.44449  0.44449  0.00000  0.11102

   Total alpha = 32.00000, Total beta = 32.00000, Total charge = -0.00000
