                              Psi4 1.0.54 Driver

  ==> Input File <==

--------------------------------------------------------------------------
set {
	reference rhf
	basis cc-pvtz
}

set_num_threads( 4 )
memory 2 gb

molecule MOL {
0 1

H	 -4.340537	 -0.784487	 0.000000
O	 -3.958786	 0.074640	 0.000000
C	 -2.613554	 0.009900	 0.000000
C	 -1.983684	 -0.233864	 1.209140
C	 -1.860229	 0.175988	 -1.146212
H	 -2.577979	 -0.361119	 2.092021
C	 -0.609791	 -0.310121	 1.266569
H	 -2.341698	 0.365405	 -2.087952
C	 -0.480636	 0.099104	 -1.086788
H	 -0.124399	 -0.498759	 2.202826
C	 0.139084	 -0.143268	 0.117237
H	 0.099439	 0.228534	 -1.978115
Br	 2.032624	 -0.249312	 0.201731

	symmetry c1
}
set optking {
	frozen_dihedral = ("
		4 3 2 1
	")
}

ee,wfn = optimize('scf', return_wfn=True)
oeprop( wfn, 'DIPOLE', 'QUADRUPOLE', 'MULLIKEN_CHARGES')
f=open( 'psi4out.xyz', 'w' )
f.write( "13  " )
f.write( str(ee) + "\n" )
f.write( MOL.save_string_xyz() )
f.close()
--------------------------------------------------------------------------

    Molecular point group: c1
  Charge       = 0
  Multiplicity = 1
  Basis Set: CC-PVTZ
  Basis Set:
  @DF-RHF Final Energy: -2877.54177844174592
    Total Energy =                      -2877.5417784417459188
    Molecular point group: c1
  Basis Set: CC-PVTZ
  Basis Set:
  Basis Set: CC-PVTZ
  Basis Set:
  @DF-RHF Final Energy: -2877.54283798035704
    Total Energy =                      -2877.5428379803552161
  Basis Set: CC-PVTZ
  Basis Set:
  Basis Set: CC-PVTZ
  Basis Set:
  @DF-RHF Final Energy: -2877.54290255289152
    Total Energy =                      -2877.5429025528933380
  Basis Set: CC-PVTZ
  Basis Set:
  Basis Set: CC-PVTZ
  Basis Set:
  @DF-RHF Final Energy: -2877.54290958784986
    Total Energy =                      -2877.5429095878484986
  Basis Set: CC-PVTZ
  Basis Set:
  Charge       = 0
  Multiplicity = 1
  Basis Set: CC-PVTZ
  Basis Set:

    Orbital Energies (a.u.)
    -----------------------

    Doubly Occupied:

       1A   -490.020935     2A    -65.161269     3A    -58.516493
       4A    -58.515127     5A    -58.515112     6A    -20.582816
       7A    -11.303024     8A    -11.294009     9A    -11.252089
      10A    -11.251713    11A    -11.242558    12A    -11.241484
      13A     -9.835073    14A     -7.446696    15A     -7.439908
      16A     -7.439888    17A     -3.190388    18A     -3.186845
      19A     -3.186699    20A     -3.178063    21A     -3.178059
      22A     -1.410573    23A     -1.180792    24A     -1.067756
      25A     -1.041827    26A     -0.970624    27A     -0.862419
      28A     -0.826418    29A     -0.752827    30A     -0.677949
      31A     -0.664053    32A     -0.646400    33A     -0.610452
      34A     -0.600020    35A     -0.548089    36A     -0.532416
      37A     -0.502614    38A     -0.487802    39A     -0.435173
      40A     -0.415714    41A     -0.358952    42A     -0.329333

  @DF-RHF Final Energy: -2877.54291112767487

   => Energetics <=

    Nuclear Repulsion Energy =            525.1338160668525461
    One-Electron Energy =               -5041.5525490513000477
    Two-Electron Energy =                1638.8758218567736549
    DFT Exchange-Correlation Energy =       0.0000000000000000
    Empirical Dispersion Energy =           0.0000000000000000
    PCM Polarization Energy =               0.0000000000000000
    EFP Energy =                            0.0000000000000000
    Total Energy =                      -2877.5429111276735057
    Molecular point group: c1
  Basis Set: CC-PVTZ
  Basis Set:

  -Total Gradient:
     Atom            X                  Y                   Z
    ------   -----------------  -----------------  -----------------
       1        0.000026168065    -0.000007587954    -0.000892821669
       2       -0.000184894783     0.000322433779     0.001177362439
       3        0.000190677284    -0.000903251284    -0.000550266657
       4        0.000021554618     0.000609825650     0.000190949111
       5       -0.000151077315    -0.000011006033     0.000024921427
       6        0.000035739243     0.000009641714    -0.000021648658
       7       -0.000075661226    -0.000026642712     0.000050849613
       8       -0.000039567652     0.000005297645     0.000023466523
       9        0.000162478699    -0.000056853886     0.000091302206
      10        0.000048549254     0.000003883183    -0.000010186238
      11        0.000011845308     0.000062675736    -0.000131395792
      12       -0.000015214428     0.000001228877     0.000012580702
      13       -0.000030596642    -0.000009644690     0.000034887061

  **** Optimization is complete! (in 5 steps) ****
    Final optimized geometry and variables:
    Molecular point group: c1

    Geometry (in Angstrom), charge = 0, multiplicity = 1:

    H           -4.366779692603    -0.619092731780    -0.152486724262
    O           -3.961815053083     0.230589442150    -0.161211652961
    C           -2.602757112953     0.119724008254    -0.104603378443
    C           -1.969528026838    -0.109226242360     1.101691032458
    C           -1.857517549981     0.297058324797    -1.252777030157
    H           -2.555714552906    -0.223924089520     1.992654269736
    C           -0.591272238955    -0.178235459948     1.158711041212
    H           -2.360335366740     0.490313121333    -2.179881874907
    C           -0.478110268634     0.234422147928    -1.200437081842
    H           -0.098910955065    -0.357180355011     2.093053494393
    C            0.145378586634    -0.006586495513     0.005355381302
    H            0.101027988056     0.372456259533    -2.090884464952
    BR           2.039676876575    -0.096733736927     0.081393930616

  Mulliken Charges: (a.u.)
   Center  Symbol    Alpha    Beta     Spin     Total
       1     H     0.38689  0.38689  0.00000  0.22622
       2     O     4.18836  4.18836  0.00000 -0.37672
       3     C     2.88182  2.88182  0.00000  0.23636
       4     C     3.09640  3.09640  0.00000 -0.19280
       5     C     3.09029  3.09029  0.00000 -0.18058
       6     H     0.41477  0.41477  0.00000  0.17045
       7     C     3.08896  3.08896  0.00000 -0.17792
       8     H     0.41310  0.41310  0.00000  0.17380
       9     C     3.08832  3.08832  0.00000 -0.17663
      10     H     0.41013  0.41013  0.00000  0.17974
      11     C     2.96684  2.96684  0.00000  0.06633
      12     H     0.41004  0.41004  0.00000  0.17991
      13    BR    17.56408 17.56408  0.00000 -0.12816

   Total alpha = 42.00000, Total beta = 42.00000, Total charge = -0.00000

*** Psi4 exiting successfully. Buy a developer a beer!
