                              Psi4 1.0.54 Driver

  ==> Input File <==

--------------------------------------------------------------------------
set {
	reference rhf
	basis cc-pvtz
}

set_num_threads( 4 )
memory 2 gb

molecule MOL {
0 1

H	 -1.981769	 0.205979	 -0.372950
N	 -1.173824	 -0.310545	 -0.096857
C	 -0.022588	 0.563366	 0.065815
H	 -1.396362	 -0.769696	 0.761787
C	 1.270420	 -0.230572	 -0.014245
H	 -0.045354	 1.293678	 -0.735129
H	 -0.043155	 1.123061	 1.001180
H	 1.336273	 -0.754933	 -0.959364
H	 2.130728	 0.422015	 0.082222
H	 1.323344	 -0.967006	 0.781773

	symmetry c1
}
set optking {
	frozen_dihedral = ("
		1 2 3 6
	")
}

ee,wfn = optimize('scf', return_wfn=True)
oeprop( wfn, 'DIPOLE', 'QUADRUPOLE', 'MULLIKEN_CHARGES')
f=open( 'psi4out.xyz', 'w' )
f.write( "10  " )
f.write( str(ee) + "\n" )
f.write( MOL.save_string_xyz() )
f.close()
--------------------------------------------------------------------------

    Molecular point group: c1
  Charge       = 0
  Multiplicity = 1
  Basis Set: CC-PVTZ
  Basis Set:
  @DF-RHF Final Energy:  -134.30405840494780
    Total Energy =                       -134.3040584049478525
    Molecular point group: c1
  Basis Set: CC-PVTZ
  Basis Set:
  Basis Set: CC-PVTZ
  Basis Set:
  @DF-RHF Final Energy:  -134.30414888295144
    Total Energy =                       -134.3041488829514947
  Basis Set: CC-PVTZ
  Basis Set:
  Basis Set: CC-PVTZ
  Basis Set:
  @DF-RHF Final Energy:  -134.30416717591822
    Total Energy =                       -134.3041671759182236
  Basis Set: CC-PVTZ
  Basis Set:
  Charge       = 0
  Multiplicity = 1
  Basis Set: CC-PVTZ
  Basis Set:

    Orbital Energies (a.u.)
    -----------------------

    Doubly Occupied:

       1A    -15.526049     2A    -11.241112     3A    -11.202483
       4A     -1.176677     5A     -0.987819     6A     -0.822997
       7A     -0.668945     8A     -0.628720     9A     -0.578371
      10A     -0.517433    11A     -0.513005    12A     -0.483707
      13A     -0.382803

  @DF-RHF Final Energy:  -134.30416782821993

   => Energetics <=

    Nuclear Repulsion Energy =             83.3587230707005489
    One-Electron Energy =                -345.8655409282272899
    Two-Electron Energy =                 128.2026500293067954
    DFT Exchange-Correlation Energy =       0.0000000000000000
    Empirical Dispersion Energy =           0.0000000000000000
    PCM Polarization Energy =               0.0000000000000000
    EFP Energy =                            0.0000000000000000
    Total Energy =                       -134.3041678282199598
    Molecular point group: c1
  Basis Set: CC-PVTZ
  Basis Set:

  -Total Gradient:
     Atom            X                  Y                   Z
    ------   -----------------  -----------------  -----------------
       1        0.000503305813    -0.000276615524    -0.002026010744
       2       -0.000923027395     0.000510644058     0.002813127315
       3        0.001492255729    -0.001428098073    -0.001877770925
       4        0.000011483306     0.000016691662    -0.000024557244
       5       -0.000040837799     0.000000857978     0.000038680874
       6       -0.001011614869     0.001168414612     0.001094018073
       7        0.000013068999    -0.000024293261    -0.000011722811
       8       -0.000020993394     0.000019135597     0.000005138168
       9       -0.000015369902     0.000006914878    -0.000002084119
      10       -0.000008270488     0.000006348073    -0.000008818587

  **** Optimization is complete! (in 4 steps) ****
    Final optimized geometry and variables:
    Molecular point group: c1

    Geometry (in Angstrom), charge = 0, multiplicity = 1:

    H           -1.987422471479     0.205688141089    -0.351743173503
    N           -1.176150052682    -0.308958677919    -0.087110492409
    C           -0.016763657825     0.557293692193     0.061709882497
    H           -1.381553834122    -0.800808000144     0.755884038383
    C            1.275701099498    -0.238256843726    -0.009226918937
    H           -0.044182330685     1.289039251042    -0.737456667026
    H           -0.036991490160     1.126490498031     0.991225958784
    H            1.347516584445    -0.761732489434    -0.954222281469
    H            2.137209286718     0.412212396337     0.096826831204
    H            1.317312613863    -0.976826805944     0.784923331274

  Mulliken Charges: (a.u.)
   Center  Symbol    Alpha    Beta     Spin     Total
       1     H     0.42698  0.42698  0.00000  0.14604
       2     N     3.69354  3.69354  0.00000 -0.38707
       3     C     3.02359  3.02359  0.00000 -0.04718
       4     H     0.42912  0.42912  0.00000  0.14175
       5     C     3.13255  3.13255  0.00000 -0.26510
       6     H     0.45751  0.45751  0.00000  0.08498
       7     H     0.46790  0.46790  0.00000  0.06421
       8     H     0.45134  0.45134  0.00000  0.09732
       9     H     0.45798  0.45798  0.00000  0.08405
      10     H     0.45950  0.45950  0.00000  0.08100

   Total alpha = 13.00000, Total beta = 13.00000, Total charge =  0.00000

*** Psi4 exiting successfully. Buy a developer a beer!
