  ==> Input File <==

--------------------------------------------------------------------------
set {
	reference rhf
	basis 6-31G*
}

set_num_threads( 4 )
memory 2 gb

molecule MOL {
0 1

H	 1.408059	 1.292297	 -3.081193
O	 1.984617	 1.327362	 -2.330159
C	 1.350518	 0.930248	 -1.208823
C	 2.083111	 0.932710	 -0.025926
C	 0.027940	 0.531633	 -1.203565
H	 3.109403	 1.246831	 -0.056100
C	 1.490058	 0.536954	 1.155061
H	 -0.560014	 0.519924	 -2.100057
C	 -0.536158	 0.140425	 0.000000
H	 2.063019	 0.541926	 2.063657
C	 0.162331	 0.131985	 1.186419
N	 -1.935604	 -0.280333	 0.000000
H	 -0.311539	 -0.177721	 2.094678
O	 -2.161694	 -1.452901	 0.000000
O	 -2.770341	 0.571417	 0.000000

	symmetry c1
}
set optking {
	frozen_dihedral = ("
		11 9 12 14
	")
}

ee = optimize('scf')
oeprop('DIPOLE', 'QUADRUPOLE', 'MULLIKEN_CHARGES')
f=open( 'psi4out.xyz', 'w' )
f.write( "15  " )
f.write( str(ee) + "\n" )
f.write( MOL.save_string_xyz() )
f.close()
--------------------------------------------------------------------------

    Molecular point group: c1
  Charge       = 0
  Multiplicity = 1
  Basis Set: 6-31G*
  Basis Set:
  @DF-RHF Final Energy:  -509.01656133384012
    Total Energy =                       -509.0165613338406274
    Molecular point group: c1
  Basis Set: 6-31G*
  Basis Set:
  Basis Set: 6-31G*
  Basis Set:
  @DF-RHF Final Energy:  -509.01184601007503
    Total Energy =                       -509.0118460100752600
  Basis Set: 6-31G*
  Basis Set:
  Basis Set: 6-31G*
  Basis Set:
  @DF-RHF Final Energy:  -509.01658356866642
    Total Energy =                       -509.0165835686664195
  Basis Set: 6-31G*
  Basis Set:
  Basis Set: 6-31G*
  Basis Set:
  @DF-RHF Final Energy:  -509.01692438272266
    Total Energy =                       -509.0169243827231185
  Basis Set: 6-31G*
  Basis Set:
  Charge       = 0
  Multiplicity = 1
  Basis Set: 6-31G*
  Basis Set:

    Orbital Energies (a.u.)
    -----------------------

    Doubly Occupied:

       1A    -20.618163     2A    -20.610605     3A    -20.610263
       4A    -15.859377     5A    -11.333867     6A    -11.317342
       7A    -11.269054     8A    -11.268610     9A    -11.263070
      10A    -11.254287    11A     -1.642196    12A     -1.439256
      13A     -1.426324    14A     -1.202598    15A     -1.095595
      16A     -1.048621    17A     -0.965622    18A     -0.884596
      19A     -0.830724    20A     -0.789391    21A     -0.763899
      22A     -0.734700    23A     -0.720674    24A     -0.710756
      25A     -0.668366    26A     -0.635561    27A     -0.618314
      28A     -0.592659    29A     -0.563798    30A     -0.549063
      31A     -0.533415    32A     -0.490941    33A     -0.485123
      34A     -0.455645    35A     -0.373662    36A     -0.343191

  @DF-RHF Final Energy:  -509.01692516608801

   => Energetics <=

    Nuclear Repulsion Energy =            502.5128137208852763
    One-Electron Energy =               -1691.1208260898908975
    Two-Electron Energy =                 679.5910872029176062
    DFT Exchange-Correlation Energy =       0.0000000000000000
    Empirical Dispersion Energy =           0.0000000000000000
    PCM Polarization Energy =               0.0000000000000000
    EFP Energy =                            0.0000000000000000
    Total Energy =                       -509.0169251660879581
    Molecular point group: c1
  Basis Set: 6-31G*
  Basis Set:

  -Total Gradient:
     Atom            X                  Y                   Z
    ------   -----------------  -----------------  -----------------
       1       -0.000001196175    -0.000004835956     0.000000463422
       2        0.000022710085     0.000018456053    -0.000040847773
       3       -0.000061439860    -0.000015434808     0.000016298369
       4       -0.000004831429     0.000009855633     0.000001406819
       5        0.000059757878    -0.000018433034    -0.000090784026
       6       -0.000006678621     0.000000287547    -0.000001032083
       7        0.000006102982    -0.000036673109     0.000033064306
       8        0.000025374231     0.000002822382     0.000035048765
       9        0.000987631514    -0.003992811116    -0.001873595806
      10       -0.000005837569     0.000004906433     0.000007242235
      11       -0.000743550430     0.002760890177     0.000520470552
      12       -0.000414317609     0.001429568928     0.004695457985
      13        0.000022604892     0.000004607785    -0.000034442109
      14        0.000065634556    -0.000241034608    -0.003286581405
      15        0.000048035555     0.000077827691     0.000017830753

  **** Optimization is complete! (in 5 steps) ****
    Final optimized geometry and variables:
    Molecular point group: c1

    Geometry (in Angstrom), charge = 0, multiplicity = 1:

    H            1.494569250605     0.969233458838    -2.793705472617
    O            2.071654795081     1.001678908291    -2.043053352223
    C            1.443079338456     0.602324761482    -0.921921203073
    C            2.176767325664     0.609737852463     0.260153440130
    C            0.118116135428     0.201850710479    -0.914592206904
    H            3.200797887022     0.930338899957     0.229241228576
    C            1.584871025111     0.213787355389     1.440920196838
    H           -0.474362541942     0.204856040055    -1.811556971375
    C           -0.429590519074    -0.204177515435     0.286204159888
    H            2.156499132964     0.228230295925     2.350426806049
    C            0.259396110347    -0.203780797175     1.473296323835
    N           -1.837043573226    -0.603483211251     0.288000476580
    H           -0.209813426167    -0.520973436595     2.384666784022
    O           -2.070424589992    -1.771760775066     0.307589777876
    O           -2.647281751400     0.269163275921     0.242270068092

  Mulliken Charges: (a.u.)
   Center  Symbol    Alpha    Beta     Spin     Total
       1     H     0.26738  0.26738  0.00000  0.46525
       2     O     4.37405  4.37405  0.00000 -0.74810
       3     C     2.79034  2.79034  0.00000  0.41932
       4     C     3.11653  3.11653  0.00000 -0.23305
       5     C     3.13450  3.13450  0.00000 -0.26899
       6     H     0.38236  0.38236  0.00000  0.23529
       7     C     3.09512  3.09512  0.00000 -0.19024
       8     H     0.38128  0.38128  0.00000  0.23744
       9     C     2.88700  2.88700  0.00000  0.22601
      10     H     0.38672  0.38672  0.00000  0.22656
      11     C     3.10237  3.10237  0.00000 -0.20474
      12     N     3.25756  3.25756  0.00000  0.48489
      13     H     0.37770  0.37770  0.00000  0.24460
      14     O     4.22277  4.22277  0.00000 -0.44554
      15     O     4.22434  4.22434  0.00000 -0.44869

   Total alpha = 36.00000, Total beta = 36.00000, Total charge = -0.00000
