  ==> Input File <==

--------------------------------------------------------------------------
set {
	reference rhf
	basis cc-pvtz
}

set_num_threads( 4 )
memory 2 gb

molecule MOL {
0 1

H	 0.784030	 3.360763	 1.560757
O	 1.506559	 2.892726	 1.181793
C	 1.104265	 1.742509	 0.612810
C	 2.073931	 0.951141	 0.013974
C	 -0.213999	 1.339364	 0.609243
H	 3.093039	 1.283366	 0.028102
C	 1.721034	 -0.236781	 -0.584072
H	 -0.982341	 1.929792	 1.063493
C	 -0.532034	 0.141680	 0.000000
H	 2.477194	 -0.841831	 -1.044380
C	 0.403459	 -0.663005	 -0.600514
N	 -1.937041	 -0.281114	 0.000000
H	 0.114819	 -1.582514	 -1.060855
O	 -2.159542	 -1.446261	 0.000000
O	 -2.764978	 0.565773	 0.000000

	symmetry c1
}
set optking {
	frozen_dihedral = ("
		11 9 12 14
	")
}

ee = optimize('scf')
oeprop('DIPOLE', 'QUADRUPOLE', 'MULLIKEN_CHARGES')
f=open( 'psi4out.xyz', 'w' )
f.write( "15  " )
f.write( str(ee) + "\n" )
f.write( MOL.save_string_xyz() )
f.close()
--------------------------------------------------------------------------

    Molecular point group: c1
  Charge       = 0
  Multiplicity = 1
  Basis Set: CC-PVTZ
  Basis Set:
  @DF-RHF Final Energy:  -509.21741995057533
    Total Energy =                       -509.2174199505749357
    Molecular point group: c1
  Basis Set: CC-PVTZ
  Basis Set:
  Basis Set: CC-PVTZ
  Basis Set:
  @DF-RHF Final Energy:  -509.20998161784559
    Total Energy =                       -509.2099816178456422
  Basis Set: CC-PVTZ
  Basis Set:
  Basis Set: CC-PVTZ
  Basis Set:
  @DF-RHF Final Energy:  -509.21739057884838
    Total Energy =                       -509.2173905788486081
  Basis Set: CC-PVTZ
  Basis Set:
  Basis Set: CC-PVTZ
  Basis Set:
  @DF-RHF Final Energy:  -509.21761730476766
    Total Energy =                       -509.2176173047680550
  Basis Set: CC-PVTZ
  Basis Set:
  Basis Set: CC-PVTZ
  Basis Set:
  @DF-RHF Final Energy:  -509.21761838238189
    Total Energy =                       -509.2176183823825113
  Basis Set: CC-PVTZ
  Basis Set:
  Charge       = 0
  Multiplicity = 1
  Basis Set: CC-PVTZ
  Basis Set:

    Orbital Energies (a.u.)
    -----------------------

    Doubly Occupied:

       1A    -20.609044     2A    -20.596254     3A    -20.595704
       4A    -15.850292     5A    -11.328569     6A    -11.310004
       7A    -11.263801     8A    -11.263400     9A    -11.258822
      10A    -11.255420    11A     -1.644668    12A     -1.441737
      13A     -1.427439    14A     -1.203341    15A     -1.096164
      16A     -1.048722    17A     -0.966994    18A     -0.883015
      19A     -0.832295    20A     -0.794687    21A     -0.760536
      22A     -0.741537    23A     -0.726905    24A     -0.711039
      25A     -0.676179    26A     -0.636251    27A     -0.622278
      28A     -0.598133    29A     -0.562296    30A     -0.547807
      31A     -0.525185    32A     -0.494851    33A     -0.492701
      34A     -0.459445    35A     -0.379223    36A     -0.346426

  @DF-RHF Final Energy:  -509.21762040265878

   => Energetics <=

    Nuclear Repulsion Energy =            504.6829968795747163
    One-Electron Energy =               -1695.8989143626386067
    Two-Electron Energy =                 681.9982970804053366
    DFT Exchange-Correlation Energy =       0.0000000000000000
    Empirical Dispersion Energy =           0.0000000000000000
    PCM Polarization Energy =               0.0000000000000000
    EFP Energy =                            0.0000000000000000
    Total Energy =                       -509.2176204026586674
    Molecular point group: c1
  Basis Set: CC-PVTZ
  Basis Set:

  -Total Gradient:
     Atom            X                  Y                   Z
    ------   -----------------  -----------------  -----------------
       1        0.000001316813    -0.000006211640     0.000010941393
       2       -0.000001020430     0.000018074993    -0.000014714102
       3       -0.000001524811    -0.000017753071     0.000005934103
       4        0.000000940448     0.000005114359     0.000003024292
       5        0.000005016678    -0.000004711464     0.000004314382
       6       -0.000000877308    -0.000000386097    -0.000002820060
       7        0.000000992247    -0.000008249489     0.000012699121
       8        0.000001322911     0.000003582759    -0.000002706215
       9        0.000513045415    -0.002023882567     0.004638611769
      10       -0.000000420068    -0.000000155174    -0.000001725502
      11       -0.000362686730     0.001387205846    -0.002403192686
      12       -0.000165647459     0.000914006660    -0.005435010986
      13        0.000002804689     0.000000996979     0.000004583389
      14       -0.000059434844    -0.000185171298     0.003180580622
      15        0.000066172445    -0.000082460798    -0.000000519522

  **** Optimization is complete! (in 6 steps) ****
    Final optimized geometry and variables:
    Molecular point group: c1

    Geometry (in Angstrom), charge = 0, multiplicity = 1:

    H            0.935855479237     2.845675193250     1.413640210066
    O            1.659150841811     2.373159844553     1.041837717127
    C            1.256879352073     1.224423743551     0.470996213910
    C            2.226014426490     0.435241318769    -0.132050481309
    C           -0.062561924679     0.823132286558     0.462762670269
    H            3.244131481354     0.770399607940    -0.122220842455
    C            1.873681928434    -0.751796100960    -0.732231520914
    H           -0.835385073308     1.422821121539     0.898655271194
    C           -0.373827241798    -0.383392974681    -0.129254961753
    H            2.628623497731    -1.350075111731    -1.203335089173
    C            0.558182366610    -1.185443388862    -0.736144551915
    N           -1.778858345015    -0.795480457114    -0.151813338826
    H            0.269430963606    -2.110199720548    -1.187827835580
    O           -2.005559200428    -1.958077675621    -0.176368150071
    O           -2.599680963636     0.060207598317    -0.122759331345

  Mulliken Charges: (a.u.)
   Center  Symbol    Alpha    Beta     Spin     Total
       1     H     0.38428  0.38428  0.00000  0.23145
       2     O     4.16809  4.16809  0.00000 -0.33619
       3     C     2.84445  2.84445  0.00000  0.31110
       4     C     3.09886  3.09886  0.00000 -0.19772
       5     C     3.13766  3.13766  0.00000 -0.27531
       6     H     0.41336  0.41336  0.00000  0.17329
       7     C     3.05590  3.05590  0.00000 -0.11180
       8     H     0.41180  0.41180  0.00000  0.17641
       9     C     2.95692  2.95692  0.00000  0.08615
      10     H     0.41605  0.41605  0.00000  0.16790
      11     C     3.10134  3.10134  0.00000 -0.20269
      12     N     3.26234  3.26234  0.00000  0.47532
      13     H     0.40360  0.40360  0.00000  0.19279
      14     O     4.17088  4.17088  0.00000 -0.34176
      15     O     4.17447  4.17447  0.00000 -0.34895

   Total alpha = 36.00000, Total beta = 36.00000, Total charge =  0.00000
