  ==> Input File <==

--------------------------------------------------------------------------
set {
	reference rhf
	basis 6-31G*
}

set_num_threads( 4 )
memory 2 gb

molecule MOL {
0 1

H	 0.954541	 -2.671099	 0.021767
C	 0.545281	 -2.375315	 0.995328
C	 -0.724611	 -1.565973	 0.938079
O	 1.099140	 -2.694012	 1.997226
C	 -0.558097	 -0.297372	 0.091132
H	 -1.021789	 -1.327753	 1.952681
H	 -1.498943	 -2.193830	 0.498720
C	 -1.850991	 0.512573	 -0.019058
H	 0.221392	 0.324087	 0.525827
H	 -0.216944	 -0.567552	 -0.906603
C	 -3.096943	 -0.368295	 -0.099594
H	 -1.800724	 1.150330	 -0.898172
H	 -1.931651	 1.177355	 0.838044
H	 -3.060452	 -1.020287	 -0.967456
H	 -3.996858	 0.233488	 -0.175704
H	 -3.191959	 -0.995686	 0.782074

	symmetry c1
}
set optking {
	frozen_dihedral = ("
		9 5 8 12
	")
}

ee = optimize('scf')
oeprop('DIPOLE', 'QUADRUPOLE', 'MULLIKEN_CHARGES')
f=open( 'psi4out.xyz', 'w' )
f.write( "16  " )
f.write( str(ee) + "\n" )
f.write( MOL.save_string_xyz() )
f.close()
--------------------------------------------------------------------------

    Molecular point group: c1
  Charge       = 0
  Multiplicity = 1
  Basis Set: 6-31G*
  Basis Set:
  @DF-RHF Final Energy:  -270.01320665741923
    Total Energy =                       -270.0132066574191185
    Molecular point group: c1
  Basis Set: 6-31G*
  Basis Set:
  Basis Set: 6-31G*
  Basis Set:
  @DF-RHF Final Energy:  -270.01384469348460
    Total Energy =                       -270.0138446934845433
  Basis Set: 6-31G*
  Basis Set:
  Basis Set: 6-31G*
  Basis Set:
  @DF-RHF Final Energy:  -270.01538298419962
    Total Energy =                       -270.0153829841997322
  Basis Set: 6-31G*
  Basis Set:
  Basis Set: 6-31G*
  Basis Set:
  @DF-RHF Final Energy:  -270.01546068356458
    Total Energy =                       -270.0154606835646973
  Basis Set: 6-31G*
  Basis Set:
  @DF-RHF Final Energy:  -270.01524156890196
    Total Energy =                       -270.0152415689017857
  @DF-RHF Final Energy:  -270.01518056368616
    Total Energy =                       -270.0151805636859308
  Basis Set: 6-31G*
  Basis Set:
  @DF-RHF Final Energy:  -270.01552185320088
    Total Energy =                       -270.0155218532008234
  Basis Set: 6-31G*
  Basis Set:
  Basis Set: 6-31G*
  Basis Set:
  @DF-RHF Final Energy:  -270.01555928194085
    Total Energy =                       -270.0155592819409094
  Basis Set: 6-31G*
  Basis Set:
  Basis Set: 6-31G*
  Basis Set:
  @DF-RHF Final Energy:  -270.01556089648648
    Total Energy =                       -270.0155608964865905
  Basis Set: 6-31G*
  Basis Set:
  Charge       = 0
  Multiplicity = 1
  Basis Set: 6-31G*
  Basis Set:

    Orbital Energies (a.u.)
    -----------------------

    Doubly Occupied:

       1A    -20.561908     2A    -11.326046     3A    -11.237319
       4A    -11.234250     5A    -11.229909     6A    -11.219267
       7A     -1.401719     8A     -1.095393     9A     -1.014611
      10A     -0.915026    11A     -0.809309    12A     -0.787563
      13A     -0.675659    14A     -0.650871    15A     -0.637261
      16A     -0.588698    17A     -0.576679    18A     -0.568049
      19A     -0.526659    20A     -0.517081    21A     -0.486831
      22A     -0.477221    23A     -0.470001    24A     -0.409231

  @DF-RHF Final Energy:  -270.01556159433233

   => Energetics <=

    Nuclear Repulsion Energy =            232.3057272487324383
    One-Electron Energy =                -825.8094563932843357
    Two-Electron Energy =                 323.4881675502196572
    DFT Exchange-Correlation Energy =       0.0000000000000000
    Empirical Dispersion Energy =           0.0000000000000000
    PCM Polarization Energy =               0.0000000000000000
    EFP Energy =                            0.0000000000000000
    Total Energy =                       -270.0155615943322687
    Molecular point group: c1
  Basis Set: 6-31G*
  Basis Set:

  -Total Gradient:
     Atom            X                  Y                   Z
    ------   -----------------  -----------------  -----------------
       1        0.000004307795    -0.000014585012     0.000005791153
       2        0.000020394203     0.000045517446     0.000015568412
       3        0.000030186498     0.000038441674    -0.000040081503
       4        0.000000189802    -0.000036797787    -0.000003792870
       5        0.001186170386     0.001289003277    -0.006819872121
       6       -0.000004475427    -0.000000501194    -0.000004377472
       7       -0.000008104490    -0.000002960619     0.000002365977
       8        0.002638835229     0.004310665174     0.004867386003
       9       -0.001374767398    -0.001787711857     0.005064436702
      10        0.000002568273    -0.000010709086     0.000006109380
      11       -0.000013737697     0.000044430044    -0.000006766391
      12       -0.002468748358    -0.003879954400    -0.003089296983
      13       -0.000014941929    -0.000005651662     0.000001945650
      14        0.000012226867     0.000001123531     0.000011989923
      15       -0.000019080972    -0.000006593099    -0.000006040758
      16        0.000008977212     0.000016283570    -0.000005365102

  **** Optimization is complete! (in 10 steps) ****
    Final optimized geometry and variables:
    Molecular point group: c1

    Geometry (in Angstrom), charge = 0, multiplicity = 1:

    H            1.800305094624    -1.517043199029    -0.614153715708
    C            1.376138138872    -1.218901838325     0.352293339353
    C            0.057974898453    -0.493316969396     0.277444556304
    O            1.954496624388    -1.469405182606     1.359889326429
    C            0.170677820806     0.772929007118    -0.588745579336
    H           -0.254869183556    -0.255323412733     1.287760091185
    H           -0.669557105372    -1.179299370413    -0.149948119502
    C           -1.111749431987     1.622265682436    -0.647705599140
    H            0.962316705473     1.379488336729    -0.156813554913
    H            0.477584810595     0.494748731492    -1.593539371034
    C           -2.413342614561     0.827097677790    -0.786453365833
    H           -1.043062280886     2.269725827439    -1.517370792216
    H           -1.170751682078     2.257706705754     0.230531153503
    H           -2.380540551450     0.161361629981    -1.644957166872
    H           -3.251708728598     1.501564326387    -0.928065769597
    H           -2.624299579472     0.227409819219     0.092323400708

  Mulliken Charges: (a.u.)
   Center  Symbol    Alpha    Beta     Spin     Total
       1     H     0.43238  0.43238  0.00000  0.13524
       2     C     2.82931  2.82931  0.00000  0.34137
       3     C     3.21108  3.21108  0.00000 -0.42215
       4     O     4.23763  4.23763  0.00000 -0.47526
       5     C     3.16649  3.16649  0.00000 -0.33298
       6     H     0.40018  0.40018  0.00000  0.19964
       7     H     0.40756  0.40756  0.00000  0.18488
       8     C     3.15187  3.15187  0.00000 -0.30375
       9     H     0.41117  0.41117  0.00000  0.17766
      10     H     0.41802  0.41802  0.00000  0.16396
      11     C     3.24588  3.24588  0.00000 -0.49175
      12     H     0.41700  0.41700  0.00000  0.16600
      13     H     0.41653  0.41653  0.00000  0.16693
      14     H     0.42163  0.42163  0.00000  0.15674
      15     H     0.41545  0.41545  0.00000  0.16910
      16     H     0.41782  0.41782  0.00000  0.16437

   Total alpha = 24.00000, Total beta = 24.00000, Total charge =  0.00000
