  ==> Input File <==

--------------------------------------------------------------------------
set {
	reference rhf
	basis 6-31G*
}

set_num_threads( 1 )
memory 2 gb

molecule MOL {
0 1

H	 -3.261111	 -0.295142	 1.469456
C	 -3.306842	 -0.277400	 0.373456
C	 -2.660244	 0.921717	 -0.272021
O	 -3.838538	 -1.161155	 -0.216482
C	 -1.220012	 1.144545	 0.209990
H	 -2.705793	 0.797307	 -1.347733
H	 -3.263782	 1.790044	 -0.010477
C	 -0.252658	 0.041456	 -0.226725
H	 -0.873521	 2.100229	 -0.171974
H	 -1.211708	 1.231594	 1.295398
C	 1.180775	 0.282413	 0.250794
H	 -0.266029	 -0.034465	 -1.312038
H	 -0.597733	 -0.921000	 0.146291
C	 2.148627	 -0.814315	 -0.201312
H	 1.516199	 1.249228	 -0.115937
H	 1.192670	 0.346017	 1.338083
C	 3.580890	 -0.659131	 0.322722
H	 2.166869	 -0.852443	 -1.289387
H	 1.762857	 -1.776509	 0.128956
C	 4.654674	 -1.288955	 -0.566058
H	 3.636102	 -1.112473	 1.309323
H	 3.800917	 0.397298	 0.462248
H	 4.451343	 -2.342968	 -0.736298
H	 4.717185	 -0.803429	 -1.534216
H	 5.632789	 -1.212834	 -0.100772

	symmetry c1
}
set optking {
	frozen_dihedral = ("
		6 3 5 8,
		6 3 2 4,
		3 5 8 12,
		12 8 11 14,
		8 11 14 18
	")
}

ee = energy('scf')
oeprop('DIPOLE', 'QUADRUPOLE', 'MULLIKEN_CHARGES')
f=open( 'psi4out.xyz', 'w' )
f.write( "25  " )
f.write( str(ee) + "\n" )
f.write( MOL.save_string_xyz() )
f.close()
--------------------------------------------------------------------------

    Molecular point group: c1

    Geometry (in Angstrom), charge = 0, multiplicity = 1:

       Center              X                  Y                   Z               Mass
    ------------   -----------------  -----------------  -----------------  -----------------
           H         -3.299616608342    -0.078006497508     1.510395759099     1.007825032070
           C         -3.345347608342    -0.060264497508     0.414395759099    12.000000000000
           C         -2.698749608342     1.138852502492    -0.231081240901    12.000000000000
           O         -3.877043608342    -0.944019497508    -0.175542240901    15.994914619560
           C         -1.258517608342     1.361680502492     0.250929759099    12.000000000000
           H         -2.744298608342     1.014442502492    -1.306793240901     1.007825032070
           H         -3.302287608342     2.007179502492     0.030462759099     1.007825032070
           C         -0.291163608342     0.258591502492    -0.185785240901    12.000000000000
           H         -0.912026608342     2.317364502492    -0.131034240901     1.007825032070
           H         -1.250213608342     1.448729502492     1.336337759099     1.007825032070
           C          1.142269391658     0.499548502492     0.291733759099    12.000000000000
           H         -0.304534608342     0.182670502492    -1.271098240901     1.007825032070
           H         -0.636238608342    -0.703864497508     0.187230759099     1.007825032070
           C          2.110121391658    -0.597179497508    -0.160372240901    12.000000000000
           H          1.477693391658     1.466363502492    -0.074997240901     1.007825032070
           H          1.154164391658     0.563152502492     1.379022759099     1.007825032070
           C          3.542384391658    -0.441995497508     0.363661759099    12.000000000000
           H          2.128363391658    -0.635307497508    -1.248447240901     1.007825032070
           H          1.724351391658    -1.559373497508     0.169895759099     1.007825032070
           C          4.616168391658    -1.071819497508    -0.525118240901    12.000000000000
           H          3.597596391658    -0.895337497508     1.350262759099     1.007825032070
           H          3.762411391658     0.614433502492     0.503187759099     1.007825032070
           H          4.412837391658    -2.125832497508    -0.695358240901     1.007825032070
           H          4.678679391658    -0.586293497508    -1.493276240901     1.007825032070
           H          5.594283391658    -0.995698497508    -0.059832240901     1.007825032070

  Charge       = 0
  Multiplicity = 1
  Basis Set: 6-31G*
  Basis Set:

    Orbital Energies (a.u.)
    -----------------------

    Doubly Occupied:

       1A    -20.562050     2A    -11.326192     3A    -11.235454
       4A    -11.234729     5A    -11.223990     6A    -11.220890
       7A    -11.217305     8A    -11.216355     9A    -11.210805
      10A     -1.402034    11A     -1.103788    12A     -1.068993
      13A     -1.015270    14A     -0.943701    15A     -0.869221
      16A     -0.815408    17A     -0.793084    18A     -0.786873
      19A     -0.664795    20A     -0.663447    21A     -0.638072
      22A     -0.613831    23A     -0.609418    24A     -0.590740
      25A     -0.567466    26A     -0.556701    27A     -0.535215
      28A     -0.519913    29A     -0.511256    30A     -0.499939
      31A     -0.485519    32A     -0.479202    33A     -0.464166
      34A     -0.461420    35A     -0.441321    36A     -0.409605

  @DF-RHF Final Energy:  -387.12086774579728

   => Energetics <=

    Nuclear Repulsion Energy =            435.1645168577165919
    One-Electron Energy =               -1386.6541850392031847
    Two-Electron Energy =                 564.3688004356885131
    DFT Exchange-Correlation Energy =       0.0000000000000000
    Empirical Dispersion Energy =           0.0000000000000000
    PCM Polarization Energy =               0.0000000000000000
    EFP Energy =                            0.0000000000000000
    Total Energy =                       -387.1208677457981366

  Mulliken Charges: (a.u.)
   Center  Symbol    Alpha    Beta     Spin     Total
       1     H     0.43259  0.43259  0.00000  0.13482
       2     C     2.83086  2.83086  0.00000  0.33829
       3     C     3.20808  3.20808  0.00000 -0.41616
       4     O     4.23774  4.23774  0.00000 -0.47547
       5     C     3.16664  3.16664  0.00000 -0.33328
       6     H     0.39967  0.39967  0.00000  0.20066
       7     H     0.40666  0.40666  0.00000  0.18668
       8     C     3.15557  3.15557  0.00000 -0.31115
       9     H     0.41283  0.41283  0.00000  0.17434
      10     H     0.41955  0.41955  0.00000  0.16089
      11     C     3.15355  3.15355  0.00000 -0.30710
      12     H     0.41781  0.41781  0.00000  0.16438
      13     H     0.41827  0.41827  0.00000  0.16345
      14     C     3.15283  3.15283  0.00000 -0.30566
      15     H     0.42227  0.42227  0.00000  0.15547
      16     H     0.42318  0.42318  0.00000  0.15365
      17     C     3.15267  3.15267  0.00000 -0.30534
      18     H     0.42215  0.42215  0.00000  0.15571
      19     H     0.42120  0.42120  0.00000  0.15760
      20     C     3.23997  3.23997  0.00000 -0.47995
      21     H     0.42170  0.42170  0.00000  0.15660
      22     H     0.42268  0.42268  0.00000  0.15464
      23     H     0.42106  0.42106  0.00000  0.15789
      24     H     0.42100  0.42100  0.00000  0.15800
      25     H     0.41947  0.41947  0.00000  0.16105

   Total alpha = 36.00000, Total beta = 36.00000, Total charge =  0.00000
