                              Psi4 1.0.54 Driver

  ==> Input File <==

--------------------------------------------------------------------------
set {
	reference rhf
	basis cc-pvtz
}

set_num_threads( 4 )
memory 2 gb

molecule MOL {
0 1

O	 1.216069	 1.304886	 0.000821
C	 1.121787	 0.124983	 0.000110
C	 -0.170912	 -0.649867	 -0.000147
O	 2.167739	 -0.685178	 -0.000678
C	 -1.413045	 0.229353	 0.001137
H	 -0.152877	 -1.303435	 -0.866175
H	 -0.152278	 -1.305116	 0.864586
C	 -1.294904	 1.403702	 -0.965950
H	 -1.590439	 0.597147	 1.005527
H	 -2.277890	 -0.372128	 -0.255396
C	 -2.533588	 2.292818	 -0.971014
H	 -0.424748	 2.000732	 -0.705906
H	 -1.117072	 1.028978	 -1.970537
H	 -2.718305	 2.710850	 0.012711
H	 -2.421642	 3.117210	 -1.665652
H	 -3.415621	 1.732116	 -1.261207
C	 3.449556	 -0.089977	 -0.000570
H	 3.585694	 0.522473	 -0.879546
H	 4.155805	 -0.904274	 -0.001389
H	 3.586173	 0.521118	 0.879272

	symmetry c1
}
set optking {
	frozen_dihedral = ("
		9 5 3 6
	")
}

ee,wfn = optimize('scf', return_wfn=True)
oeprop( wfn, 'DIPOLE', 'QUADRUPOLE', 'MULLIKEN_CHARGES')
f=open( 'psi4out.xyz', 'w' )
f.write( "20  " )
f.write( str(ee) + "\n" )
f.write( MOL.save_string_xyz() )
f.close()
--------------------------------------------------------------------------

    Molecular point group: c1
  Charge       = 0
  Multiplicity = 1
  Basis Set: CC-PVTZ
  Basis Set:
  @DF-RHF Final Energy:  -384.06960706875924
    Total Energy =                       -384.0696070687590691
    Molecular point group: c1
  Basis Set: CC-PVTZ
  Basis Set:
  Basis Set: CC-PVTZ
  Basis Set:
  @DF-RHF Final Energy:  -384.07749328381357
    Total Energy =                       -384.0774932838135101
  Basis Set: CC-PVTZ
  Basis Set:
  Basis Set: CC-PVTZ
  Basis Set:
  @DF-RHF Final Energy:  -384.07900766457720
    Total Energy =                       -384.0790076645773752
  Basis Set: CC-PVTZ
  Basis Set:
  Basis Set: CC-PVTZ
  Basis Set:
  @DF-RHF Final Energy:  -384.07564836793097
    Total Energy =                       -384.0756483679307394
  Basis Set: CC-PVTZ
  Basis Set:
  @DF-RHF Final Energy:  -384.07973737956007
    Total Energy =                       -384.0797373795604699
  @DF-RHF Final Energy:  -384.08004421117801
    Total Energy =                       -384.0800442111774373
  @DF-RHF Final Energy:  -384.08024133234170
    Total Energy =                       -384.0802413323415294
  Basis Set: CC-PVTZ
  Basis Set:
  @DF-RHF Final Energy:  -384.08031988163322
    Total Energy =                       -384.0803198816325903
  Basis Set: CC-PVTZ
  Basis Set:
  Basis Set: CC-PVTZ
  Basis Set:
  @DF-RHF Final Energy:  -384.08035810946706
    Total Energy =                       -384.0803581094672836
  Basis Set: CC-PVTZ
  Basis Set:
  Basis Set: CC-PVTZ
  Basis Set:
  @DF-RHF Final Energy:  -384.08036286977455
    Total Energy =                       -384.0803628697744898
  Basis Set: CC-PVTZ
  Basis Set:
  Charge       = 0
  Multiplicity = 1
  Basis Set: CC-PVTZ
  Basis Set:

    Orbital Energies (a.u.)
    -----------------------

    Doubly Occupied:

       1A    -20.598145     2A    -20.532961     3A    -11.365575
       4A    -11.279001     5A    -11.234165     6A    -11.220850
       7A    -11.212000     8A    -11.205927     9A     -1.473221
      10A     -1.365904    11A     -1.087454    12A     -1.023210
      13A     -0.970313    14A     -0.886070    15A     -0.808502
      16A     -0.768472    17A     -0.700756    18A     -0.683534
      19A     -0.675152    20A     -0.636813    21A     -0.602540
      22A     -0.590256    23A     -0.583150    24A     -0.539216
      25A     -0.538478    26A     -0.519481    27A     -0.509681
      28A     -0.479639    29A     -0.472225    30A     -0.464709
      31A     -0.458853    32A     -0.436520

  @DF-RHF Final Energy:  -384.08036329968354

   => Energetics <=

    Nuclear Repulsion Energy =            390.1407990092163800
    One-Electron Energy =               -1296.5967792245012333
    Two-Electron Energy =                 522.3756169156008582
    DFT Exchange-Correlation Energy =       0.0000000000000000
    Empirical Dispersion Energy =           0.0000000000000000
    PCM Polarization Energy =               0.0000000000000000
    EFP Energy =                            0.0000000000000000
    Total Energy =                       -384.0803632996839951
    Molecular point group: c1
  Basis Set: CC-PVTZ
  Basis Set:

  -Total Gradient:
     Atom            X                  Y                   Z
    ------   -----------------  -----------------  -----------------
       1       -0.000029211532    -0.000050816945    -0.000026028869
       2        0.000049899075     0.000073111450     0.000033075757
       3        0.002405704430     0.003527266995    -0.003446529676
       4        0.000062382013     0.000000142334     0.000010837575
       5        0.002954075433     0.004131329123    -0.000788711298
       6       -0.002481546849    -0.003558861254     0.002970974130
       7        0.000001143519    -0.000004996188     0.000006681955
       8        0.000018716024    -0.000003067917    -0.000028016292
       9       -0.002908778657    -0.004095377247     0.001273695560
      10        0.000004102948     0.000010703963    -0.000005992303
      11       -0.000016921786     0.000002210113     0.000008858325
      12        0.000002537613    -0.000015131506     0.000006958498
      13       -0.000003353450    -0.000002930160    -0.000003190849
      14       -0.000002559071     0.000000457991     0.000007345782
      15        0.000005578438    -0.000002237489     0.000002537636
      16        0.000003275328     0.000003285787    -0.000004143131
      17       -0.000029718945     0.000000125511    -0.000036769763
      18       -0.000005665478    -0.000010717065     0.000003915648
      19       -0.000008143750     0.000004832639     0.000009362923
      20       -0.000021515303    -0.000009330132     0.000005138391

  **** Optimization is complete! (in 11 steps) ****
    Final optimized geometry and variables:
    Molecular point group: c1

    Geometry (in Angstrom), charge = 0, multiplicity = 1:

    O            1.026369485860     0.659097248338     0.883192569168
    C            0.840386863620    -0.379499100017     0.344990063520
    C           -0.483048874426    -1.097003122402     0.290323994452
    O            1.801582956083    -1.073787895362    -0.238846675765
    C           -1.722436534620    -0.202733756893     0.331301885791
    H           -0.509575025969    -1.776189064033    -0.551019266739
    H           -0.485771861069    -1.740176767560     1.167473235959
    C           -1.766244810349     0.905495510023    -0.716537740762
    H           -1.849486774994     0.199264754493     1.329866574526
    H           -2.577580734676    -0.856321053883     0.178794269891
    C           -3.081883380348     1.676578040366    -0.692391759043
    H           -0.944813233321     1.591510431475    -0.556606625696
    H           -1.624435032696     0.468619339171    -1.702511241735
    H           -3.239976946559     2.145303324598     0.273031629910
    H           -3.090125671356     2.457820738315    -1.443471648314
    H           -3.926511780676     1.023134306100    -0.885045342201
    C            3.109494516455    -0.539968435819    -0.187037499778
    H            3.146955360310     0.423664996601    -0.672724949304
    H            3.738710111543    -1.243940900608    -0.706907074945
    H            3.436561960955    -0.431869230928     0.836458723615

  Mulliken Charges: (a.u.)
   Center  Symbol    Alpha    Beta     Spin     Total
       1     O     4.20302  4.20302  0.00000 -0.40604
       2     C     2.80008  2.80008  0.00000  0.39984
       3     C     3.10967  3.10967  0.00000 -0.21934
       4     O     4.14587  4.14587  0.00000 -0.29173
       5     C     3.08420  3.08420  0.00000 -0.16841
       6     H     0.43526  0.43526  0.00000  0.12949
       7     H     0.43827  0.43827  0.00000  0.12345
       8     C     3.09204  3.09204  0.00000 -0.18408
       9     H     0.44721  0.44721  0.00000  0.10558
      10     H     0.45036  0.45036  0.00000  0.09928
      11     C     3.15116  3.15116  0.00000 -0.30232
      12     H     0.43987  0.43987  0.00000  0.12026
      13     H     0.45595  0.45595  0.00000  0.08810
      14     H     0.45321  0.45321  0.00000  0.09358
      15     H     0.44789  0.44789  0.00000  0.10422
      16     H     0.45669  0.45669  0.00000  0.08662
      17     C     3.03567  3.03567  0.00000 -0.07133
      18     H     0.45400  0.45400  0.00000  0.09199
      19     H     0.44515  0.44515  0.00000  0.10970
      20     H     0.45443  0.45443  0.00000  0.09114

   Total alpha = 32.00000, Total beta = 32.00000, Total charge = -0.00000

*** Psi4 exiting successfully. Buy a developer a beer!
