  ==> Input File <==

--------------------------------------------------------------------------
set {
	reference rhf
	basis cc-pvtz
}

set_num_threads( 4 )
memory 2 gb

molecule MOL {
0 1

O	 1.847685	 1.294399	 -0.000190
C	 1.704209	 0.119472	 -0.000093
C	 0.380337	 -0.600947	 -0.000234
O	 2.715427	 -0.733672	 0.000025
C	 -0.824290	 0.329213	 -0.000115
H	 0.371455	 -1.255476	 -0.865660
H	 0.371410	 -1.255787	 0.864952
C	 -2.146151	 -0.432825	 -0.000068
H	 -0.773936	 0.979158	 -0.866319
H	 -0.773838	 0.979034	 0.866186
C	 -3.366283	 0.483552	 0.000557
H	 -2.189286	 -1.084450	 -0.869996
H	 -2.188867	 -1.085083	 0.869399
C	 -3.370811	 1.474258	 1.159821
H	 -4.267957	 -0.121123	 0.039413
H	 -3.405737	 1.027580	 -0.938930
H	 -3.366529	 0.959584	 2.114978
H	 -4.249291	 2.108411	 1.130545
H	 -2.497696	 2.117637	 1.128682
C	 4.020999	 -0.192556	 0.000019
H	 4.182809	 0.412891	 -0.879449
H	 4.692590	 -1.035653	 0.000152
H	 4.182726	 0.413087	 0.879368

	symmetry c1
}
set optking {
	frozen_dihedral = ("
		15 11 8 12
	")
}

ee = optimize('scf')
oeprop('DIPOLE', 'QUADRUPOLE', 'MULLIKEN_CHARGES')
f=open( 'psi4out.xyz', 'w' )
f.write( "23  " )
f.write( str(ee) + "\n" )
f.write( MOL.save_string_xyz() )
f.close()
--------------------------------------------------------------------------

    Molecular point group: c1
  Charge       = 0
  Multiplicity = 1
  Basis Set: CC-PVTZ
  Basis Set:
  @DF-RHF Final Energy:  -423.12810749431850
    Total Energy =                       -423.1281074943181011
    Molecular point group: c1
  Basis Set: CC-PVTZ
  Basis Set:
  Basis Set: CC-PVTZ
  Basis Set:
  @DF-RHF Final Energy:  -423.12864799752930
    Total Energy =                       -423.1286479975291286
  Basis Set: CC-PVTZ
  Basis Set:
  Basis Set: CC-PVTZ
  Basis Set:
  @DF-RHF Final Energy:  -423.12913262813152
    Total Energy =                       -423.1291326281312877
  Basis Set: CC-PVTZ
  Basis Set:
  Basis Set: CC-PVTZ
  Basis Set:
  @DF-RHF Final Energy:  -423.12908297139637
    Total Energy =                       -423.1290829713966559
  Basis Set: CC-PVTZ
  Basis Set:
  Basis Set: CC-PVTZ
  Basis Set:
  @DF-RHF Final Energy:  -423.12913324634303
    Total Energy =                       -423.1291332463429171
  Basis Set: CC-PVTZ
  Basis Set:
  Basis Set: CC-PVTZ
  Basis Set:
  @DF-RHF Final Energy:  -423.12916746418500
    Total Energy =                       -423.1291674641855707
  Basis Set: CC-PVTZ
  Basis Set:
  Charge       = 0
  Multiplicity = 1
  Basis Set: CC-PVTZ
  Basis Set:

    Orbital Energies (a.u.)
    -----------------------

    Doubly Occupied:

       1A    -20.596266     2A    -20.534086     3A    -11.364494
       4A    -11.278450     5A    -11.233656     6A    -11.216659
       7A    -11.216022     8A    -11.214920     9A    -11.205851
      10A     -1.472152    11A     -1.365713    12A     -1.094255
      13A     -1.042996    14A     -0.985992    15A     -0.931785
      16A     -0.856934    17A     -0.783097    18A     -0.768572
      19A     -0.698920    20A     -0.686512    21A     -0.676057
      22A     -0.645784    23A     -0.614936    24A     -0.598548
      25A     -0.590589    26A     -0.561930    27A     -0.535341
      28A     -0.526872    29A     -0.521631    30A     -0.515860
      31A     -0.490979    32A     -0.466559    33A     -0.463569
      34A     -0.460852    35A     -0.457662    36A     -0.438342

  @DF-RHF Final Energy:  -423.12916767305990

   => Energetics <=

    Nuclear Repulsion Energy =            458.1995370850002018
    One-Electron Energy =               -1484.4317236736908399
    Two-Electron Energy =                 603.1030189156310826
    DFT Exchange-Correlation Energy =       0.0000000000000000
    Empirical Dispersion Energy =           0.0000000000000000
    PCM Polarization Energy =               0.0000000000000000
    EFP Energy =                            0.0000000000000000
    Total Energy =                       -423.1291676730595555
    Molecular point group: c1
  Basis Set: CC-PVTZ
  Basis Set:

  -Total Gradient:
     Atom            X                  Y                   Z
    ------   -----------------  -----------------  -----------------
       1        0.000002695219    -0.000005358854    -0.000010391783
       2       -0.000002521140    -0.000001288916     0.000012281542
       3        0.000003464181    -0.000001280159     0.000035128527
       4        0.000000876263     0.000004894347     0.000005490234
       5       -0.000004423317    -0.000002758006    -0.000043676199
       6       -0.000003940545     0.000007628169    -0.000007773163
       7        0.000004979640    -0.000005615810    -0.000009727495
       8       -0.001171559677    -0.001507006149     0.001625257064
       9        0.000000283794     0.000006770673     0.000003205356
      10       -0.000000062127    -0.000004984015     0.000002716390
      11        0.000246755039     0.000159002419    -0.002467619694
      12        0.000958053046     0.001257890387    -0.000984297880
      13       -0.000006980218    -0.000002308829    -0.000003189840
      14       -0.000003551833    -0.000007726635    -0.000011654072
      15       -0.000036437966     0.000103601529     0.001858411216
      16        0.000008282593    -0.000001116857     0.000007586213
      17        0.000005941671    -0.000003364353    -0.000005721953
      18       -0.000005691563    -0.000000360181     0.000002384985
      19       -0.000001226060     0.000004397553    -0.000004256266
      20        0.000002591690    -0.000002134929    -0.000005198158
      21        0.000001044760     0.000000168757     0.000000614995
      22        0.000002335545     0.000001043528     0.000000295937
      23       -0.000000908997    -0.000000093672     0.000000134046

  **** Optimization is complete! (in 7 steps) ****
    Final optimized geometry and variables:
    Molecular point group: c1

    Geometry (in Angstrom), charge = 0, multiplicity = 1:

    O            1.730332084481     1.080164630191    -0.072025577928
    C            1.572019998781    -0.091561247423    -0.128548758700
    C            0.239387533080    -0.795521740566    -0.141483078473
    O            2.572415559188    -0.955300981499    -0.189100793945
    C           -0.953192904714     0.148572674539    -0.081456899302
    H            0.210377790575    -1.411452861302    -1.034220506010
    H            0.234559480533    -1.487448358486     0.694554269224
    C           -2.280501959492    -0.608213454107    -0.082326348193
    H           -0.915454351285     0.825985149070    -0.927878299434
    H           -0.866569001861     0.765724457920     0.803087476957
    C           -3.521975470671     0.283575470048    -0.146867283071
    H           -2.294303066767    -1.272266977179    -0.942726702057
    H           -2.336720591308    -1.240871755220     0.800369641875
    C           -3.642636787795     1.296474059690     0.989969326211
    H           -4.399148620939    -0.355773260568    -0.124903877955
    H           -3.540836190245     0.806485589858    -1.098698834271
    H           -3.594838265512     0.805510969949     1.957035242194
    H           -4.589648160422     1.820847946816     0.934222846738
    H           -2.856535899470     2.040502439512     0.957203799036
    C            3.884416613497    -0.430206306912    -0.184375572120
    H            4.039194798066     0.217147147728    -1.034799232592
    H            4.545359033364    -1.279979573097    -0.238465820761
    H            4.068494712053     0.128135286196     0.721503667101

  Mulliken Charges: (a.u.)
   Center  Symbol    Alpha    Beta     Spin     Total
       1     O     4.19722  4.19722  0.00000 -0.39445
       2     C     2.80609  2.80609  0.00000  0.38781
       3     C     3.10182  3.10182  0.00000 -0.20365
       4     O     4.14638  4.14638  0.00000 -0.29276
       5     C     3.08693  3.08693  0.00000 -0.17387
       6     H     0.43920  0.43920  0.00000  0.12159
       7     H     0.44008  0.44008  0.00000  0.11984
       8     C     3.09854  3.09854  0.00000 -0.19708
       9     H     0.44618  0.44618  0.00000  0.10764
      10     H     0.44408  0.44408  0.00000  0.11184
      11     C     3.08955  3.08955  0.00000 -0.17911
      12     H     0.45085  0.45085  0.00000  0.09830
      13     H     0.45338  0.45338  0.00000  0.09323
      14     C     3.15507  3.15507  0.00000 -0.31014
      15     H     0.44888  0.44888  0.00000  0.10224
      16     H     0.45289  0.45289  0.00000  0.09423
      17     H     0.45505  0.45505  0.00000  0.08990
      18     H     0.44599  0.44599  0.00000  0.10801
      19     H     0.44995  0.44995  0.00000  0.10010
      20     C     3.03775  3.03775  0.00000 -0.07550
      21     H     0.45439  0.45439  0.00000  0.09123
      22     H     0.44536  0.44536  0.00000  0.10928
      23     H     0.45435  0.45435  0.00000  0.09131

   Total alpha = 36.00000, Total beta = 36.00000, Total charge = -0.00000
