  ==> Input File <==

--------------------------------------------------------------------------
set {
	reference rhf
	basis 6-31G*
}

set_num_threads( 4 )
memory 2 gb

molecule MOL {
0 1

H	 -3.135461	 -1.215070	 0.001379
O	 -2.310168	 -0.871793	 -0.309793
C	 -2.026376	 0.340750	 0.341611
C	 -0.673256	 0.843270	 -0.132153
H	 -2.792215	 1.080697	 0.115987
H	 -2.013526	 0.200402	 1.421792
C	 0.486613	 -0.083066	 0.235839
H	 -0.715586	 0.970948	 -1.210718
H	 -0.508072	 1.829858	 0.297090
C	 1.840266	 0.629275	 0.239011
H	 0.513260	 -0.913884	 -0.461688
H	 0.304655	 -0.511235	 1.220929
C	 2.998627	 -0.295065	 0.612464
H	 2.023643	 1.056707	 -0.744550
H	 1.808800	 1.466257	 0.933932
H	 3.077888	 -1.123958	 -0.085063
H	 3.945509	 0.236248	 0.604301
H	 2.862332	 -0.712692	 1.606206

	symmetry c1
}
set optking {
	frozen_dihedral = ("
		10 7 4 8
	")
}

ee = optimize('scf')
oeprop('DIPOLE', 'QUADRUPOLE', 'MULLIKEN_CHARGES')
f=open( 'psi4out.xyz', 'w' )
f.write( "18  " )
f.write( str(ee) + "\n" )
f.write( MOL.save_string_xyz() )
f.close()
--------------------------------------------------------------------------

    Molecular point group: c1
  Charge       = 0
  Multiplicity = 1
  Basis Set: 6-31G*
  Basis Set:
  @DF-RHF Final Energy:  -271.17842340449602
    Total Energy =                       -271.1784234044961295
    Molecular point group: c1
  Basis Set: 6-31G*
  Basis Set:
  Basis Set: 6-31G*
  Basis Set:
  @DF-RHF Final Energy:  -271.17852404746486
    Total Energy =                       -271.1785240474647480
  Basis Set: 6-31G*
  Basis Set:
  Basis Set: 6-31G*
  Basis Set:
  @DF-RHF Final Energy:  -271.17859766111133
    Total Energy =                       -271.1785976611112119
  Basis Set: 6-31G*
  Basis Set:
  Basis Set: 6-31G*
  Basis Set:
  @DF-RHF Final Energy:  -271.17859926804084
    Total Energy =                       -271.1785992680407276
  Basis Set: 6-31G*
  Basis Set:
  Charge       = 0
  Multiplicity = 1
  Basis Set: 6-31G*
  Basis Set:

    Orbital Energies (a.u.)
    -----------------------

    Doubly Occupied:

       1A    -20.552855     2A    -11.267689     3A    -11.211908
       4A    -11.211183     5A    -11.206717     6A    -11.204734
       7A     -1.359600     8A     -1.074372     9A     -1.008706
      10A     -0.912812    11A     -0.818221    12A     -0.783590
      13A     -0.703599    14A     -0.646646    15A     -0.621807
      16A     -0.576388    17A     -0.572381    18A     -0.558357
      19A     -0.521908    20A     -0.504495    21A     -0.485721
      22A     -0.467104    23A     -0.457704    24A     -0.447787
      25A     -0.428847

  @DF-RHF Final Energy:  -271.17860020299463

   => Energetics <=

    Nuclear Repulsion Energy =            249.0341893481472653
    One-Electron Energy =                -861.2153157379598269
    Two-Electron Energy =                 341.0025261868181587
    DFT Exchange-Correlation Energy =       0.0000000000000000
    Empirical Dispersion Energy =           0.0000000000000000
    PCM Polarization Energy =               0.0000000000000000
    EFP Energy =                            0.0000000000000000
    Total Energy =                       -271.1786002029944029
    Molecular point group: c1
  Basis Set: 6-31G*
  Basis Set:

  -Total Gradient:
     Atom            X                  Y                   Z
    ------   -----------------  -----------------  -----------------
       1        0.000001666876     0.000005824519    -0.000002757244
       2       -0.000009786497    -0.000014732542     0.000001754833
       3       -0.000021080991    -0.000011636200    -0.000000839084
       4        0.002456345976     0.003482931330     0.001086545216
       5       -0.000000693215     0.000026960903     0.000022695550
       6        0.000018280201    -0.000016918661    -0.000006613020
       7       -0.000074197840    -0.001407597200    -0.003268730540
       8       -0.002064452298    -0.002655928115    -0.000189523008
       9        0.000015334289    -0.000023070418    -0.000015232187
      10       -0.000305136293     0.000605630591     0.002396207916
      11       -0.000003771828     0.000037471647    -0.000021736663
      12       -0.000011445017    -0.000004445260     0.000028531340
      13        0.000004760008    -0.000011467446    -0.000042557650
      14        0.000001387492    -0.000011420933     0.000012863514
      15       -0.000011222710     0.000002403605     0.000007698961
      16        0.000008500390    -0.000014345176     0.000004160863
      17        0.000001144597    -0.000003415788    -0.000009807910
      18       -0.000005633149     0.000013755144    -0.000002660885

  **** Optimization is complete! (in 5 steps) ****
    Final optimized geometry and variables:
    Molecular point group: c1

    Geometry (in Angstrom), charge = 0, multiplicity = 1:

    H           -3.104179864862    -1.305659810413    -0.164964397203
    O           -2.278102743373    -0.953017678183    -0.463415512000
    C           -2.036396470985     0.282159175284     0.161517886009
    C           -0.679396665763     0.794152703451    -0.291727392418
    H           -2.809782386257     1.000986017610    -0.104194238431
    H           -2.048963018157     0.170995790630     1.245057806675
    C            0.477491164447    -0.134918056819     0.093426966714
    H           -0.719674827060     0.903491405606    -1.372086522116
    H           -0.529432054945     1.783177417856     0.135417483680
    C            1.836983435238     0.566980087755     0.086451656575
    H            0.492225651374    -0.989160743586    -0.575021661118
    H            0.300062235222    -0.534288217378     1.091076199062
    C            2.994247902687    -0.371740844912     0.425185512114
    H            2.011210703746     1.014289926109    -0.890480767354
    H            1.818570087013     1.389512258344     0.798437606907
    H            3.062477351294    -1.183946664671    -0.292847207374
    H            3.943762079667     0.154881446507     0.420609472775
    H            2.865302013330    -0.812891864281     1.409723975203

  Mulliken Charges: (a.u.)
   Center  Symbol    Alpha    Beta     Spin     Total
       1     H     0.28063  0.28063  0.00000  0.43873
       2     O     4.36968  4.36968  0.00000 -0.73936
       3     C     2.99844  2.99844  0.00000  0.00312
       4     C     3.16106  3.16106  0.00000 -0.32213
       5     H     0.42970  0.42970  0.00000  0.14061
       6     H     0.43266  0.43266  0.00000  0.13468
       7     C     3.14935  3.14935  0.00000 -0.29871
       8     H     0.41428  0.41428  0.00000  0.17145
       9     H     0.42334  0.42334  0.00000  0.15333
      10     C     3.15285  3.15285  0.00000 -0.30571
      11     H     0.41073  0.41073  0.00000  0.17855
      12     H     0.42600  0.42600  0.00000  0.14800
      13     C     3.23901  3.23901  0.00000 -0.47803
      14     H     0.42341  0.42341  0.00000  0.15318
      15     H     0.42509  0.42509  0.00000  0.14983
      16     H     0.42094  0.42094  0.00000  0.15813
      17     H     0.42043  0.42043  0.00000  0.15915
      18     H     0.42241  0.42241  0.00000  0.15518

   Total alpha = 25.00000, Total beta = 25.00000, Total charge =  0.00000
