  ==> Input File <==

--------------------------------------------------------------------------
set {
	reference rhf
	basis 6-31G*
}

set_num_threads( 4 )
memory 2 gb

molecule MOL {
0 1

H	 -3.420663	 1.227371	 -1.044276
O	 -3.452007	 0.283848	 -0.965577
C	 -3.181085	 -0.079926	 0.364119
C	 -1.765924	 0.277073	 0.805136
H	 -3.327791	 -1.152017	 0.410903
H	 -3.905698	 0.375695	 1.036898
C	 -0.677594	 -0.417312	 -0.014550
H	 -1.637766	 1.358238	 0.744969
H	 -1.659588	 0.017670	 1.857098
C	 0.713049	 -0.300499	 0.612862
H	 -0.664106	 0.001142	 -1.016261
H	 -0.935475	 -1.469113	 -0.126825
C	 1.796149	 -1.003011	 -0.210215
H	 0.960333	 0.751765	 0.731220
H	 0.694493	 -0.724459	 1.616116
C	 3.192432	 -0.989892	 0.422538
H	 1.846623	 -0.550162	 -1.199193
H	 1.498060	 -2.037706	 -0.366312
C	 3.825836	 0.397974	 0.536700
H	 3.846066	 -1.622816	 -0.172829
H	 3.144589	 -1.447229	 1.408822
H	 3.875374	 0.885040	 -0.433584
H	 4.838304	 0.329066	 0.922703
H	 3.267460	 1.046027	 1.204088

	symmetry c1
}
set optking {
	frozen_dihedral = ("
		11 7 4 3
	")
}

ee = optimize('scf')
oeprop('DIPOLE', 'QUADRUPOLE', 'MULLIKEN_CHARGES')
f=open( 'psi4out.xyz', 'w' )
f.write( "24  " )
f.write( str(ee) + "\n" )
f.write( MOL.save_string_xyz() )
f.close()
--------------------------------------------------------------------------

    Molecular point group: c1
  Charge       = 0
  Multiplicity = 1
  Basis Set: 6-31G*
  Basis Set:
  @DF-RHF Final Energy:  -349.24701342550543
    Total Energy =                       -349.2470134255054290
    Molecular point group: c1
  Basis Set: 6-31G*
  Basis Set:
  Basis Set: 6-31G*
  Basis Set:
  @DF-RHF Final Energy:  -349.24704974473349
    Total Energy =                       -349.2470497447335447
  Basis Set: 6-31G*
  Basis Set:
  Basis Set: 6-31G*
  Basis Set:
  @DF-RHF Final Energy:  -349.24710734783940
    Total Energy =                       -349.2471073478394032
  Basis Set: 6-31G*
  Basis Set:
  Basis Set: 6-31G*
  Basis Set:
  @DF-RHF Final Energy:  -349.24710999645373
    Total Energy =                       -349.2471099964537871
  Basis Set: 6-31G*
  Basis Set:
  Basis Set: 6-31G*
  Basis Set:
  @DF-RHF Final Energy:  -349.24710881327366
    Total Energy =                       -349.2471088132734849
  Basis Set: 6-31G*
  Basis Set:
  Basis Set: 6-31G*
  Basis Set:
  @DF-RHF Final Energy:  -349.24711068492792
    Total Energy =                       -349.2471106849278613
  Basis Set: 6-31G*
  Basis Set:
  Charge       = 0
  Multiplicity = 1
  Basis Set: 6-31G*
  Basis Set:

    Orbital Energies (a.u.)
    -----------------------

    Doubly Occupied:

       1A    -20.553076     2A    -11.267560     3A    -11.217509
       4A    -11.214122     5A    -11.212528     6A    -11.211823
       7A    -11.211546     8A    -11.207452     9A     -1.359669
      10A     -1.088673    11A     -1.048309    12A     -0.985703
      13A     -0.915163    14A     -0.850496    15A     -0.800583
      16A     -0.776337    17A     -0.678519    18A     -0.653508
      19A     -0.626795    20A     -0.618301    21A     -0.598734
      22A     -0.583821    23A     -0.555491    24A     -0.543670
      25A     -0.515359    26A     -0.504605    27A     -0.501414
      28A     -0.473785    29A     -0.468041    30A     -0.460064
      31A     -0.454906    32A     -0.450651    33A     -0.418681

  @DF-RHF Final Energy:  -349.24711075098941

   => Energetics <=

    Nuclear Repulsion Energy =            384.2473584457958964
    One-Electron Energy =               -1234.9351521105702432
    Two-Electron Energy =                 501.4406829137845989
    DFT Exchange-Correlation Energy =       0.0000000000000000
    Empirical Dispersion Energy =           0.0000000000000000
    PCM Polarization Energy =               0.0000000000000000
    EFP Energy =                            0.0000000000000000
    Total Energy =                       -349.2471107509896910
    Molecular point group: c1
  Basis Set: 6-31G*
  Basis Set:

  -Total Gradient:
     Atom            X                  Y                   Z
    ------   -----------------  -----------------  -----------------
       1       -0.000000318186     0.000002053321    -0.000005152548
       2        0.000002783220     0.000007175565     0.000003041702
       3       -0.000029022704    -0.001251532142     0.001045193044
       4        0.000389744105     0.002050119599    -0.001303518524
       5       -0.000009259133    -0.000003493561     0.000013974016
       6        0.000001296258     0.000009897019    -0.000014116426
       7       -0.001842059142    -0.002320601487    -0.000389000747
       8        0.000001843022    -0.000002157327    -0.000003052661
       9        0.000006918659    -0.000001769041     0.000003514307
      10        0.000007961965     0.000016046501    -0.000009454795
      11        0.001479494102     0.001502064011     0.000640684507
      12       -0.000007167046     0.000001678718     0.000004766425
      13       -0.000006948328    -0.000010701078     0.000009518732
      14       -0.000005111797     0.000002785930     0.000000958969
      15        0.000010203197    -0.000000534328    -0.000006056800
      16        0.000000289001    -0.000003595461     0.000005882682
      17       -0.000002385404     0.000005364444     0.000006867295
      18       -0.000003536860    -0.000002895177    -0.000005776711
      19       -0.000000888490     0.000000168100     0.000000730122
      20        0.000000479550     0.000001038275     0.000000329672
      21        0.000003161264    -0.000000317007     0.000000536535
      22       -0.000000212468    -0.000001210858     0.000000405541
      23       -0.000000379489    -0.000000563688     0.000000061307
      24        0.000003114701     0.000000979673    -0.000000335641

  **** Optimization is complete! (in 7 steps) ****
    Final optimized geometry and variables:
    Molecular point group: c1

    Geometry (in Angstrom), charge = 0, multiplicity = 1:

    H           -3.374319219147     1.404817276954    -1.267267681193
    O           -3.437271674799     0.467021378907    -1.149336513106
    C           -3.184652534037     0.150254111233     0.195957061050
    C           -1.764267733924     0.486391190348     0.634370676611
    H           -3.356490490101    -0.915297828827     0.283413600317
    H           -3.902674394023     0.648920052569     0.845007288204
    C           -0.685424205742    -0.232260807676    -0.179388044990
    H           -1.610591180676     1.564029593039     0.579964832380
    H           -1.670189090339     0.220624260831     1.686287125494
    C            0.708565044196    -0.106607140014     0.441024834717
    H           -0.662608424687     0.177099044040    -1.184873173598
    H           -0.945370240797    -1.284151845087    -0.276766959420
    C            1.794181411520    -0.788528780264    -0.395834340248
    H            0.945403819553     0.946981999322     0.569711499684
    H            0.700167092244    -0.541652087330     1.439548669415
    C            3.192007497395    -0.775731234535     0.233451535276
    H            1.839164121386    -0.319934576688    -1.377697930944
    H            1.502619935775    -1.822668317593    -0.567673097869
    C            3.815236485349     0.614763007119     0.369300261484
    H            3.848686200579    -1.393750917341    -0.374020044762
    H            3.150077245339    -1.249789581026     1.212071185815
    H            3.858735222902     1.118339027155    -0.592812790204
    H            4.829166800237     0.547082397298     0.751665175931
    H            3.253565906415     1.247297577811     1.048681554071

  Mulliken Charges: (a.u.)
   Center  Symbol    Alpha    Beta     Spin     Total
       1     H     0.28350  0.28350  0.00000  0.43299
       2     O     4.36853  4.36853  0.00000 -0.73706
       3     C     2.99586  2.99586  0.00000  0.00827
       4     C     3.17058  3.17058  0.00000 -0.34116
       5     H     0.41625  0.41625  0.00000  0.16749
       6     H     0.42840  0.42840  0.00000  0.14321
       7     C     3.14818  3.14818  0.00000 -0.29635
       8     H     0.42705  0.42705  0.00000  0.14590
       9     H     0.42252  0.42252  0.00000  0.15495
      10     C     3.15437  3.15437  0.00000 -0.30875
      11     H     0.41592  0.41592  0.00000  0.16815
      12     H     0.42190  0.42190  0.00000  0.15619
      13     C     3.15228  3.15228  0.00000 -0.30455
      14     H     0.42300  0.42300  0.00000  0.15399
      15     H     0.42530  0.42530  0.00000  0.14940
      16     C     3.15229  3.15229  0.00000 -0.30457
      17     H     0.42397  0.42397  0.00000  0.15206
      18     H     0.42185  0.42185  0.00000  0.15630
      19     C     3.24105  3.24105  0.00000 -0.48209
      20     H     0.42105  0.42105  0.00000  0.15791
      21     H     0.42372  0.42372  0.00000  0.15256
      22     H     0.42242  0.42242  0.00000  0.15517
      23     H     0.41951  0.41951  0.00000  0.16098
      24     H     0.42049  0.42049  0.00000  0.15902

   Total alpha = 33.00000, Total beta = 33.00000, Total charge = -0.00000
