                              Psi4 1.0.54 Driver

  ==> Input File <==

--------------------------------------------------------------------------
set {
	reference rhf
	basis cc-pvtz
}

set_num_threads( 4 )
memory 2 gb

molecule MOL {
0 1

O	 2.145524	 2.482854	 1.781159
C	 1.731176	 1.900582	 2.729518
C	 0.448623	 1.094812	 2.689218
C	 2.464076	 1.925776	 4.051806
C	 -0.256596	 1.098932	 1.340338
H	 0.690336	 0.079270	 2.994697
H	 -0.205560	 1.481539	 3.467353
C	 -1.541605	 0.275640	 1.347665
H	 0.420462	 0.718458	 0.584067
H	 -0.476099	 2.122030	 1.057102
C	 -2.258482	 0.271340	 0.000669
H	 -1.314164	 -0.748581	 1.634923
H	 -2.214963	 0.661635	 2.109807
C	 -3.544441	 -0.550271	 -0.000253
H	 -1.586273	 -0.114567	 -0.761777
H	 -2.486958	 1.294664	 -0.286965
C	 -4.804551	 0.308747	 0.000556
H	 -3.553737	 -1.201524	 -0.870151
H	 -3.553831	 -1.203282	 0.868313
H	 -4.842050	 0.949078	 -0.874436
H	 -5.698404	 -0.304480	 -0.000254
H	 -4.842277	 0.947103	 0.876982
H	 2.728039	 0.917822	 4.352471
H	 3.357494	 2.524497	 3.963894
H	 1.824645	 2.335679	 4.825854

	symmetry c1
}
set optking {
	frozen_dihedral = ("
		15 11 14 18
	")
}

ee,wfn = optimize('scf', return_wfn=True)
oeprop( wfn, 'DIPOLE', 'QUADRUPOLE', 'MULLIKEN_CHARGES')
f=open( 'psi4out.xyz', 'w' )
f.write( "25  " )
f.write( str(ee) + "\n" )
f.write( MOL.save_string_xyz() )
f.close()
--------------------------------------------------------------------------

    Molecular point group: c1
  Charge       = 0
  Multiplicity = 1
  Basis Set: CC-PVTZ
  Basis Set:
  @DF-RHF Final Energy:  -387.26941698018277
    Total Energy =                       -387.2694169801831094
    Molecular point group: c1
  Basis Set: CC-PVTZ
  Basis Set:
  Basis Set: CC-PVTZ
  Basis Set:
  @DF-RHF Final Energy:  -387.26969134759457
    Total Energy =                       -387.2696913475944029
  Basis Set: CC-PVTZ
  Basis Set:
  Basis Set: CC-PVTZ
  Basis Set:
  @DF-RHF Final Energy:  -387.26977882027262
    Total Energy =                       -387.2697788202729043
  Basis Set: CC-PVTZ
  Basis Set:
  Basis Set: CC-PVTZ
  Basis Set:
  @DF-RHF Final Energy:  -387.26964658855741
    Total Energy =                       -387.2696465885575208
  Basis Set: CC-PVTZ
  Basis Set:
  Basis Set: CC-PVTZ
  Basis Set:
  @DF-RHF Final Energy:  -387.26978087055585
    Total Energy =                       -387.2697808705560192
  Basis Set: CC-PVTZ
  Basis Set:
  Charge       = 0
  Multiplicity = 1
  Basis Set: CC-PVTZ
  Basis Set:

    Orbital Energies (a.u.)
    -----------------------

    Doubly Occupied:

       1A    -20.538929     2A    -11.320561     3A    -11.230284
       4A    -11.226627     5A    -11.215701     6A    -11.214699
       7A    -11.213307     8A    -11.211268     9A    -11.207456
      10A     -1.398975    11A     -1.094548    12A     -1.056335
      13A     -1.015127    14A     -0.969556    15A     -0.892746
      16A     -0.819133    17A     -0.788759    18A     -0.730950
      19A     -0.659368    20A     -0.655342    21A     -0.627295
      22A     -0.622576    23A     -0.606889    24A     -0.588725
      25A     -0.569962    26A     -0.558185    27A     -0.534642
      28A     -0.528898    29A     -0.517063    30A     -0.494909
      31A     -0.485419    32A     -0.479668    33A     -0.463694
      34A     -0.455099    35A     -0.451590    36A     -0.401446

  @DF-RHF Final Energy:  -387.26978131780379

   => Energetics <=

    Nuclear Repulsion Energy =            441.1312781161257135
    One-Electron Energy =               -1399.1106551272357592
    Two-Electron Energy =                 570.7095956933063690
    DFT Exchange-Correlation Energy =       0.0000000000000000
    Empirical Dispersion Energy =           0.0000000000000000
    PCM Polarization Energy =               0.0000000000000000
    EFP Energy =                            0.0000000000000000
    Total Energy =                       -387.2697813178036768
    Molecular point group: c1
  Basis Set: CC-PVTZ
  Basis Set:

  -Total Gradient:
     Atom            X                  Y                   Z
    ------   -----------------  -----------------  -----------------
       1        0.000006367645    -0.000002059404    -0.000016092511
       2       -0.000034897096    -0.000003296062     0.000040475066
       3        0.000026688028     0.000018548313     0.000001037882
       4        0.000004395138    -0.000007817884     0.000002087466
       5        0.000004532985     0.000010846315    -0.000013217021
       6        0.000003542553     0.000005138912    -0.000003012573
       7        0.000006341275     0.000001425137     0.000000606489
       8        0.000006494568    -0.000024821740     0.000011432260
       9       -0.000002127233     0.000000434284     0.000005945107
      10        0.000005805519    -0.000001022094    -0.000001555287
      11        0.001541729715    -0.002657297329     0.002607089337
      12       -0.000007752389    -0.000003267181    -0.000007570095
      13        0.000001003837    -0.000004463356    -0.000013118023
      14       -0.001688579208     0.002908925674    -0.002239835401
      15       -0.001024805689     0.001765494721    -0.001817464007
      16        0.000002236001    -0.000007447159     0.000004917209
      17       -0.000023285339     0.000015135368     0.000006009194
      18        0.001167487540    -0.002003055064     0.001457643413
      19       -0.000005822185     0.000013491359    -0.000004104204
      20        0.000011131600    -0.000008461902     0.000007787032
      21        0.000005924089    -0.000001843513    -0.000000486321
      22        0.000005741153    -0.000011903678    -0.000011087529
      23       -0.000000220518     0.000006980893    -0.000001473913
      24       -0.000016117338    -0.000008260166    -0.000008448268
      25        0.000004185357    -0.000001404444    -0.000007565302

  **** Optimization is complete! (in 6 steps) ****
    Final optimized geometry and variables:
    Molecular point group: c1

    Geometry (in Angstrom), charge = 0, multiplicity = 1:

    O            2.776505781519     1.490089863380     0.243546735691
    C            2.362283646064     0.898972574828     1.186401346555
    C            1.082033778241     0.089959578484     1.137522611099
    C            3.092921998490     0.915272328496     2.510124577508
    C            0.379637723892     0.102094876737    -0.212818535353
    H            1.326139285112    -0.927041614845     1.436039830265
    H            0.425276449321     0.469239292374     1.917185003379
    C           -0.903270775543    -0.723708364257    -0.214443977783
    H            1.058941155221    -0.271979790797    -0.970424344435
    H            0.158863384023     1.126650042260    -0.489664339972
    C           -1.612537699237    -0.728707316558    -1.565915359276
    H           -0.676682471150    -1.748225837837     0.071661892208
    H           -1.582614938129    -0.340832073606     0.544404460058
    C           -2.945088603878    -1.501202917752    -1.566144495490
    H           -0.948697739043    -1.131132453936    -2.324285445481
    H           -1.796851326092     0.299069756698    -1.867462800538
    C           -4.175999783575    -0.601242356969    -1.527463117513
    H           -2.994742584442    -2.153116964311    -2.431453143056
    H           -2.970274141625    -2.167129988039    -0.708059002048
    H           -4.225616793801     0.029223204689    -2.408659991582
    H           -5.089159727828    -1.184067929932    -1.484243654729
    H           -4.157975639249     0.049215493819    -0.658882738182
    H            3.358901623659    -0.094437814926     2.802925376375
    H            3.985017717945     1.516888271366     2.428641279244
    H            2.451122902033     1.317328585141     3.286309754270

  Mulliken Charges: (a.u.)
   Center  Symbol    Alpha    Beta     Spin     Total
       1     O     4.17075  4.17075  0.00000 -0.34151
       2     C     2.86215  2.86215  0.00000  0.27570
       3     C     3.11350  3.11350  0.00000 -0.22700
       4     C     3.15125  3.15125  0.00000 -0.30249
       5     C     3.08391  3.08391  0.00000 -0.16783
       6     H     0.44559  0.44559  0.00000  0.10883
       7     H     0.44565  0.44565  0.00000  0.10871
       8     C     3.09070  3.09070  0.00000 -0.18140
       9     H     0.44593  0.44593  0.00000  0.10814
      10     H     0.44561  0.44561  0.00000  0.10877
      11     C     3.09584  3.09584  0.00000 -0.19168
      12     H     0.45498  0.45498  0.00000  0.09003
      13     H     0.45531  0.45531  0.00000  0.08939
      14     C     3.09120  3.09120  0.00000 -0.18240
      15     H     0.44675  0.44675  0.00000  0.10651
      16     H     0.45446  0.45446  0.00000  0.09109
      17     C     3.14687  3.14687  0.00000 -0.29374
      18     H     0.44789  0.44789  0.00000  0.10422
      19     H     0.45634  0.45634  0.00000  0.08733
      20     H     0.45416  0.45416  0.00000  0.09169
      21     H     0.44935  0.44935  0.00000  0.10131
      22     H     0.45571  0.45571  0.00000  0.08857
      23     H     0.45039  0.45039  0.00000  0.09921
      24     H     0.43535  0.43535  0.00000  0.12930
      25     H     0.45037  0.45037  0.00000  0.09926

   Total alpha = 36.00000, Total beta = 36.00000, Total charge = -0.00000

*** Psi4 exiting successfully. Buy a developer a beer!
