  ==> Input File <==

--------------------------------------------------------------------------
set {
	reference rhf
	basis cc-pvtz
}

set_num_threads( 4 )
memory 2 gb

molecule MOL {
0 1

O	 0.754265	 0.220970	 0.924647
C	 0.029490	 0.077183	 0.000078
C	 -1.232113	 -0.748027	 0.000015
O	 0.239483	 0.635943	 -1.180143
C	 -2.501422	 0.088592	 -0.000052
H	 -1.188777	 -1.400384	 -0.865133
H	 -1.188857	 -1.400312	 0.865225
H	 -2.548170	 0.725504	 -0.873205
H	 -3.371613	 -0.556398	 -0.000040
H	 -2.548215	 0.725571	 0.873047
C	 1.392735	 1.440800	 -1.321065
H	 1.363131	 2.273023	 -0.633487
H	 1.384318	 1.797773	 -2.338083
H	 2.285907	 0.862594	 -1.136224

	symmetry c1
}
set optking {
	frozen_dihedral = ("
		4 2 3 6
	")
}

ee = optimize('scf')
oeprop('DIPOLE', 'QUADRUPOLE', 'MULLIKEN_CHARGES')
f=open( 'psi4out.xyz', 'w' )
f.write( "14  " )
f.write( str(ee) + "\n" )
f.write( MOL.save_string_xyz() )
f.close()
--------------------------------------------------------------------------

    Molecular point group: c1
  Charge       = 0
  Multiplicity = 1
  Basis Set: CC-PVTZ
  Basis Set:
  @DF-RHF Final Energy:  -305.98576892769620
    Total Energy =                       -305.9857689276961992
    Molecular point group: c1
  Basis Set: CC-PVTZ
  Basis Set:
  Basis Set: CC-PVTZ
  Basis Set:
  @DF-RHF Final Energy:  -305.98611462149972
    Total Energy =                       -305.9861146214997234
  Basis Set: CC-PVTZ
  Basis Set:
  Basis Set: CC-PVTZ
  Basis Set:
  @DF-RHF Final Energy:  -305.98528998176255
    Total Energy =                       -305.9852899817627758
  Basis Set: CC-PVTZ
  Basis Set:
  Basis Set: CC-PVTZ
  Basis Set:
  @DF-RHF Final Energy:  -305.98621195370106
    Total Energy =                       -305.9862119537012290
  Basis Set: CC-PVTZ
  Basis Set:
  Charge       = 0
  Multiplicity = 1
  Basis Set: CC-PVTZ
  Basis Set:

    Orbital Energies (a.u.)
    -----------------------

    Doubly Occupied:

       1A    -20.597865     2A    -20.533705     3A    -11.364285
       4A    -11.279233     5A    -11.236093     6A    -11.225102
       7A     -1.472730     8A     -1.365617     9A     -1.068658
      10A     -0.977273    11A     -0.885347    12A     -0.776365
      13A     -0.698968    14A     -0.682935    15A     -0.676658
      16A     -0.619873    17A     -0.593125    18A     -0.570765
      19A     -0.544979    20A     -0.520149    21A     -0.512464
      22A     -0.506116    23A     -0.460107    24A     -0.437696

  @DF-RHF Final Energy:  -305.98621553567068

   => Energetics <=

    Nuclear Repulsion Energy =            248.6572695021525305
    One-Electron Energy =                -910.0747539705153031
    Two-Electron Energy =                 355.4312689326920349
    DFT Exchange-Correlation Energy =       0.0000000000000000
    Empirical Dispersion Energy =           0.0000000000000000
    PCM Polarization Energy =               0.0000000000000000
    EFP Energy =                            0.0000000000000000
    Total Energy =                       -305.9862155356707376
    Molecular point group: c1
  Basis Set: CC-PVTZ
  Basis Set:

  -Total Gradient:
     Atom            X                  Y                   Z
    ------   -----------------  -----------------  -----------------
       1       -0.000032342375    -0.000016515624    -0.000065960520
       2        0.000084030933    -0.000078835087     0.000188489432
       3       -0.000095988892     0.000032108081    -0.000036829258
       4        0.000010583910     0.000029210672    -0.000088372484
       5        0.000090147446    -0.000056564482     0.000012537407
       6        0.000029605934    -0.000021292278    -0.000002425401
       7        0.000012805233     0.000050242853    -0.000018662972
       8       -0.000015436748     0.000009345738    -0.000002858513
       9       -0.000012186462    -0.000000399290     0.000001773209
      10       -0.000041572026     0.000029756082     0.000010715555
      11       -0.000062088241     0.000030917931     0.000012047076
      12        0.000022036326     0.000003988236    -0.000007562090
      13        0.000017710770     0.000004414946    -0.000006878550
      14       -0.000007305807    -0.000016377780     0.000003987113

  **** Optimization is complete! (in 5 steps) ****
    Final optimized geometry and variables:
    Molecular point group: c1

    Geometry (in Angstrom), charge = 0, multiplicity = 1:

    O            0.961946735567    -0.109538893963     1.191107715927
    C            0.233391268456    -0.246357795139     0.267943363483
    C           -1.027597558999    -1.070727483691     0.281926337485
    O            0.434439200252     0.330720620152    -0.905534075963
    C           -2.283587339060    -0.196825664146     0.262591212986
    H           -1.019688156349    -1.721776081994    -0.583638676575
    H           -1.001128954795    -1.679638135851     1.173216076260
    H           -2.325974263021     0.406366150255    -0.634529283409
    H           -3.168641965899    -0.819319225822     0.294262893396
    H           -2.309226909815     0.463987360545     1.120857924935
    C            1.574117128740     1.156491730878    -1.035786406406
    H            1.531822491812     1.977708320510    -0.335782853036
    H            1.558788930083     1.528190502188    -2.047479820000
    H            2.476409185704     0.589895934639    -0.860068784166

  Mulliken Charges: (a.u.)
   Center  Symbol    Alpha    Beta     Spin     Total
       1     O     4.19991  4.19991  0.00000 -0.39983
       2     C     2.79866  2.79866  0.00000  0.40267
       3     C     3.08433  3.08433  0.00000 -0.16866
       4     O     4.15079  4.15079  0.00000 -0.30158
       5     C     3.15116  3.15116  0.00000 -0.30231
       6     H     0.44648  0.44648  0.00000  0.10704
       7     H     0.43712  0.43712  0.00000  0.12576
       8     H     0.44683  0.44683  0.00000  0.10635
       9     H     0.44739  0.44739  0.00000  0.10523
      10     H     0.44838  0.44838  0.00000  0.10324
      11     C     3.03597  3.03597  0.00000 -0.07195
      12     H     0.45453  0.45453  0.00000  0.09094
      13     H     0.44563  0.44563  0.00000  0.10873
      14     H     0.45282  0.45282  0.00000  0.09437

   Total alpha = 24.00000, Total beta = 24.00000, Total charge =  0.00000
