  ==> Input File <==

--------------------------------------------------------------------------
set {
	reference rhf
	basis 6-31G*
}

set_num_threads( 1 )
memory 2 gb

molecule MOL {
0 1

H	 -1.595227	 0.512332	 -2.246222
C	 -1.221144	 -0.377893	 -1.744524
O	 -1.392607	 -0.295399	 -0.366433
H	 -1.779623	 -1.236161	 -2.091828
H	 -0.173163	 -0.509283	 -2.010794
C	 -0.719715	 0.768384	 0.229244
C	 0.719720	 0.768376	 -0.229267
H	 -1.185038	 1.714362	 -0.050570
H	 -0.750528	 0.687237	 1.313896
O	 1.392611	 -0.295398	 0.366430
H	 0.750534	 0.687200	 -1.313918
H	 1.185043	 1.714359	 0.050526
C	 2.706965	 -0.449871	 -0.062409
H	 2.756559	 -0.644779	 -1.131878
H	 3.305899	 0.433456	 0.155466
H	 3.125548	 -1.294566	 0.467107

	symmetry c1
}
set optking {
	frozen_dihedral = ("
		3 6 7 11,
		7 10 13 14
	")
}

ee = energy('scf')
oeprop('DIPOLE', 'QUADRUPOLE', 'MULLIKEN_CHARGES')
f=open( 'psi4out.xyz', 'w' )
f.write( "16  " )
f.write( str(ee) + "\n" )
f.write( MOL.save_string_xyz() )
f.close()
--------------------------------------------------------------------------

    Molecular point group: c1

    Geometry (in Angstrom), charge = 0, multiplicity = 1:

       Center              X                  Y                   Z               Mass
    ------------   -----------------  -----------------  -----------------  -----------------
           H         -1.856297440346     0.499691411594    -1.928735484502     1.007825032070
           C         -1.482214440346    -0.390533588406    -1.427037484502    12.000000000000
           O         -1.653677440346    -0.308039588406    -0.048946484502    15.994914619560
           H         -2.040693440346    -1.248801588406    -1.774341484502     1.007825032070
           H         -0.434233440346    -0.521923588406    -1.693307484502     1.007825032070
           C         -0.980785440346     0.755743411594     0.546730515498    12.000000000000
           C          0.458649559654     0.755735411594     0.088219515498    12.000000000000
           H         -1.446108440346     1.701721411594     0.266916515498     1.007825032070
           H         -1.011598440346     0.674596411594     1.631382515498     1.007825032070
           O          1.131540559654    -0.308038588406     0.683916515498    15.994914619560
           H          0.489463559654     0.674559411594    -0.996431484502     1.007825032070
           H          0.923972559654     1.701718411594     0.368012515498     1.007825032070
           C          2.445894559654    -0.462511588406     0.255077515498    12.000000000000
           H          2.495488559654    -0.657419588406    -0.814391484502     1.007825032070
           H          3.044828559654     0.420815411594     0.472952515498     1.007825032070
           H          2.864477559654    -1.307206588406     0.784593515498     1.007825032070

  Charge       = 0
  Multiplicity = 1
  Basis Set: 6-31G*
  Basis Set:

    Orbital Energies (a.u.)
    -----------------------

    Doubly Occupied:

       1A    -20.559029     2A    -20.553393     3A    -11.269605
       4A    -11.268323     5A    -11.268200     6A    -11.263551
       7A     -1.393611     8A     -1.372448     9A     -1.027005
      10A     -0.950528    11A     -0.904370    12A     -0.811710
      13A     -0.703996    14A     -0.682472    15A     -0.657471
      16A     -0.636206    17A     -0.631537    18A     -0.597588
      19A     -0.549387    20A     -0.533975    21A     -0.527029
      22A     -0.492501    23A     -0.451729    24A     -0.422217
      25A     -0.408127

  @DF-RHF Final Energy:  -306.96279495656250

   => Energetics <=

    Nuclear Repulsion Energy =            266.6507460541508294
    One-Electron Energy =                -947.3549700144000099
    Two-Electron Energy =                 373.7414290036874718
    DFT Exchange-Correlation Energy =       0.0000000000000000
    Empirical Dispersion Energy =           0.0000000000000000
    PCM Polarization Energy =               0.0000000000000000
    EFP Energy =                            0.0000000000000000
    Total Energy =                       -306.9627949565617655

  Mulliken Charges: (a.u.)
   Center  Symbol    Alpha    Beta     Spin     Total
       1     H     0.43185  0.43185  0.00000  0.13629
       2     C     3.08854  3.08854  0.00000 -0.17708
       3     O     4.29758  4.29758  0.00000 -0.59516
       4     H     0.40915  0.40915  0.00000  0.18170
       5     H     0.42355  0.42355  0.00000  0.15290
       6     C     2.99369  2.99369  0.00000  0.01262
       7     C     3.01318  3.01318  0.00000 -0.02636
       8     H     0.43049  0.43049  0.00000  0.13902
       9     H     0.40474  0.40474  0.00000  0.19053
      10     O     4.29958  4.29958  0.00000 -0.59915
      11     H     0.42783  0.42783  0.00000  0.14434
      12     H     0.42947  0.42947  0.00000  0.14106
      13     C     3.07951  3.07951  0.00000 -0.15902
      14     H     0.43081  0.43081  0.00000  0.13837
      15     H     0.43010  0.43010  0.00000  0.13979
      16     H     0.40992  0.40992  0.00000  0.18015

   Total alpha = 25.00000, Total beta = 25.00000, Total charge =  0.00000
