                              Psi4 1.0.54 Driver

  ==> Input File <==

--------------------------------------------------------------------------
set {
	reference rhf
	basis cc-pvtz
}

set_num_threads( 4 )
memory 2 gb

molecule MOL {
0 1

H	 1.583656	 1.086309	 1.091132
C	 0.703793	 1.196416	 0.474344
O	 0.000000	 0.000000	 0.518769
H	 0.109004	 2.023143	 0.857234
H	 1.015122	 1.438246	 -0.539780
C	 -1.165153	 0.000000	 -0.236961
H	 -1.229451	 0.882440	 -0.870223
H	 -2.002557	 0.000000	 0.445289
H	 -1.229451	 -0.882440	 -0.870223

	symmetry c1
}
set optking {
	frozen_dihedral = ("
		2 3 6 7
	")
}

ee,wfn = optimize('scf', return_wfn=True)
oeprop( wfn, 'DIPOLE', 'QUADRUPOLE', 'MULLIKEN_CHARGES')
f=open( 'psi4out.xyz', 'w' )
f.write( "9  " )
f.write( str(ee) + "\n" )
f.write( MOL.save_string_xyz() )
f.close()
--------------------------------------------------------------------------

    Molecular point group: c1
  Charge       = 0
  Multiplicity = 1
  Basis Set: CC-PVTZ
  Basis Set:
  @DF-RHF Final Energy:  -154.12307758299357
    Total Energy =                       -154.1230775829936874
    Molecular point group: c1
  Basis Set: CC-PVTZ
  Basis Set:
  Basis Set: CC-PVTZ
  Basis Set:
  @DF-RHF Final Energy:  -154.12357048972638
    Total Energy =                       -154.1235704897263474
  Basis Set: CC-PVTZ
  Basis Set:
  Basis Set: CC-PVTZ
  Basis Set:
  @DF-RHF Final Energy:  -154.12369167405200
    Total Energy =                       -154.1236916740519689
  Basis Set: CC-PVTZ
  Basis Set:
  Charge       = 0
  Multiplicity = 1
  Basis Set: CC-PVTZ
  Basis Set:

    Orbital Energies (a.u.)
    -----------------------

    Doubly Occupied:

       1A    -20.546784     2A    -11.263591     3A    -11.262675
       4A     -1.377933     5A     -0.975823     6A     -0.872625
       7A     -0.658949     8A     -0.654989     9A     -0.644874
      10A     -0.558535    11A     -0.527974    12A     -0.475407
      13A     -0.415004

  @DF-RHF Final Energy:  -154.12369265669602

   => Energetics <=

    Nuclear Repulsion Energy =             84.5912998849416624
    One-Electron Energy =                -376.9596560024048699
    Two-Electron Energy =                 138.2446634607671854
    DFT Exchange-Correlation Energy =       0.0000000000000000
    Empirical Dispersion Energy =           0.0000000000000000
    PCM Polarization Energy =               0.0000000000000000
    EFP Energy =                            0.0000000000000000
    Total Energy =                       -154.1236926566960506
    Molecular point group: c1
  Basis Set: CC-PVTZ
  Basis Set:

  -Total Gradient:
     Atom            X                  Y                   Z
    ------   -----------------  -----------------  -----------------
       1        0.000007492617     0.000009770261     0.000013082882
       2        0.000707473247    -0.000360646105    -0.000911658245
       3       -0.001181304349     0.000818051400     0.001512848388
       4       -0.000024519336    -0.000061118499    -0.000012809736
       5       -0.000016450958    -0.000000652650    -0.000000336211
       6        0.001162478264    -0.001149404261    -0.001607303283
       7       -0.000654764120     0.000747106828     0.001028108028
       8       -0.000023735602    -0.000009248122    -0.000014792716
       9        0.000023330240     0.000006141147    -0.000007139106

  **** Optimization is complete! (in 4 steps) ****
    Final optimized geometry and variables:
    Molecular point group: c1

    Geometry (in Angstrom), charge = 0, multiplicity = 1:

    H            1.744997833343     0.625541426405     0.891541469377
    C            0.889679757627     0.767472688646     0.246627403778
    O            0.137941088092    -0.400747519211     0.280390526025
    H            0.322381825936     1.622936687740     0.606820077476
    H            1.243560657893     0.986779441780    -0.757977196372
    C           -1.015851220740    -0.402042665988    -0.502904847386
    H           -1.060031394851     0.459841932466    -1.161172860063
    H           -1.898638591660    -0.385093905507     0.128372158379
    H           -1.039193504005    -1.300964313361    -1.106133154661

  Mulliken Charges: (a.u.)
   Center  Symbol    Alpha    Beta     Spin     Total
       1     H     0.44976  0.44976  0.00000  0.10047
       2     C     3.02082  3.02082  0.00000 -0.04163
       3     O     4.17266  4.17266  0.00000 -0.34531
       4     H     0.47331  0.47331  0.00000  0.05338
       5     H     0.47280  0.47280  0.00000  0.05440
       6     C     3.01645  3.01645  0.00000 -0.03290
       7     H     0.47482  0.47482  0.00000  0.05037
       8     H     0.46241  0.46241  0.00000  0.07519
       9     H     0.45698  0.45698  0.00000  0.08604

   Total alpha = 13.00000, Total beta = 13.00000, Total charge =  0.00000

*** Psi4 exiting successfully. Buy a developer a beer!
