  ==> Input File <==

--------------------------------------------------------------------------
set {
	reference rhf
	basis 6-31G*
}

set_num_threads( 4 )
memory 2 gb

molecule MOL {
0 1

O	 1.355117	 -2.747615	 0.408126
C	 0.429579	 -2.027468	 0.218014
C	 -1.012008	 -2.456249	 0.194749
O	 0.550821	 -0.724572	 0.000672
H	 -1.567283	 -1.914564	 0.951670
H	 -1.076612	 -3.518545	 0.377084
H	 -1.449293	 -2.216935	 -0.767588
C	 1.863949	 -0.193559	 -0.000319
H	 2.028859	 0.409284	 -0.881648
H	 2.526261	 -1.045082	 -0.000003
H	 2.029520	 0.410555	 0.880008

	symmetry c1
}
set optking {
	frozen_dihedral = ("
		2 4 8 9
	")
}

ee = optimize('scf')
oeprop('DIPOLE', 'QUADRUPOLE', 'MULLIKEN_CHARGES')
f=open( 'psi4out.xyz', 'w' )
f.write( "11  " )
f.write( str(ee) + "\n" )
f.write( MOL.save_string_xyz() )
f.close()
--------------------------------------------------------------------------

    Molecular point group: c1
  Charge       = 0
  Multiplicity = 1
  Basis Set: 6-31G*
  Basis Set:
  @DF-RHF Final Energy:  -266.83235343031487
    Total Energy =                       -266.8323534303148108
    Molecular point group: c1
  Basis Set: 6-31G*
  Basis Set:
  Basis Set: 6-31G*
  Basis Set:
  @DF-RHF Final Energy:  -266.83339997654844
    Total Energy =                       -266.8333999765483213
  Basis Set: 6-31G*
  Basis Set:
  Basis Set: 6-31G*
  Basis Set:
  @DF-RHF Final Energy:  -266.83436822370140
    Total Energy =                       -266.8343682237012899
  Basis Set: 6-31G*
  Basis Set:
  Basis Set: 6-31G*
  Basis Set:
  @DF-RHF Final Energy:  -266.83380000935949
    Total Energy =                       -266.8338000093593791
  Basis Set: 6-31G*
  Basis Set:
  Basis Set: 6-31G*
  Basis Set:
  @DF-RHF Final Energy:  -266.83440162649885
    Total Energy =                       -266.8344016264989591
  Basis Set: 6-31G*
  Basis Set:
  Charge       = 0
  Multiplicity = 1
  Basis Set: 6-31G*
  Basis Set:

    Orbital Energies (a.u.)
    -----------------------

    Doubly Occupied:

       1A    -20.604831     2A    -20.545732     3A    -11.377824
       4A    -11.280636     5A    -11.234013     6A     -1.468446
       7A     -1.364995     8A     -1.035965     9A     -0.953403
      10A     -0.777196    11A     -0.696874    12A     -0.678858
      13A     -0.676957    14A     -0.597513    15A     -0.590950
      16A     -0.560408    17A     -0.528873    18A     -0.518720
      19A     -0.454171    20A     -0.442543

  @DF-RHF Final Energy:  -266.83440256990320

   => Energetics <=

    Nuclear Repulsion Energy =            182.8547930167646030
    One-Electron Energy =                -726.6005763878193875
    Two-Electron Energy =                 276.9113808011514948
    DFT Exchange-Correlation Energy =       0.0000000000000000
    Empirical Dispersion Energy =           0.0000000000000000
    PCM Polarization Energy =               0.0000000000000000
    EFP Energy =                            0.0000000000000000
    Total Energy =                       -266.8344025699033182
    Molecular point group: c1
  Basis Set: 6-31G*
  Basis Set:

  -Total Gradient:
     Atom            X                  Y                   Z
    ------   -----------------  -----------------  -----------------
       1        0.000004410639     0.000058512459    -0.000012912104
       2        0.000062665889    -0.000100666051    -0.000590733173
       3       -0.000012467065     0.000005850792     0.000006299115
       4        0.000023568171     0.000066790524     0.000789341412
       5        0.000004432297    -0.000002109087    -0.000004478044
       6       -0.000002344408    -0.000002345196    -0.000000536134
       7        0.000001425759    -0.000001144814    -0.000002876951
       8       -0.000319500830     0.000540095795     0.000157488288
       9        0.000212401614    -0.000547399575    -0.000335094640
      10        0.000038957376    -0.000013923525    -0.000000121655
      11       -0.000013549445    -0.000003661320    -0.000006376113

  **** Optimization is complete! (in 6 steps) ****
    Final optimized geometry and variables:
    Molecular point group: c1

    Geometry (in Angstrom), charge = 0, multiplicity = 1:

    O            0.676719698884    -1.172722950496     0.245979661131
    C           -0.223242695082    -0.420838579424     0.057919367917
    C           -1.676131061347    -0.810154095004     0.023383930657
    O           -0.078010414401     0.882439531188    -0.150096886903
    H           -2.219773659952    -0.260684976156     0.783104877948
    H           -1.770544470428    -1.871931914076     0.194942045081
    H           -2.101873605951    -0.549074156740    -0.938493321936
    C            1.224941573234     1.441677758969    -0.168105406514
    H            1.306580986845     2.038939152617    -1.064698374314
    H            1.974373731751     0.668233447728    -0.165285586822
    H            1.339634664437     2.072935756700     0.702238981259

  Mulliken Charges: (a.u.)
   Center  Symbol    Alpha    Beta     Spin     Total
       1     O     4.28168  4.28168  0.00000 -0.56335
       2     C     2.62208  2.62208  0.00000  0.75583
       3     C     3.28212  3.28212  0.00000 -0.56423
       4     O     4.30153  4.30153  0.00000 -0.60305
       5     H     0.40003  0.40003  0.00000  0.19995
       6     H     0.39682  0.39682  0.00000  0.20636
       7     H     0.40015  0.40015  0.00000  0.19971
       8     C     3.09840  3.09840  0.00000 -0.19680
       9     H     0.41122  0.41122  0.00000  0.17756
      10     H     0.39358  0.39358  0.00000  0.21284
      11     H     0.41240  0.41240  0.00000  0.17519

   Total alpha = 20.00000, Total beta = 20.00000, Total charge =  0.00000
