  ==> Input File <==

--------------------------------------------------------------------------
set {
	reference rhf
	basis cc-pvtz
}

set_num_threads( 4 )
memory 2 gb

molecule MOL {
0 1

H	 -2.698799	 -0.000846	 0.036018
C	 -1.694291	 -0.000483	 0.434279
O	 -0.828718	 -0.000608	 -0.655022
H	 -1.576855	 0.881100	 1.056504
H	 -1.576401	 -0.881658	 1.057001
C	 0.557892	 0.000078	 -0.420099
C	 0.920438	 0.575732	 0.944252
C	 1.193186	 -1.364898	 -0.659873
H	 0.936479	 0.677541	 -1.175304
H	 0.423180	 1.525748	 1.096771
H	 1.990439	 0.738623	 1.001795
H	 0.647588	 -0.089246	 1.755387
H	 0.885150	 -1.760670	 -1.619833
H	 2.273118	 -1.272596	 -0.660537
H	 0.927485	 -2.081380	 0.108630

	symmetry c1
}
set optking {
	frozen_dihedral = ("
		9 6 3 2
	")
}

ee = optimize('scf')
oeprop('DIPOLE', 'QUADRUPOLE', 'MULLIKEN_CHARGES')
f=open( 'psi4out.xyz', 'w' )
f.write( "15  " )
f.write( str(ee) + "\n" )
f.write( MOL.save_string_xyz() )
f.close()
--------------------------------------------------------------------------

    Molecular point group: c1
  Charge       = 0
  Multiplicity = 1
  Basis Set: CC-PVTZ
  Basis Set:
  @DF-RHF Final Energy:  -232.22121445073475
    Total Energy =                       -232.2212144507346920
    Molecular point group: c1
  Basis Set: CC-PVTZ
  Basis Set:
  Basis Set: CC-PVTZ
  Basis Set:
  @DF-RHF Final Energy:  -232.22182111830088
    Total Energy =                       -232.2218211183007952
  Basis Set: CC-PVTZ
  Basis Set:
  Basis Set: CC-PVTZ
  Basis Set:
  @DF-RHF Final Energy:  -232.22306059372107
    Total Energy =                       -232.2230605937213568
  Basis Set: CC-PVTZ
  Basis Set:
  Basis Set: CC-PVTZ
  Basis Set:
  @DF-RHF Final Energy:  -232.22312456695155
    Total Energy =                       -232.2231245669514692
  Basis Set: CC-PVTZ
  Basis Set:
  Basis Set: CC-PVTZ
  Basis Set:
  @DF-RHF Final Energy:  -232.22312779873855
    Total Energy =                       -232.2231277987386875
  Basis Set: CC-PVTZ
  Basis Set:
  Basis Set: CC-PVTZ
  Basis Set:
  @DF-RHF Final Energy:  -232.22313123356193
    Total Energy =                       -232.2231312335616167
  Basis Set: CC-PVTZ
  Basis Set:
  Charge       = 0
  Multiplicity = 1
  Basis Set: CC-PVTZ
  Basis Set:

    Orbital Energies (a.u.)
    -----------------------

    Doubly Occupied:

       1A    -20.539456     2A    -11.272970     3A    -11.259571
       4A    -11.212688     5A    -11.204919     6A     -1.370515
       7A     -1.052896     8A     -0.947292     9A     -0.922108
      10A     -0.781522    11A     -0.676267    12A     -0.644057
      13A     -0.633429    14A     -0.580093    15A     -0.555524
      16A     -0.547541    17A     -0.535667    18A     -0.506686
      19A     -0.493572    20A     -0.446589    21A     -0.403447

  @DF-RHF Final Energy:  -232.22313135743843

   => Energetics <=

    Nuclear Repulsion Energy =            198.5683558193471185
    One-Electron Energy =                -708.4093617466643309
    Two-Electron Energy =                 277.6178745698788362
    DFT Exchange-Correlation Energy =       0.0000000000000000
    Empirical Dispersion Energy =           0.0000000000000000
    PCM Polarization Energy =               0.0000000000000000
    EFP Energy =                            0.0000000000000000
    Total Energy =                       -232.2231313574383762
    Molecular point group: c1
  Basis Set: CC-PVTZ
  Basis Set:

  -Total Gradient:
     Atom            X                  Y                   Z
    ------   -----------------  -----------------  -----------------
       1        0.000000949568     0.000001653793     0.000000025802
       2       -0.000102885835     0.003100213076     0.000025488547
       3        0.000110663393    -0.004156017125     0.000410987736
       4        0.000009756369     0.000005072102    -0.000005342397
       5       -0.000005188597     0.000003538695     0.000002068545
       6        0.000444725806    -0.001657295301    -0.002715064405
       7        0.000008648175     0.000003451634     0.000008834092
       8        0.000003047060    -0.000007661618     0.000000026262
       9       -0.000460590610     0.002706032206     0.002275079929
      10       -0.000000487533     0.000000787047     0.000000786841
      11       -0.000001227638     0.000000445436     0.000001655138
      12       -0.000001750900     0.000001009181    -0.000000741032
      13       -0.000000122509    -0.000005807911    -0.000002372105
      14       -0.000004813802     0.000004274180    -0.000001563445
      15       -0.000000722948     0.000000304607     0.000000130492

  **** Optimization is complete! (in 7 steps) ****
    Final optimized geometry and variables:
    Molecular point group: c1

    Geometry (in Angstrom), charge = 0, multiplicity = 1:

    H           -2.717697456921     0.019418513321     0.048878546390
    C           -1.729594072985     0.111006286851     0.477001532699
    O           -0.836105250458     0.146334913864    -0.587495101895
    H           -1.700633114827     1.015616092834     1.074618450492
    H           -1.565806522424    -0.741340428912     1.131407848755
    C            0.555634837660     0.189893691943    -0.357222251645
    C            0.964562954548     0.755105342005     0.999128130784
    C            1.148236932049    -1.189554126803    -0.602015316314
    H            0.935137269434     0.881369275438    -1.101247572266
    H            0.554516217832     1.745022670805     1.155349121171
    H            2.044308652490     0.837050291033     1.030777513326
    H            0.658476664587     0.120887051993     1.822374539033
    H            0.862895313177    -1.548094725312    -1.582474717451
    H            2.230923894308    -1.162529334690    -0.545827498223
    H            0.788861357753    -1.899697928159     0.135571741170

  Mulliken Charges: (a.u.)
   Center  Symbol    Alpha    Beta     Spin     Total
       1     H     0.44209  0.44209  0.00000  0.11582
       2     C     3.03786  3.03786  0.00000 -0.07572
       3     O     4.18863  4.18863  0.00000 -0.37725
       4     H     0.46799  0.46799  0.00000  0.06401
       5     H     0.47135  0.47135  0.00000  0.05731
       6     C     2.92889  2.92889  0.00000  0.14223
       7     C     3.17102  3.17102  0.00000 -0.34204
       8     C     3.14147  3.14147  0.00000 -0.28294
       9     H     0.45037  0.45037  0.00000  0.09926
      10     H     0.44455  0.44455  0.00000  0.11089
      11     H     0.44439  0.44439  0.00000  0.11122
      12     H     0.45099  0.45099  0.00000  0.09802
      13     H     0.44597  0.44597  0.00000  0.10807
      14     H     0.45700  0.45700  0.00000  0.08599
      15     H     0.45743  0.45743  0.00000  0.08514

   Total alpha = 21.00000, Total beta = 21.00000, Total charge = -0.00000
