                              Psi4 1.0.54 Driver

  ==> Input File <==

--------------------------------------------------------------------------
set {
	reference rhf
	basis cc-pvtz
}

set_num_threads( 4 )
memory 2 gb

molecule MOL {
0 1

O	 -2.071633	 -1.227563	 -0.223463
C	 -1.652164	 -0.152425	 0.058082
C	 -0.327811	 0.006324	 0.778296
C	 -2.402515	 1.108629	 -0.298924
C	 0.843231	 -0.001575	 -0.211665
H	 -0.319484	 0.928173	 1.350354
H	 -0.227804	 -0.823091	 1.466705
C	 2.197279	 -0.136719	 0.478639
H	 0.832491	 0.911486	 -0.801494
H	 0.704088	 -0.821902	 -0.907415
C	 3.364094	 -0.157698	 -0.502821
H	 2.328543	 0.683909	 1.178541
H	 2.206281	 -1.047534	 1.070141
H	 3.402659	 0.756590	 -1.085594
H	 3.276800	 -0.987306	 -1.196002
H	 4.309850	 -0.258486	 0.016591
H	 -3.240910	 0.874416	 -0.936711
H	 -1.747554	 1.818823	 -0.790984
H	 -2.760419	 1.579708	 0.610998

	symmetry c1
}
set optking {
	frozen_dihedral = ("
		9 5 3 2
	")
}

ee,wfn = optimize('scf', return_wfn=True)
oeprop( wfn, 'DIPOLE', 'QUADRUPOLE', 'MULLIKEN_CHARGES')
f=open( 'psi4out.xyz', 'w' )
f.write( "19  " )
f.write( str(ee) + "\n" )
f.write( MOL.save_string_xyz() )
f.close()
--------------------------------------------------------------------------

    Molecular point group: c1
  Charge       = 0
  Multiplicity = 1
  Basis Set: CC-PVTZ
  Basis Set:
  @DF-RHF Final Energy:  -309.17689136176159
    Total Energy =                       -309.1768913617617045
    Molecular point group: c1
  Basis Set: CC-PVTZ
  Basis Set:
  Basis Set: CC-PVTZ
  Basis Set:
  @DF-RHF Final Energy:  -309.17694003128190
    Total Energy =                       -309.1769400312818448
  Basis Set: CC-PVTZ
  Basis Set:
  Basis Set: CC-PVTZ
  Basis Set:
  @DF-RHF Final Energy:  -309.17689121178336
    Total Energy =                       -309.1768912117830723
  Basis Set: CC-PVTZ
  Basis Set:
  Basis Set: CC-PVTZ
  Basis Set:
  @DF-RHF Final Energy:  -309.17696545932961
    Total Energy =                       -309.1769654593298355
  Basis Set: CC-PVTZ
  Basis Set:
  Basis Set: CC-PVTZ
  Basis Set:
  @DF-RHF Final Energy:  -309.17696671093933
    Total Energy =                       -309.1769667109390980
  Basis Set: CC-PVTZ
  Basis Set:
  Charge       = 0
  Multiplicity = 1
  Basis Set: CC-PVTZ
  Basis Set:

    Orbital Energies (a.u.)
    -----------------------

    Doubly Occupied:

       1A    -20.536920     2A    -11.319484     3A    -11.228858
       4A    -11.227774     5A    -11.226931     6A    -11.222678
       7A    -11.212951     8A     -1.397210     9A     -1.092632
      10A     -1.030263    11A     -0.984530    12A     -0.890949
      13A     -0.807080    14A     -0.734505    15A     -0.666226
      16A     -0.646335    17A     -0.625942    18A     -0.615010
      19A     -0.582461    20A     -0.575021    21A     -0.554498
      22A     -0.536115    23A     -0.516425    24A     -0.500315
      25A     -0.481785    26A     -0.476389    27A     -0.470779
      28A     -0.399252

  @DF-RHF Final Energy:  -309.17696716885433

   => Energetics <=

    Nuclear Repulsion Energy =            301.8172092314693487
    One-Electron Energy =               -1016.8697193596124180
    Two-Electron Energy =                 405.8755429592886230
    DFT Exchange-Correlation Energy =       0.0000000000000000
    Empirical Dispersion Energy =           0.0000000000000000
    PCM Polarization Energy =               0.0000000000000000
    EFP Energy =                            0.0000000000000000
    Total Energy =                       -309.1769671688543895
    Molecular point group: c1
  Basis Set: CC-PVTZ
  Basis Set:

  -Total Gradient:
     Atom            X                  Y                   Z
    ------   -----------------  -----------------  -----------------
       1        0.000090418157     0.000097747762     0.000033666258
       2       -0.000007175956    -0.001507708785     0.000097220638
       3        0.000172328845     0.002223484650     0.000144999643
       4       -0.000010054943    -0.000021639229    -0.000013317539
       5       -0.001528564807    -0.001662484622    -0.001796320417
       6        0.000027907765    -0.000031336474    -0.000039597414
       7       -0.000014465605    -0.000027712199     0.000020626042
       8        0.000046553940     0.000017591531     0.000042319194
       9        0.001212556660     0.000911164284     0.001419543488
      10       -0.000000712391     0.000034791505     0.000072875244
      11       -0.000010839671    -0.000013378368    -0.000007437558
      12       -0.000003513241    -0.000008675297    -0.000004677585
      13        0.000006334841     0.000009190943     0.000001851651
      14       -0.000002328337    -0.000011012291     0.000006061539
      15        0.000005748709     0.000012753726     0.000001502688
      16       -0.000001661513    -0.000005780316    -0.000001073619
      17        0.000015755998     0.000007958098     0.000018391015
      18       -0.000006133467    -0.000014915553     0.000015227967
      19        0.000007845011    -0.000010039366    -0.000011861235

  **** Optimization is complete! (in 6 steps) ****
    Final optimized geometry and variables:
    Molecular point group: c1

    Geometry (in Angstrom), charge = 0, multiplicity = 1:

    O           -2.096962829658    -1.143007684659    -0.190142590604
    C           -1.655708497247    -0.070277084936     0.065651855286
    C           -0.323085768723     0.075781494322     0.773782149054
    C           -2.384081664669     1.196826689047    -0.313961229948
    C            0.843945291470     0.057172904476    -0.222558836892
    H           -0.297360197977     0.990855393178     1.355376645170
    H           -0.231324274354    -0.762616879246     1.452551016739
    C            2.199157000965    -0.064532072149     0.470463629411
    H            0.837428514273     0.970587628032    -0.811157119109
    H            0.712051118593    -0.771212902731    -0.909575464036
    C            3.368456318603    -0.055939280896    -0.508107296049
    H            2.315457665131     0.750337916243     1.179851510340
    H            2.220698860226    -0.981562047231     1.051457544523
    H            3.396251023743     0.866589730536    -1.078357981672
    H            3.294233586468    -0.877245050020    -1.212683042152
    H            4.314215438347    -0.151096000526     0.012354830390
    H           -3.236635443499     0.964795710465    -0.933464018461
    H           -1.720314780794     1.877915852884    -0.834689553548
    H           -2.717693377816     1.700745437127     0.587508857742

  Mulliken Charges: (a.u.)
   Center  Symbol    Alpha    Beta     Spin     Total
       1     O     4.17772  4.17772  0.00000 -0.35545
       2     C     2.85787  2.85787  0.00000  0.28425
       3     C     3.09821  3.09821  0.00000 -0.19643
       4     C     3.15501  3.15501  0.00000 -0.31002
       5     C     3.09754  3.09754  0.00000 -0.19507
       6     H     0.44845  0.44845  0.00000  0.10311
       7     H     0.43985  0.43985  0.00000  0.12029
       8     C     3.08476  3.08476  0.00000 -0.16952
       9     H     0.45360  0.45360  0.00000  0.09281
      10     H     0.44151  0.44151  0.00000  0.11698
      11     C     3.14955  3.14955  0.00000 -0.29911
      12     H     0.45429  0.45429  0.00000  0.09143
      13     H     0.45074  0.45074  0.00000  0.09853
      14     H     0.45535  0.45535  0.00000  0.08929
      15     H     0.45282  0.45282  0.00000  0.09436
      16     H     0.44726  0.44726  0.00000  0.10548
      17     H     0.43601  0.43601  0.00000  0.12798
      18     H     0.45093  0.45093  0.00000  0.09814
      19     H     0.44852  0.44852  0.00000  0.10295

   Total alpha = 28.00000, Total beta = 28.00000, Total charge = -0.00000

*** Psi4 exiting successfully. Buy a developer a beer!
