  ==> Input File <==

--------------------------------------------------------------------------
set {
	reference rhf
	basis cc-pvtz
}

set_num_threads( 4 )
memory 2 gb

molecule MOL {
0 1

H	 1.320139	 0.450313	 0.990371
C	 0.848385	 0.440008	 0.000011
C	 -0.623497	 0.751021	 0.000090
O	 1.491360	 0.197350	 -0.961729
C	 -1.523725	 -0.474323	 -0.000013
H	 -0.813143	 1.382932	 -0.864897
H	 -0.813071	 1.382716	 0.865253
H	 -1.342980	 -1.087348	 -0.873016
H	 -2.565269	 -0.177464	 0.000070
H	 -1.342898	 -1.087564	 0.872820

	symmetry c1
}
set optking {
	frozen_dihedral = ("
		4 2 3 6
	")
}

ee = optimize('scf')
oeprop('DIPOLE', 'QUADRUPOLE', 'MULLIKEN_CHARGES')
f=open( 'psi4out.xyz', 'w' )
f.write( "10  " )
f.write( str(ee) + "\n" )
f.write( MOL.save_string_xyz() )
f.close()
--------------------------------------------------------------------------

    Molecular point group: c1
  Charge       = 0
  Multiplicity = 1
  Basis Set: CC-PVTZ
  Basis Set:
  @DF-RHF Final Energy:  -192.02097015234210
    Total Energy =                       -192.0209701523421586
    Molecular point group: c1
  Basis Set: CC-PVTZ
  Basis Set:
  Basis Set: CC-PVTZ
  Basis Set:
  @DF-RHF Final Energy:  -192.02129922870546
    Total Energy =                       -192.0212992287053453
  Basis Set: CC-PVTZ
  Basis Set:
  Basis Set: CC-PVTZ
  Basis Set:
  @DF-RHF Final Energy:  -192.02090761802887
    Total Energy =                       -192.0209076180287866
  Basis Set: CC-PVTZ
  Basis Set:
  Basis Set: CC-PVTZ
  Basis Set:
  @DF-RHF Final Energy:  -192.02190132723786
    Total Energy =                       -192.0219013272378277
  Basis Set: CC-PVTZ
  Basis Set:
  Basis Set: CC-PVTZ
  Basis Set:
  @DF-RHF Final Energy:  -192.02190751042011
    Total Energy =                       -192.0219075104201920
  Basis Set: CC-PVTZ
  Basis Set:
  Charge       = 0
  Multiplicity = 1
  Basis Set: CC-PVTZ
  Basis Set:

    Orbital Energies (a.u.)
    -----------------------

    Doubly Occupied:

       1A    -20.553446     2A    -11.322960     3A    -11.237494
       4A    -11.230033     5A     -1.408672     6A     -1.064356
       7A     -0.905473     8A     -0.788535     9A     -0.684624
      10A     -0.643087    11A     -0.606078    12A     -0.577744
      13A     -0.541742    14A     -0.510129    15A     -0.499099
      16A     -0.414323

  @DF-RHF Final Energy:  -192.02190785867003

   => Energetics <=

    Nuclear Repulsion Energy =            118.4677180209356351
    One-Electron Energy =                -495.0036612248476899
    Two-Electron Energy =                 184.5140353452420925
    DFT Exchange-Correlation Energy =       0.0000000000000000
    Empirical Dispersion Energy =           0.0000000000000000
    PCM Polarization Energy =               0.0000000000000000
    EFP Energy =                            0.0000000000000000
    Total Energy =                       -192.0219078586699482
    Molecular point group: c1
  Basis Set: CC-PVTZ
  Basis Set:

  -Total Gradient:
     Atom            X                  Y                   Z
    ------   -----------------  -----------------  -----------------
       1        0.000004979873    -0.000005488285    -0.000017296638
       2        0.000544660888     0.002233421577    -0.000137668809
       3       -0.000517862168    -0.001987231913    -0.000765855212
       4       -0.000323251256    -0.001376428587     0.000207883990
       5        0.000014629629     0.000012049719     0.000009802118
       6        0.000286929679     0.001122701185     0.000717526315
       7       -0.000011212286    -0.000004676347    -0.000008435047
       8        0.000001566261    -0.000002015962    -0.000006346799
       9        0.000001959716     0.000011040276    -0.000001145439
      10       -0.000002400335    -0.000003371662     0.000001535521

  **** Optimization is complete! (in 6 steps) ****
    Final optimized geometry and variables:
    Molecular point group: c1

    Geometry (in Angstrom), charge = 0, multiplicity = 1:

    H            1.291976671407     0.214517713999     1.235580690410
    C            0.800315833090     0.224323217550     0.255001161987
    C           -0.663853565551     0.586646422002     0.247673525371
    O            1.407317312197    -0.078557350717    -0.713406568318
    C           -1.532629170169    -0.674486181241     0.242571297390
    H           -0.859238679425     1.185890880569    -0.632541791729
    H           -0.887934101584     1.188300793315     1.121754454914
    H           -1.334173152808    -1.268340268665    -0.639835894790
    H           -2.581936052768    -0.409150175038     0.249063754965
    H           -1.339921570935    -1.289541936914     1.114742464230

  Mulliken Charges: (a.u.)
   Center  Symbol    Alpha    Beta     Spin     Total
       1     H     0.46074  0.46074  0.00000  0.07851
       2     C     2.90429  2.90429  0.00000  0.19143
       3     C     3.08198  3.08198  0.00000 -0.16396
       4     O     4.16770  4.16770  0.00000 -0.33540
       5     C     3.14557  3.14557  0.00000 -0.29113
       6     H     0.44309  0.44309  0.00000  0.11383
       7     H     0.45222  0.45222  0.00000  0.09555
       8     H     0.44347  0.44347  0.00000  0.11306
       9     H     0.44686  0.44686  0.00000  0.10627
      10     H     0.45408  0.45408  0.00000  0.09184

   Total alpha = 16.00000, Total beta = 16.00000, Total charge = -0.00000
