  ==> Input File <==

--------------------------------------------------------------------------
set {
	reference rhf
	basis 6-31G*
}

set_num_threads( 1 )
memory 2 gb

molecule MOL {
0 1

O	 0.749854	 1.307668	 -0.000040
C	 0.576249	 0.131685	 -0.000108
C	 -0.766779	 -0.556801	 -0.000461
O	 1.568443	 -0.749345	 -0.000005
C	 -1.945214	 0.412366	 0.000161
H	 -0.796911	 -1.211249	 -0.867467
H	 -0.796854	 -1.212390	 0.865687
C	 -1.771007	 1.526580	 1.031057
H	 -2.859704	 -0.136109	 0.198870
H	 -2.058093	 0.839256	 -0.990595
H	 -1.687120	 1.125282	 2.037226
H	 -2.618690	 2.203785	 1.015935
H	 -0.877286	 2.112138	 0.833934
C	 2.886820	 -0.232538	 0.000322
H	 3.059106	 0.369571	 -0.880203
H	 3.540187	 -1.091012	 0.000050
H	 3.059019	 0.368956	 0.881266

	symmetry c1
}
set optking {
	frozen_dihedral = ("
		1 2 3 6,
		14 4 2 1
	")
}

ee = energy('scf')
oeprop('DIPOLE', 'QUADRUPOLE', 'MULLIKEN_CHARGES')
f=open( 'psi4out.xyz', 'w' )
f.write( "17  " )
f.write( str(ee) + "\n" )
f.write( MOL.save_string_xyz() )
f.close()
--------------------------------------------------------------------------

    Molecular point group: c1

    Geometry (in Angstrom), charge = 0, multiplicity = 1:

       Center              X                  Y                   Z               Mass
    ------------   -----------------  -----------------  -----------------  -----------------
           O          0.526576456195     1.036276421686    -0.151799996327    15.994914619560
           C          0.352971456195    -0.139706578314    -0.151867996327    12.000000000000
           C         -0.990056543805    -0.828192578314    -0.152220996327    12.000000000000
           O          1.345165456195    -1.020736578314    -0.151764996327    15.994914619560
           C         -2.168491543805     0.140974421686    -0.151598996327    12.000000000000
           H         -1.020188543805    -1.482640578314    -1.019226996327     1.007825032070
           H         -1.020131543805    -1.483781578314     0.713927003673     1.007825032070
           C         -1.994284543805     1.255188421686     0.879297003673    12.000000000000
           H         -3.082981543805    -0.407500578314     0.047110003673     1.007825032070
           H         -2.281370543805     0.567864421686    -1.142354996327     1.007825032070
           H         -1.910397543805     0.853890421686     1.885466003673     1.007825032070
           H         -2.841967543805     1.932393421686     0.864175003673     1.007825032070
           H         -1.100563543805     1.840746421686     0.682174003673     1.007825032070
           C          2.663542456195    -0.503929578314    -0.151437996327    12.000000000000
           H          2.835828456195     0.098179421686    -1.031962996327     1.007825032070
           H          3.316909456195    -1.362403578314    -0.151709996327     1.007825032070
           H          2.835741456195     0.097564421686     0.729506003673     1.007825032070

  Charge       = 0
  Multiplicity = 1
  Basis Set: 6-31G*
  Basis Set:

    Orbital Energies (a.u.)
    -----------------------

    Doubly Occupied:

       1A    -20.606114     2A    -20.547254     3A    -11.375739
       4A    -11.282560     5A    -11.236329     6A    -11.220718
       7A    -11.192214     8A     -1.472680     9A     -1.367622
      10A     -1.078457    11A     -0.998429    12A     -0.933788
      13A     -0.826886    14A     -0.770426    15A     -0.699914
      16A     -0.683857    17A     -0.673939    18A     -0.625535
      19A     -0.614045    20A     -0.564019    21A     -0.557216
      22A     -0.531751    23A     -0.519913    24A     -0.501622
      25A     -0.479557    26A     -0.475362    27A     -0.458340
      28A     -0.423730

  @DF-RHF Final Energy:  -344.89695088963919

   => Energetics <=

    Nuclear Repulsion Energy =            321.8393895313190001
    One-Electron Energy =               -1108.0366219258025922
    Two-Electron Energy =                 441.3002815048441221
    DFT Exchange-Correlation Energy =       0.0000000000000000
    Empirical Dispersion Energy =           0.0000000000000000
    PCM Polarization Energy =               0.0000000000000000
    EFP Energy =                            0.0000000000000000
    Total Energy =                       -344.8969508896394132

  Mulliken Charges: (a.u.)
   Center  Symbol    Alpha    Beta     Spin     Total
       1     O     4.28754  4.28754  0.00000 -0.57508
       2     C     2.60329  2.60329  0.00000  0.79341
       3     C     3.20934  3.20934  0.00000 -0.41868
       4     O     4.30674  4.30674  0.00000 -0.61349
       5     C     3.15215  3.15215  0.00000 -0.30431
       6     H     0.39821  0.39821  0.00000  0.20359
       7     H     0.39995  0.39995  0.00000  0.20011
       8     C     3.25800  3.25800  0.00000 -0.51600
       9     H     0.41722  0.41722  0.00000  0.16557
      10     H     0.41566  0.41566  0.00000  0.16868
      11     H     0.42885  0.42885  0.00000  0.14230
      12     H     0.42357  0.42357  0.00000  0.15286
      13     H     0.38107  0.38107  0.00000  0.23785
      14     C     3.09264  3.09264  0.00000 -0.18528
      15     H     0.40883  0.40883  0.00000  0.18234
      16     H     0.40795  0.40795  0.00000  0.18409
      17     H     0.40898  0.40898  0.00000  0.18203

   Total alpha = 28.00000, Total beta = 28.00000, Total charge = -0.00000
