  ==> Input File <==

--------------------------------------------------------------------------
set {
	reference rhf
	basis cc-pvtz
}

set_num_threads( 4 )
memory 2 gb

molecule MOL {
0 1

O	 -1.923417	 -2.226229	 0.334330
C	 -0.864094	 -1.721240	 0.177267
C	 0.453119	 -2.454815	 0.151227
O	 -0.695554	 -0.422406	 0.000602
C	 0.313455	 -3.955480	 0.349900
H	 1.082143	 -2.012114	 0.915619
H	 0.930137	 -2.224432	 -0.794983
H	 -0.147738	 -4.181056	 1.302073
H	 1.288427	 -4.426633	 0.321737
H	 -0.301138	 -4.395324	 -0.424077
C	 -1.852370	 0.402254	 0.000718
C	 -3.063338	 -0.501097	 -0.000437
H	 -1.831732	 1.039442	 -0.872158
H	 -1.832493	 1.038301	 0.874430
H	 -3.071944	 -1.133732	 -0.879113
H	 -3.966302	 0.097976	 -0.000483
H	 -3.072764	 -1.134834	 0.877435

	symmetry c1
}
set optking {
	frozen_dihedral = ("
		2 4 11 13
	")
}

ee = optimize('scf')
oeprop('DIPOLE', 'QUADRUPOLE', 'MULLIKEN_CHARGES')
f=open( 'psi4out.xyz', 'w' )
f.write( "17  " )
f.write( str(ee) + "\n" )
f.write( MOL.save_string_xyz() )
f.close()
--------------------------------------------------------------------------

    Molecular point group: c1
  Charge       = 0
  Multiplicity = 1
  Basis Set: CC-PVTZ
  Basis Set:
  @DF-RHF Final Energy:  -344.96605312242446
    Total Energy =                       -344.9660531224241140
    Molecular point group: c1
  Basis Set: CC-PVTZ
  Basis Set:
  Basis Set: CC-PVTZ
  Basis Set:
  @DF-RHF Final Energy:  -345.01093453331822
    Total Energy =                       -345.0109345333181636
  Basis Set: CC-PVTZ
  Basis Set:
  Basis Set: CC-PVTZ
  Basis Set:
  @DF-RHF Final Energy:  -345.02208804630044
    Total Energy =                       -345.0220880463007234
  Basis Set: CC-PVTZ
  Basis Set:
  Basis Set: CC-PVTZ
  Basis Set:
  @DF-RHF Final Energy:  -345.02339641746374
    Total Energy =                       -345.0233964174634025
  Basis Set: CC-PVTZ
  Basis Set:
  @DF-RHF Final Energy:  -345.02716771542930
    Total Energy =                       -345.0271677154291865
  @DF-RHF Final Energy:  -345.02812923862092
    Total Energy =                       -345.0281292386212044
  Basis Set: CC-PVTZ
  Basis Set:
  @DF-RHF Final Energy:  -345.02819477942057
    Total Energy =                       -345.0281947794196640
  Basis Set: CC-PVTZ
  Basis Set:
  Basis Set: CC-PVTZ
  Basis Set:
  @DF-RHF Final Energy:  -345.02820594197874
    Total Energy =                       -345.0282059419789675
  Basis Set: CC-PVTZ
  Basis Set:
  Basis Set: CC-PVTZ
  Basis Set:
  @DF-RHF Final Energy:  -345.02821014571651
    Total Energy =                       -345.0282101457158888
  Basis Set: CC-PVTZ
  Basis Set:
  Charge       = 0
  Multiplicity = 1
  Basis Set: CC-PVTZ
  Basis Set:

    Orbital Energies (a.u.)
    -----------------------

    Doubly Occupied:

       1A    -20.589632     2A    -20.528277     3A    -11.364874
       4A    -11.289506     5A    -11.232778     6A    -11.213486
       7A    -11.211565     8A     -1.462229     9A     -1.364185
      10A     -1.068175    11A     -1.028522    12A     -0.920091
      13A     -0.858905    14A     -0.742144    15A     -0.691211
      16A     -0.685549    17A     -0.673149    18A     -0.629050
      19A     -0.602085    20A     -0.569150    21A     -0.545921
      22A     -0.529827    23A     -0.523453    24A     -0.517471
      25A     -0.494574    26A     -0.491080    27A     -0.444504
      28A     -0.430550

  @DF-RHF Final Energy:  -345.02821060722420

   => Energetics <=

    Nuclear Repulsion Energy =            318.7894777413310976
    One-Electron Energy =               -1102.2314931517134937
    Two-Electron Energy =                 438.4138048031584844
    DFT Exchange-Correlation Energy =       0.0000000000000000
    Empirical Dispersion Energy =           0.0000000000000000
    PCM Polarization Energy =               0.0000000000000000
    EFP Energy =                            0.0000000000000000
    Total Energy =                       -345.0282106072239117
    Molecular point group: c1
  Basis Set: CC-PVTZ
  Basis Set:

  -Total Gradient:
     Atom            X                  Y                   Z
    ------   -----------------  -----------------  -----------------
       1        0.000006187004    -0.000068020473     0.000038024954
       2       -0.000056158856    -0.000210510615    -0.002006072236
       3       -0.000015959708    -0.000005293883    -0.000031380075
       4       -0.000063958715     0.000151419032     0.002874832474
       5       -0.000014409288     0.000004564306     0.000015465585
       6       -0.000000742092     0.000007571526     0.000016940272
       7       -0.000005735339     0.000008901942     0.000010061405
       8       -0.000001022886    -0.000001677136    -0.000003918453
       9        0.000001354953     0.000005253761    -0.000003651210
      10       -0.000001031161    -0.000004004561    -0.000001501468
      11        0.001185654441     0.001455634443     0.000216499801
      12       -0.000023320379    -0.000035815052    -0.000003842259
      13       -0.001010683797    -0.001310071192    -0.001104005697
      14        0.000029227503    -0.000010466717     0.000005068912
      15       -0.000023100450     0.000000819151    -0.000010801533
      16        0.000002799658     0.000003320859    -0.000005285278
      17       -0.000009100886     0.000008374609    -0.000006435196

  **** Optimization is complete! (in 10 steps) ****
    Final optimized geometry and variables:
    Molecular point group: c1

    Geometry (in Angstrom), charge = 0, multiplicity = 1:

    O           -0.736551791830    -0.901775434713     0.265400822814
    C            0.246671878055    -0.274863090503     0.066797770073
    C            1.630552426705    -0.872506091036    -0.039954167122
    O            0.307715499735     1.035150896771    -0.082321491006
    C            1.656483952846    -2.378776833825     0.162668488526
    H            2.257246078243    -0.365688573308     0.685127838089
    H            2.023447217458    -0.599211695829    -1.013079006277
    H            1.279683855588    -2.647211979358     1.140594451692
    H            2.671042431379    -2.748227334868     0.074013689745
    H            1.044061062525    -2.881963782332    -0.573453639249
    C           -0.786091628101     1.952109658304    -0.143072147816
    C           -2.202604086140     1.412600098179    -0.226987192743
    H           -0.586802119979     2.543778875228    -1.025427304913
    H           -0.682716420367     2.591625675697     0.722747908269
    H           -2.339265121660     0.761544313018    -1.078110512990
    H           -2.852412233365     2.273748019489    -0.348536178849
    H           -2.497712579761     0.877034989051     0.660266065417

  Mulliken Charges: (a.u.)
   Center  Symbol    Alpha    Beta     Spin     Total
       1     O     4.19795  4.19795  0.00000 -0.39591
       2     C     2.80658  2.80658  0.00000  0.38683
       3     C     3.08977  3.08977  0.00000 -0.17954
       4     O     4.15547  4.15547  0.00000 -0.31095
       5     C     3.14033  3.14033  0.00000 -0.28066
       6     H     0.44189  0.44189  0.00000  0.11623
       7     H     0.44327  0.44327  0.00000  0.11346
       8     H     0.44894  0.44894  0.00000  0.10212
       9     H     0.45098  0.45098  0.00000  0.09804
      10     H     0.44874  0.44874  0.00000  0.10252
      11     C     2.98340  2.98340  0.00000  0.03320
      12     C     3.14900  3.14900  0.00000 -0.29799
      13     H     0.45247  0.45247  0.00000  0.09506
      14     H     0.45374  0.45374  0.00000  0.09252
      15     H     0.44563  0.44563  0.00000  0.10874
      16     H     0.45262  0.45262  0.00000  0.09476
      17     H     0.43921  0.43921  0.00000  0.12158

   Total alpha = 28.00000, Total beta = 28.00000, Total charge =  0.00000
