  ==> Input File <==

--------------------------------------------------------------------------
set {
	reference rhf
	basis 6-31G*
}

set_num_threads( 4 )
memory 2 gb

molecule MOL {
0 1

H	 -3.420663	 1.227371	 -1.044276
O	 -3.452007	 0.283848	 -0.965577
C	 -3.181085	 -0.079926	 0.364119
C	 -1.765924	 0.277073	 0.805136
H	 -3.327791	 -1.152017	 0.410903
H	 -3.905698	 0.375695	 1.036898
C	 -0.677594	 -0.417312	 -0.014550
H	 -1.637766	 1.358238	 0.744969
H	 -1.659588	 0.017670	 1.857098
C	 0.738335	 -0.034840	 0.421385
H	 -0.814977	 -0.178223	 -1.064632
H	 -0.802730	 -1.495410	 0.071702
C	 1.822265	 -0.738362	 -0.399735
H	 0.853533	 1.043532	 0.342250
H	 0.871597	 -0.279636	 1.474438
C	 3.258060	 -0.455774	 0.057203
H	 1.718003	 -0.459167	 -1.447053
H	 1.651028	 -1.811884	 -0.354513
C	 3.471372	 0.933503	 0.661201
H	 3.919960	 -0.568787	 -0.798019
H	 3.561931	 -1.213080	 0.777170
H	 3.163975	 1.711677	 -0.032406
H	 4.519250	 1.095585	 0.894696
H	 2.909622	 1.068129	 1.579611

	symmetry c1
}
set optking {
	frozen_dihedral = ("
		20 16 13 17
	")
}

ee = optimize('scf')
oeprop('DIPOLE', 'QUADRUPOLE', 'MULLIKEN_CHARGES')
f=open( 'psi4out.xyz', 'w' )
f.write( "24  " )
f.write( str(ee) + "\n" )
f.write( MOL.save_string_xyz() )
f.close()
--------------------------------------------------------------------------

    Molecular point group: c1
  Charge       = 0
  Multiplicity = 1
  Basis Set: 6-31G*
  Basis Set:
  @DF-RHF Final Energy:  -349.24288509301209
    Total Energy =                       -349.2428850930122053
    Molecular point group: c1
  Basis Set: 6-31G*
  Basis Set:
  Basis Set: 6-31G*
  Basis Set:
  @DF-RHF Final Energy:  -349.24331060747375
    Total Energy =                       -349.2433106074738589
  Basis Set: 6-31G*
  Basis Set:
  Basis Set: 6-31G*
  Basis Set:
  @DF-RHF Final Energy:  -349.24374710193251
    Total Energy =                       -349.2437471019328541
  Basis Set: 6-31G*
  Basis Set:
  Basis Set: 6-31G*
  Basis Set:
  @DF-RHF Final Energy:  -349.24372085380867
    Total Energy =                       -349.2437208538086679
  Basis Set: 6-31G*
  Basis Set:
  Basis Set: 6-31G*
  Basis Set:
  @DF-RHF Final Energy:  -349.24376863404910
    Total Energy =                       -349.2437686340489336
  Basis Set: 6-31G*
  Basis Set:
  Basis Set: 6-31G*
  Basis Set:
  @DF-RHF Final Energy:  -349.24376702786242
    Total Energy =                       -349.2437670278627593
  Basis Set: 6-31G*
  Basis Set:
  Charge       = 0
  Multiplicity = 1
  Basis Set: 6-31G*
  Basis Set:

    Orbital Energies (a.u.)
    -----------------------

    Doubly Occupied:

       1A    -20.553588     2A    -11.267723     3A    -11.217474
       4A    -11.214353     5A    -11.212752     6A    -11.211569
       7A    -11.211144     8A    -11.206878     9A     -1.360188
      10A     -1.087904    11A     -1.047102    12A     -0.985066
      13A     -0.915099    14A     -0.853456    15A     -0.801878
      16A     -0.770575    17A     -0.679141    18A     -0.655013
      19A     -0.628675    20A     -0.618203    21A     -0.593054
      22A     -0.586166    23A     -0.554977    24A     -0.543996
      25A     -0.513534    26A     -0.507130    27A     -0.502777
      28A     -0.472535    29A     -0.467867    30A     -0.458015
      31A     -0.451627    32A     -0.450395    33A     -0.419403

  @DF-RHF Final Energy:  -349.24377049027686

   => Energetics <=

    Nuclear Repulsion Energy =            385.2346467499779124
    One-Electron Energy =               -1236.9183081046285224
    Two-Electron Energy =                 502.4398908643738650
    DFT Exchange-Correlation Energy =       0.0000000000000000
    Empirical Dispersion Energy =           0.0000000000000000
    PCM Polarization Energy =               0.0000000000000000
    EFP Energy =                            0.0000000000000000
    Total Energy =                       -349.2437704902768019
    Molecular point group: c1
  Basis Set: 6-31G*
  Basis Set:

  -Total Gradient:
     Atom            X                  Y                   Z
    ------   -----------------  -----------------  -----------------
       1        0.000000263161     0.000000547318    -0.000001605537
       2       -0.000001283233     0.000004711040    -0.000000463079
       3        0.000013328947    -0.000014776511    -0.000013173138
       4        0.000014095411     0.000006470974     0.000006351881
       5       -0.000001094874    -0.000001489485     0.000002776134
       6        0.000009936304     0.000002653309     0.000001399970
       7        0.000003188007    -0.000013688205    -0.000000582959
       8        0.000004380242     0.000001312850     0.000000773318
       9        0.000000190866    -0.000001238050     0.000001285775
      10       -0.000033833518     0.000030581552     0.000042643772
      11       -0.000003247342    -0.000000996994    -0.000006399914
      12       -0.000008678345    -0.000006310568    -0.000000438171
      13       -0.001861229692     0.008238152813     0.001624935398
      14       -0.000004564808     0.000003040440     0.000006295413
      15       -0.000017694169    -0.000000672310     0.000005109059
      16        0.000960525603    -0.008409808152     0.001325774554
      17        0.001418868439    -0.005644558071    -0.001604368482
      18        0.000037355821     0.000020799225     0.000003345492
      19       -0.000029132987     0.000013523557    -0.000013813458
      20       -0.000515726456     0.005788665130    -0.001379827512
      21        0.000006975875    -0.000019293783     0.000001262056
      22        0.000015507617     0.000012025189     0.000005123788
      23       -0.000013341066    -0.000020461975    -0.000014373618
      24        0.000005210206     0.000010810706     0.000007969261

  **** Optimization is complete! (in 7 steps) ****
    Final optimized geometry and variables:
    Molecular point group: c1

    Geometry (in Angstrom), charge = 0, multiplicity = 1:

    H           -3.401726779940     1.236363744583    -1.143249732570
    O           -3.426315498215     0.291262548572    -1.083874647502
    C           -3.170207037671    -0.096939710652     0.241855456949
    C           -1.764063455956     0.262506856529     0.708969315387
    H           -3.308531900329    -1.170820722906     0.265129363342
    H           -3.907464718831     0.339123419013     0.913777928855
    C           -0.659387485430    -0.405335307317    -0.110858585167
    H           -1.644547661342     1.345711673369     0.673160531629
    H           -1.669183112993    -0.018170002555     1.756579889301
    C            0.747057194512    -0.017647311439     0.350353267801
    H           -0.785981076188    -0.146270830921    -1.157575254741
    H           -0.775547229688    -1.485964130246    -0.047893429237
    C            1.841016449646    -0.689290924421    -0.480928421140
    H            0.850862071279     1.063208759840     0.301103358408
    H            0.870570761409    -0.288911963707     1.398028377858
    C            3.294294523596    -0.456156014225    -0.021021969446
    H            1.744285094637    -0.415740014147    -1.529573424746
    H            1.662335203397    -1.763385678845    -0.469412292069
    C            3.591348391594     0.945869243539     0.522146008845
    H            3.946983286445    -0.601758751884    -0.877415802374
    H            3.568926450175    -1.191966460650     0.729307982636
    H            3.331606171785     1.713303581216    -0.202096587408
    H            4.649686325290     1.048559929437     0.742153001055
    H            3.046647689235     1.155508799361     1.436457698402

  Mulliken Charges: (a.u.)
   Center  Symbol    Alpha    Beta     Spin     Total
       1     H     0.28338  0.28338  0.00000  0.43323
       2     O     4.36830  4.36830  0.00000 -0.73660
       3     C     2.99615  2.99615  0.00000  0.00771
       4     C     3.16904  3.16904  0.00000 -0.33807
       5     H     0.41632  0.41632  0.00000  0.16736
       6     H     0.42815  0.42815  0.00000  0.14369
       7     C     3.15206  3.15206  0.00000 -0.30412
       8     H     0.42826  0.42826  0.00000  0.14349
       9     H     0.42242  0.42242  0.00000  0.15516
      10     C     3.15435  3.15435  0.00000 -0.30869
      11     H     0.41198  0.41198  0.00000  0.17603
      12     H     0.42345  0.42345  0.00000  0.15310
      13     C     3.15467  3.15467  0.00000 -0.30934
      14     H     0.42193  0.42193  0.00000  0.15614
      15     H     0.42496  0.42496  0.00000  0.15008
      16     C     3.15172  3.15172  0.00000 -0.30345
      17     H     0.42209  0.42209  0.00000  0.15581
      18     H     0.42240  0.42240  0.00000  0.15519
      19     C     3.24269  3.24269  0.00000 -0.48537
      20     H     0.42092  0.42092  0.00000  0.15815
      21     H     0.42192  0.42192  0.00000  0.15616
      22     H     0.42262  0.42262  0.00000  0.15476
      23     H     0.41994  0.41994  0.00000  0.16013
      24     H     0.42028  0.42028  0.00000  0.15945

   Total alpha = 33.00000, Total beta = 33.00000, Total charge =  0.00000
