                              Psi4 1.0.54 Driver

  ==> Input File <==

--------------------------------------------------------------------------
set {
	reference rhf
	basis cc-pvtz
}

set_num_threads( 4 )
memory 2 gb

molecule MOL {
0 1

H	 -2.362939	 -1.309000	 -0.383250
C	 -1.359344	 -1.272457	 0.020748
C	 -0.684082	 0.000127	 -0.464918
H	 -0.825835	 -2.151141	 -0.318537
H	 -1.416276	 -1.292399	 1.099455
C	 -1.359089	 1.272668	 0.021259
N	 0.742439	 -0.000109	 0.007333
H	 -0.596914	 0.000345	 -1.538146
H	 -2.362696	 1.309620	 -0.382686
H	 -0.825392	 2.151374	 -0.317674
H	 -1.415983	 1.292181	 1.099973
O	 1.545613	 0.526125	 -0.686665
O	 0.974943	 -0.526372	 1.044289

	symmetry c1
}
set optking {
	frozen_dihedral = ("
		12 7 3 8
	")
}

ee,wfn = optimize('scf', return_wfn=True)
oeprop( wfn, 'DIPOLE', 'QUADRUPOLE', 'MULLIKEN_CHARGES')
f=open( 'psi4out.xyz', 'w' )
f.write( "13  " )
f.write( str(ee) + "\n" )
f.write( MOL.save_string_xyz() )
f.close()
--------------------------------------------------------------------------

    Molecular point group: c1
  Charge       = 0
  Multiplicity = 1
  Basis Set: CC-PVTZ
  Basis Set:
  @DF-RHF Final Energy:  -321.86370059866226
    Total Energy =                       -321.8637005986622626
    Molecular point group: c1
  Basis Set: CC-PVTZ
  Basis Set:
  Basis Set: CC-PVTZ
  Basis Set:
  @DF-RHF Final Energy:  -321.85765764725937
    Total Energy =                       -321.8576576472593160
  Basis Set: CC-PVTZ
  Basis Set:
  Basis Set: CC-PVTZ
  Basis Set:
  @DF-RHF Final Energy:  -321.86380874985707
    Total Energy =                       -321.8638087498569575
  Basis Set: CC-PVTZ
  Basis Set:
  Basis Set: CC-PVTZ
  Basis Set:
  @DF-RHF Final Energy:  -321.86419493827225
    Total Energy =                       -321.8641949382721918
  Basis Set: CC-PVTZ
  Basis Set:
  Basis Set: CC-PVTZ
  Basis Set:
  @DF-RHF Final Energy:  -321.86360207875072
    Total Energy =                       -321.8636020787506027
  Basis Set: CC-PVTZ
  Basis Set:
  Basis Set: CC-PVTZ
  Basis Set:
  @DF-RHF Final Energy:  -321.86422599273305
    Total Energy =                       -321.8642259927329405
  Basis Set: CC-PVTZ
  Basis Set:
  Basis Set: CC-PVTZ
  Basis Set:
  @DF-RHF Final Energy:  -321.86422947624203
    Total Energy =                       -321.8642294762418032
  Basis Set: CC-PVTZ
  Basis Set:
  Charge       = 0
  Multiplicity = 1
  Basis Set: CC-PVTZ
  Basis Set:

    Orbital Energies (a.u.)
    -----------------------

    Doubly Occupied:

       1A    -20.589611     2A    -20.588010     3A    -15.832826
       4A    -11.304710     5A    -11.245381     6A    -11.239366
       7A     -1.634004     8A     -1.418238     9A     -1.142294
      10A     -0.973132    11A     -0.957339    12A     -0.816228
      13A     -0.755013    14A     -0.731817    15A     -0.726226
      16A     -0.648511    17A     -0.594416    18A     -0.587631
      19A     -0.571351    20A     -0.529603    21A     -0.522027
      22A     -0.485108    23A     -0.470660    24A     -0.451896

  @DF-RHF Final Energy:  -321.86423035104144

   => Energetics <=

    Nuclear Repulsion Energy =            257.3980464146044369
    One-Electron Energy =                -948.8937540726532234
    Two-Electron Energy =                 369.6314773070073443
    DFT Exchange-Correlation Energy =       0.0000000000000000
    Empirical Dispersion Energy =           0.0000000000000000
    PCM Polarization Energy =               0.0000000000000000
    EFP Energy =                            0.0000000000000000
    Total Energy =                       -321.8642303510414422
    Molecular point group: c1
  Basis Set: CC-PVTZ
  Basis Set:

  -Total Gradient:
     Atom            X                  Y                   Z
    ------   -----------------  -----------------  -----------------
       1       -0.000001121188    -0.000002252977    -0.000002099659
       2       -0.000011865505    -0.000009012580    -0.000018027870
       3       -0.000072601264     0.001102900583     0.000174076391
       4        0.000001020906    -0.000004135623     0.000002457413
       5        0.000006174313     0.000011032424    -0.000010589594
       6        0.000002175483     0.000012660583    -0.000006467984
       7        0.000286318899    -0.000960634868    -0.000537147074
       8        0.000035483423    -0.000774767290     0.000003283710
       9        0.000004148262    -0.000001472163     0.000005900114
      10        0.000004732469     0.000003459887     0.000000821498
      11       -0.000007835383     0.000003442191     0.000008142199
      12       -0.000207742316     0.000627122220     0.000374182208
      13       -0.000038888095    -0.000008342387     0.000005468643

  **** Optimization is complete! (in 8 steps) ****
    Final optimized geometry and variables:
    Molecular point group: c1

    Geometry (in Angstrom), charge = 0, multiplicity = 1:

    H           -2.364270156567    -1.329978205038    -0.424122114766
    C           -1.374826854870    -1.297383205718     0.015082420134
    C           -0.682659406467    -0.035655297242    -0.462724481674
    H           -0.836229046254    -2.182800959989    -0.295032703661
    H           -1.469695519062    -1.312263424526     1.090428817152
    C           -1.349021513728     1.247621394760     0.016954664085
    N            0.745132446838     0.001971203088     0.008904671207
    H           -0.592504596440    -0.030092980077    -1.536679901324
    H           -2.362471103846     1.279441443770    -0.360898471268
    H           -0.819845900192     2.117889710011    -0.345361663029
    H           -1.384605657994     1.278890905622     1.098258443204
    O            1.521720334949     0.555636042649    -0.695382669628
    O            1.000986947439    -0.482005395792     1.059436850033

  Mulliken Charges: (a.u.)
   Center  Symbol    Alpha    Beta     Spin     Total
       1     H     0.45011  0.45011  0.00000  0.09979
       2     C     3.14404  3.14404  0.00000 -0.28808
       3     C     3.00777  3.00777  0.00000 -0.01553
       4     H     0.44080  0.44080  0.00000  0.11840
       5     H     0.43894  0.43894  0.00000  0.12212
       6     C     3.14287  3.14287  0.00000 -0.28574
       7     N     3.27410  3.27410  0.00000  0.45179
       8     H     0.42595  0.42595  0.00000  0.14809
       9     H     0.44844  0.44844  0.00000  0.10311
      10     H     0.43631  0.43631  0.00000  0.12738
      11     H     0.44270  0.44270  0.00000  0.11459
      12     O     4.17365  4.17365  0.00000 -0.34730
      13     O     4.17431  4.17431  0.00000 -0.34862

   Total alpha = 24.00000, Total beta = 24.00000, Total charge = -0.00000

*** Psi4 exiting successfully. Buy a developer a beer!
