  ==> Input File <==

--------------------------------------------------------------------------
set {
	reference rhf
	basis 6-31G*
}

set_num_threads( 1 )
memory 2 gb

molecule MOL {
0 1

H	 2.036589	 3.563716	 -4.201827
C	 1.882916	 2.913979	 -3.358612
C	 0.970490	 3.262919	 -2.374301
C	 2.597647	 1.730645	 -3.259559
H	 0.416839	 4.180932	 -2.452338
C	 0.773444	 2.426976	 -1.290394
H	 3.304514	 1.461815	 -4.023546
C	 2.402046	 0.892305	 -2.175446
H	 0.071554	 2.680870	 -0.519317
C	 1.488303	 1.239179	 -1.187259
H	 2.952965	 -0.024371	 -2.094738
C	 1.239129	 0.373821	 0.000060
O	 1.970282	 -0.730723	 0.000018
O	 0.464781	 0.638337	 0.865666
C	 3.377318	 -0.566646	 -0.000065
H	 3.695437	 -0.028981	 -0.881264
H	 3.789299	 -1.563704	 0.000236
H	 3.695516	 -0.028316	 0.880770

	symmetry c1
}
set optking {
	frozen_dihedral = ("
		12 13 15 16,
		13 12 10 6
	")
}

ee = energy('scf')
oeprop('DIPOLE', 'QUADRUPOLE', 'MULLIKEN_CHARGES')
f=open( 'psi4out.xyz', 'w' )
f.write( "18  " )
f.write( str(ee) + "\n" )
f.write( MOL.save_string_xyz() )
f.close()
--------------------------------------------------------------------------

    Molecular point group: c1

    Geometry (in Angstrom), charge = 0, multiplicity = 1:

       Center              X                  Y                   Z               Mass
    ------------   -----------------  -----------------  -----------------  -----------------
           H          0.303117105952     2.416198568154    -3.001580848925     1.007825032070
           C          0.149444105952     1.766461568154    -2.158365848925    12.000000000000
           C         -0.762981894048     2.115401568154    -1.174054848925    12.000000000000
           C          0.864175105952     0.583127568154    -2.059312848925    12.000000000000
           H         -1.316632894048     3.033414568154    -1.252091848925     1.007825032070
           C         -0.960027894048     1.279458568154    -0.090147848925    12.000000000000
           H          1.571042105952     0.314297568154    -2.823299848925     1.007825032070
           C          0.668574105952    -0.255212431846    -0.975199848925    12.000000000000
           H         -1.661917894048     1.533352568154     0.680929151075     1.007825032070
           C         -0.245168894048     0.091661568154     0.012987151075    12.000000000000
           H          1.219493105952    -1.171888431846    -0.894491848925     1.007825032070
           C         -0.494342894048    -0.773696431846     1.200306151075    12.000000000000
           O          0.236810105952    -1.878240431846     1.200264151075    15.994914619560
           O         -1.268690894048    -0.509180431846     2.065912151075    15.994914619560
           C          1.643846105952    -1.714163431846     1.200181151075    12.000000000000
           H          1.961965105952    -1.176498431846     0.318982151075     1.007825032070
           H          2.055827105952    -2.711221431846     1.200482151075     1.007825032070
           H          1.962044105952    -1.175833431846     2.081016151075     1.007825032070

  Charge       = 0
  Multiplicity = 1
  Basis Set: 6-31G*
  Basis Set:

    Orbital Energies (a.u.)
    -----------------------

    Doubly Occupied:

       1A    -20.596180     2A    -20.551947     3A    -11.379530
       4A    -11.289904     5A    -11.252992     6A    -11.252265
       7A    -11.249821     8A    -11.247491     9A    -11.246072
      10A    -11.243296    11A     -1.467800    12A     -1.370064
      13A     -1.172832    14A     -1.048119    15A     -1.034535
      16A     -0.988722    17A     -0.875110    18A     -0.850628
      19A     -0.787096    20A     -0.740192    21A     -0.700300
      22A     -0.674411    23A     -0.671049    24A     -0.649771
      25A     -0.629265    26A     -0.613287    27A     -0.580651
      28A     -0.563428    29A     -0.544686    30A     -0.523635
      31A     -0.509480    32A     -0.489001    33A     -0.459775
      34A     -0.441697    35A     -0.350517    36A     -0.348100

  @DF-RHF Final Energy:  -457.30432367364239

   => Energetics <=

    Nuclear Repulsion Energy =            502.5592056894255961
    One-Electron Energy =               -1618.9395605511260783
    Two-Electron Energy =                 659.0760311880572999
    DFT Exchange-Correlation Energy =       0.0000000000000000
    Empirical Dispersion Energy =           0.0000000000000000
    PCM Polarization Energy =               0.0000000000000000
    EFP Energy =                            0.0000000000000000
    Total Energy =                       -457.3043236736431254

  Mulliken Charges: (a.u.)
   Center  Symbol    Alpha    Beta     Spin     Total
       1     H     0.39393  0.39393  0.00000  0.21214
       2     C     3.09040  3.09040  0.00000 -0.18080
       3     C     3.10601  3.10601  0.00000 -0.21202
       4     C     3.10733  3.10733  0.00000 -0.21467
       5     H     0.39368  0.39368  0.00000  0.21264
       6     C     3.08430  3.08430  0.00000 -0.16860
       7     H     0.39534  0.39534  0.00000  0.20931
       8     C     3.10863  3.10863  0.00000 -0.21727
       9     H     0.37411  0.37411  0.00000  0.25178
      10     C     3.07620  3.07620  0.00000 -0.15241
      11     H     0.37638  0.37638  0.00000  0.24725
      12     C     2.58640  2.58640  0.00000  0.82721
      13     O     4.31257  4.31257  0.00000 -0.62514
      14     O     4.26616  4.26616  0.00000 -0.53233
      15     C     3.10129  3.10129  0.00000 -0.20259
      16     H     0.41880  0.41880  0.00000  0.16241
      17     H     0.40087  0.40087  0.00000  0.19827
      18     H     0.40759  0.40759  0.00000  0.18481

   Total alpha = 36.00000, Total beta = 36.00000, Total charge = -0.00000
