  ==> Input File <==

--------------------------------------------------------------------------
set {
	reference rhf
	basis 6-31G*
}

set_num_threads( 1 )
memory 2 gb

molecule MOL {
0 1

O	 -2.631166	 1.049682	 1.150504
C	 -2.567594	 -0.007869	 0.609986
C	 -3.711718	 -0.986480	 0.542387
O	 -1.481751	 -0.454642	 0.000584
H	 -4.553035	 -0.505229	 0.058192
H	 -3.443024	 -1.884082	 0.005215
H	 -4.014518	 -1.237968	 1.551816
C	 -0.334255	 0.388708	 0.000906
C	 0.891947	 -0.504646	 0.000751
H	 -0.365390	 1.025305	 -0.873475
H	 -0.365484	 1.024911	 0.875569
C	 2.191998	 0.301789	 0.000897
H	 0.855148	 -1.151283	 -0.871571
H	 0.855132	 -1.151660	 0.872805
C	 3.441114	 -0.581407	 0.000108
H	 2.215074	 0.954890	 -0.869742
H	 2.215465	 0.953923	 0.872248
C	 4.739576	 0.224112	 -0.001102
H	 3.419457	 -1.233487	 -0.870178
H	 3.420834	 -1.233096	 0.870717
H	 4.804918	 0.861552	 -0.878265
H	 5.606527	 -0.429058	 -0.001824
H	 4.806469	 0.861674	 0.875853

	symmetry c1
}
set optking {
	frozen_dihedral = ("
		13 9 8 10,
		16 12 9 13,
		19 15 12 16,
		1 2 4 8
	")
}

ee = energy('scf')
oeprop('DIPOLE', 'QUADRUPOLE', 'MULLIKEN_CHARGES')
f=open( 'psi4out.xyz', 'w' )
f.write( "23  " )
f.write( str(ee) + "\n" )
f.write( MOL.save_string_xyz() )
f.close()
--------------------------------------------------------------------------

    Molecular point group: c1

    Geometry (in Angstrom), charge = 0, multiplicity = 1:

       Center              X                  Y                   Z               Mass
    ------------   -----------------  -----------------  -----------------  -----------------
           O         -2.674252975246     1.108407174989     0.890020312417    15.994914619560
           C         -2.610680975246     0.050856174989     0.349502312417    12.000000000000
           C         -3.754804975246    -0.927754825011     0.281903312417    12.000000000000
           O         -1.524837975246    -0.395916825011    -0.259899687583    15.994914619560
           H         -4.596121975246    -0.446503825011    -0.202291687583     1.007825032070
           H         -3.486110975246    -1.825356825011    -0.255268687583     1.007825032070
           H         -4.057604975246    -1.179242825011     1.291332312417     1.007825032070
           C         -0.377341975246     0.447433174989    -0.259577687583    12.000000000000
           C          0.848860024754    -0.445920825011    -0.259732687583    12.000000000000
           H         -0.408476975246     1.084030174989    -1.133958687583     1.007825032070
           H         -0.408570975246     1.083636174989     0.615085312417     1.007825032070
           C          2.148911024754     0.360514174989    -0.259586687583    12.000000000000
           H          0.812061024754    -1.092557825011    -1.132054687583     1.007825032070
           H          0.812045024754    -1.092934825011     0.612321312417     1.007825032070
           C          3.398027024754    -0.522681825011    -0.260375687583    12.000000000000
           H          2.171987024754     1.013615174989    -1.130225687583     1.007825032070
           H          2.172378024754     1.012648174989     0.611764312417     1.007825032070
           C          4.696489024754     0.282837174989    -0.261585687583    12.000000000000
           H          3.376370024754    -1.174761825011    -1.130661687583     1.007825032070
           H          3.377747024754    -1.174370825011     0.610233312417     1.007825032070
           H          4.761831024754     0.920277174989    -1.138748687583     1.007825032070
           H          5.563440024754    -0.370332825011    -0.262307687583     1.007825032070
           H          4.763382024754     0.920399174989     0.615369312417     1.007825032070

  Charge       = 0
  Multiplicity = 1
  Basis Set: 6-31G*
  Basis Set:

    Orbital Energies (a.u.)
    -----------------------

    Doubly Occupied:

       1A    -20.603242     2A    -20.540311     3A    -11.374970
       4A    -11.279106     5A    -11.232826     6A    -11.223507
       7A    -11.222903     8A    -11.221140     9A    -11.212563
      10A     -1.468456    11A     -1.361107    12A     -1.093457
      13A     -1.042039    14A     -1.003330    15A     -0.930590
      16A     -0.842301    17A     -0.801715    18A     -0.774195
      19A     -0.696353    20A     -0.682252    21A     -0.665613
      22A     -0.646853    23A     -0.605508    24A     -0.587938
      25A     -0.583041    26A     -0.569189    27A     -0.555044
      28A     -0.538033    29A     -0.523031    30A     -0.506347
      31A     -0.489470    32A     -0.477563    33A     -0.471137
      34A     -0.468364    35A     -0.447782    36A     -0.434011

  @DF-RHF Final Energy:  -422.97804562711650

   => Energetics <=

    Nuclear Repulsion Energy =            450.6750764893823202
    One-Electron Energy =               -1468.9558353452566735
    Two-Electron Energy =                 595.3027132287592167
    DFT Exchange-Correlation Energy =       0.0000000000000000
    Empirical Dispersion Energy =           0.0000000000000000
    PCM Polarization Energy =               0.0000000000000000
    EFP Energy =                            0.0000000000000000
    Total Energy =                       -422.9780456271151934

  Mulliken Charges: (a.u.)
   Center  Symbol    Alpha    Beta     Spin     Total
       1     O     4.28403  4.28403  0.00000 -0.56806
       2     C     2.61567  2.61567  0.00000  0.76866
       3     C     3.28840  3.28840  0.00000 -0.57680
       4     O     4.31158  4.31158  0.00000 -0.62316
       5     H     0.39723  0.39723  0.00000  0.20555
       6     H     0.39972  0.39972  0.00000  0.20057
       7     H     0.39750  0.39750  0.00000  0.20499
       8     C     3.00306  3.00306  0.00000 -0.00612
       9     C     3.16316  3.16316  0.00000 -0.32633
      10     H     0.41539  0.41539  0.00000  0.16922
      11     H     0.39811  0.39811  0.00000  0.20378
      12     C     3.16048  3.16048  0.00000 -0.32096
      13     H     0.41471  0.41471  0.00000  0.17058
      14     H     0.41523  0.41523  0.00000  0.16955
      15     C     3.15135  3.15135  0.00000 -0.30269
      16     H     0.42160  0.42160  0.00000  0.15681
      17     H     0.42015  0.42015  0.00000  0.15970
      18     C     3.23986  3.23986  0.00000 -0.47972
      19     H     0.42153  0.42153  0.00000  0.15694
      20     H     0.42135  0.42135  0.00000  0.15730
      21     H     0.42110  0.42110  0.00000  0.15780
      22     H     0.41809  0.41809  0.00000  0.16382
      23     H     0.42071  0.42071  0.00000  0.15858

   Total alpha = 36.00000, Total beta = 36.00000, Total charge = -0.00000
