  ==> Input File <==

--------------------------------------------------------------------------
set {
	reference rhf
	basis 6-31G*
}

set_num_threads( 4 )
memory 2 gb

molecule MOL {
0 1

H	 -4.031818	 -0.453427	 -0.000094
C	 -2.967712	 -0.297022	 -0.000064
C	 -2.458620	 0.992929	 0.000032
C	 -2.109895	 -1.385637	 -0.000122
H	 -3.124998	 1.836319	 0.000077
C	 -1.090278	 1.193236	 0.000070
H	 -2.506361	 -2.384847	 -0.000198
C	 -0.739812	 -1.187531	 -0.000085
H	 -0.678594	 2.184290	 0.000146
C	 -0.226438	 0.104061	 0.000012
H	 -0.072310	 -2.027032	 -0.000131
C	 1.239129	 0.373821	 0.000060
O	 1.607856	 1.238123	 0.933669
O	 2.008650	 -0.130146	 -0.756719
C	 2.987149	 1.552909	 1.005301
H	 3.567560	 0.665385	 1.210775
H	 3.085277	 2.260826	 1.813433
H	 3.323572	 1.992547	 0.077693

	symmetry c1
}
set optking {
	frozen_dihedral = ("
		13 12 10 6
	")
}

ee = optimize('scf')
oeprop('DIPOLE', 'QUADRUPOLE', 'MULLIKEN_CHARGES')
f=open( 'psi4out.xyz', 'w' )
f.write( "18  " )
f.write( str(ee) + "\n" )
f.write( MOL.save_string_xyz() )
f.close()
--------------------------------------------------------------------------

    Molecular point group: c1
  Charge       = 0
  Multiplicity = 1
  Basis Set: 6-31G*
  Basis Set:
  @DF-RHF Final Energy:  -457.34328549166537
    Total Energy =                       -457.3432854916650285
    Molecular point group: c1
  Basis Set: 6-31G*
  Basis Set:
  Basis Set: 6-31G*
  Basis Set:
  @DF-RHF Final Energy:  -457.34380122461516
    Total Energy =                       -457.3438012246156177
  Basis Set: 6-31G*
  Basis Set:
  Basis Set: 6-31G*
  Basis Set:
  @DF-RHF Final Energy:  -457.34320084138329
    Total Energy =                       -457.3432008413834637
  Basis Set: 6-31G*
  Basis Set:
  Basis Set: 6-31G*
  Basis Set:
  @DF-RHF Final Energy:  -457.34469130671096
    Total Energy =                       -457.3446913067109563
  Basis Set: 6-31G*
  Basis Set:
  Basis Set: 6-31G*
  Basis Set:
  @DF-RHF Final Energy:  -457.34470607253752
    Total Energy =                       -457.3447060725374058
  Basis Set: 6-31G*
  Basis Set:
  Basis Set: 6-31G*
  Basis Set:
  @DF-RHF Final Energy:  -457.34470742256042
    Total Energy =                       -457.3447074225605320
  Basis Set: 6-31G*
  Basis Set:
  Charge       = 0
  Multiplicity = 1
  Basis Set: 6-31G*
  Basis Set:

    Orbital Energies (a.u.)
    -----------------------

    Doubly Occupied:

       1A    -20.609045     2A    -20.547873     3A    -11.378988
       4A    -11.283285     5A    -11.248389     6A    -11.244888
       7A    -11.242893     8A    -11.242685     9A    -11.238823
      10A    -11.238147    11A     -1.473917    12A     -1.366199
      13A     -1.166163    14A     -1.048583    15A     -1.025502
      16A     -0.979213    17A     -0.859964    18A     -0.836815
      19A     -0.779227    20A     -0.738009    21A     -0.684239
      22A     -0.678409    23A     -0.675060    24A     -0.630160
      25A     -0.628053    26A     -0.597294    27A     -0.589292
      28A     -0.553581    29A     -0.533682    30A     -0.516525
      31A     -0.505545    32A     -0.501559    33A     -0.458765
      34A     -0.445277    35A     -0.343457    36A     -0.341766

  @DF-RHF Final Energy:  -457.34470759089470

   => Energetics <=

    Nuclear Repulsion Energy =            492.2484104005136487
    One-Electron Energy =               -1598.7236931030333835
    Two-Electron Energy =                 649.1305751116246938
    DFT Exchange-Correlation Energy =       0.0000000000000000
    Empirical Dispersion Energy =           0.0000000000000000
    PCM Polarization Energy =               0.0000000000000000
    EFP Energy =                            0.0000000000000000
    Total Energy =                       -457.3447075908950410
    Molecular point group: c1
  Basis Set: 6-31G*
  Basis Set:

  -Total Gradient:
     Atom            X                  Y                   Z
    ------   -----------------  -----------------  -----------------
       1       -0.000000034737     0.000003739203     0.000004787322
       2        0.000020365785    -0.000104011114    -0.000012529225
       3        0.000080814556     0.000056958806     0.000000184909
       4       -0.000100745274     0.000027331323     0.000000084728
       5       -0.000002925272    -0.000003398640     0.000003196831
       6       -0.000202527831    -0.000206219312    -0.005655793172
       7        0.000002343170    -0.000003932949    -0.000001767504
       8        0.000067017030     0.000033594660     0.000036153911
       9        0.000007901774    -0.000001193900    -0.000008134611
      10        0.000406909064    -0.001056522900     0.009606769583
      11       -0.000011119574    -0.000002305746    -0.000016961974
      12       -0.000997702322     0.005281541584    -0.007668930108
      13        0.000715912015    -0.004029853793     0.003710142639
      14        0.000011466283    -0.000003606741     0.000002983824
      15        0.000001742220     0.000016847282    -0.000011970396
      16        0.000002323724    -0.000004743234     0.000001984555
      17       -0.000000471047    -0.000002184566     0.000003403293
      18       -0.000001269580    -0.000002039964     0.000006395395

  **** Optimization is complete! (in 7 steps) ****
    Final optimized geometry and variables:
    Molecular point group: c1

    Geometry (in Angstrom), charge = 0, multiplicity = 1:

    H           -3.978676726254    -0.764273381606    -0.223428321602
    C           -2.918850295261    -0.586604142355    -0.183954951323
    C           -2.436177525430     0.712110672073    -0.153490253196
    C           -2.037726156168    -1.656826765943    -0.172754632915
    H           -3.118704071015     1.542295418253    -0.177152074240
    C           -1.072263809601     0.942149294062    -0.092552722121
    H           -2.411668993169    -2.664128318165    -0.205569886106
    C           -0.673294730554    -1.428495937127    -0.136758415005
    H           -0.694553783390     1.947331907668    -0.056754775290
    C           -0.189776942908    -0.129055893653    -0.066988213496
    H            0.018678244030    -2.249608661870    -0.162709477392
    C            1.286579091953     0.089430621589    -0.107529761832
    O            1.690613710430     0.979863305898     0.785629339085
    O            2.028939060440    -0.504740301273    -0.822167275029
    C            3.077760675037     1.268112548228     0.820454754634
    H            3.641055109345     0.379366039681     1.064688326866
    H            3.203229719641     2.014888375529     1.588641859804
    H            3.411156036656     1.650208083920    -0.133660181555

  Mulliken Charges: (a.u.)
   Center  Symbol    Alpha    Beta     Spin     Total
       1     H     0.39593  0.39593  0.00000  0.20813
       2     C     3.09352  3.09352  0.00000 -0.18704
       3     C     3.10336  3.10336  0.00000 -0.20672
       4     C     3.10408  3.10408  0.00000 -0.20815
       5     H     0.39609  0.39609  0.00000  0.20781
       6     C     3.09268  3.09268  0.00000 -0.18535
       7     H     0.39547  0.39547  0.00000  0.20906
       8     C     3.09250  3.09250  0.00000 -0.18501
       9     H     0.38762  0.38762  0.00000  0.22477
      10     C     3.03217  3.03217  0.00000 -0.06433
      11     H     0.38365  0.38365  0.00000  0.23271
      12     C     2.62183  2.62183  0.00000  0.75634
      13     O     4.30139  4.30139  0.00000 -0.60278
      14     O     4.28311  4.28311  0.00000 -0.56622
      15     C     3.09392  3.09392  0.00000 -0.18784
      16     H     0.40718  0.40718  0.00000  0.18564
      17     H     0.40698  0.40698  0.00000  0.18604
      18     H     0.40854  0.40854  0.00000  0.18292

   Total alpha = 36.00000, Total beta = 36.00000, Total charge = -0.00000
