  ==> Input File <==

--------------------------------------------------------------------------
set {
	reference rhf
	basis cc-pvtz
}

set_num_threads( 4 )
memory 2 gb

molecule MOL {
0 1

H	 2.133303	 0.281871	 -0.968240
O	 2.063695	 -0.083403	 -0.105237
C	 0.742924	 0.005675	 0.350750
H	 0.731380	 0.039219	 1.440080
C	 -0.064076	 -1.193495	 -0.124425
C	 -0.047832	 1.190568	 -0.194462
H	 0.194729	 -1.376165	 -1.161308
H	 0.163013	 -2.094508	 0.429933
C	 -1.533112	 -0.752002	 0.006102
H	 0.148003	 1.266545	 -1.259275
H	 0.226235	 2.136493	 0.259722
C	 -1.506634	 0.799189	 0.067162
H	 -2.124360	 -1.110499	 -0.826089
H	 -1.983103	 -1.158030	 0.903403
H	 -2.183808	 1.252169	 -0.644677
H	 -1.813926	 1.138698	 1.049457

	symmetry c1
}
set optking {
	frozen_dihedral = ("
		1 2 3 6
	")
}

ee = optimize('scf')
oeprop('DIPOLE', 'QUADRUPOLE', 'MULLIKEN_CHARGES')
f=open( 'psi4out.xyz', 'w' )
f.write( "16  " )
f.write( str(ee) + "\n" )
f.write( MOL.save_string_xyz() )
f.close()
--------------------------------------------------------------------------

    Molecular point group: c1
  Charge       = 0
  Multiplicity = 1
  Basis Set: CC-PVTZ
  Basis Set:
  @DF-RHF Final Energy:  -270.11421935052226
    Total Energy =                       -270.1142193505223759
    Molecular point group: c1
  Basis Set: CC-PVTZ
  Basis Set:
  Basis Set: CC-PVTZ
  Basis Set:
  @DF-RHF Final Energy:  -270.11541798315955
    Total Energy =                       -270.1154179831596593
  Basis Set: CC-PVTZ
  Basis Set:
  Basis Set: CC-PVTZ
  Basis Set:
  @DF-RHF Final Energy:  -270.11562858463844
    Total Energy =                       -270.1156285846384435
  Basis Set: CC-PVTZ
  Basis Set:
  Basis Set: CC-PVTZ
  Basis Set:
  @DF-RHF Final Energy:  -270.11563602282854
    Total Energy =                       -270.1156360228287667
  Basis Set: CC-PVTZ
  Basis Set:
  Basis Set: CC-PVTZ
  Basis Set:
  @DF-RHF Final Energy:  -270.11564095938195
    Total Energy =                       -270.1156409593821763
  Basis Set: CC-PVTZ
  Basis Set:
  Basis Set: CC-PVTZ
  Basis Set:
  @DF-RHF Final Energy:  -270.11565064422757
    Total Energy =                       -270.1156506442275713
  Basis Set: CC-PVTZ
  Basis Set:
  Basis Set: CC-PVTZ
  Basis Set:
  @DF-RHF Final Energy:  -270.11565358834696
    Total Energy =                       -270.1156535883471292
  Basis Set: CC-PVTZ
  Basis Set:
  Charge       = 0
  Multiplicity = 1
  Basis Set: CC-PVTZ
  Basis Set:

    Orbital Energies (a.u.)
    -----------------------

    Doubly Occupied:

       1A    -20.544420     2A    -11.267644     3A    -11.218106
       4A    -11.216689     5A    -11.215558     6A    -11.208434
       7A     -1.365166     8A     -1.116855     9A     -0.969693
      10A     -0.949898    11A     -0.805119    12A     -0.782615
      13A     -0.683279    14A     -0.665079    15A     -0.609822
      16A     -0.593184    17A     -0.578163    18A     -0.544779
      19A     -0.505848    20A     -0.484675    21A     -0.473611
      22A     -0.460203    23A     -0.453770    24A     -0.415997

  @DF-RHF Final Energy:  -270.11565431475947

   => Energetics <=

    Nuclear Repulsion Energy =            255.4994380879764151
    One-Electron Energy =                -872.9729712894371687
    Two-Electron Energy =                 347.3578788867010303
    DFT Exchange-Correlation Energy =       0.0000000000000000
    Empirical Dispersion Energy =           0.0000000000000000
    PCM Polarization Energy =               0.0000000000000000
    EFP Energy =                            0.0000000000000000
    Total Energy =                       -270.1156543147597517
    Molecular point group: c1
  Basis Set: CC-PVTZ
  Basis Set:

  -Total Gradient:
     Atom            X                  Y                   Z
    ------   -----------------  -----------------  -----------------
       1        0.000259142352     0.001473562231     0.000751217338
       2       -0.000462851668    -0.002067800422    -0.001325440213
       3        0.000461693984     0.001174234045     0.001453560500
       4        0.000001662832    -0.000011402010    -0.000001771830
       5       -0.000005091605    -0.000006225006     0.000001129112
       6       -0.000283840910    -0.000539457990    -0.000875329132
       7        0.000003120047    -0.000022649414     0.000004314843
       8       -0.000002480267     0.000006089096     0.000017877928
       9        0.000006129871    -0.000011560707     0.000000140370
      10       -0.000001792673    -0.000022612500    -0.000001977745
      11        0.000000695994     0.000015704271    -0.000024903006
      12        0.000011747816     0.000012617827     0.000001751902
      13        0.000025469700     0.000011863194    -0.000023827945
      14       -0.000026628016    -0.000016623900    -0.000016267063
      15       -0.000016240465     0.000020105867     0.000025954346
      16        0.000029263011    -0.000015844581     0.000013570596

  **** Optimization is complete! (in 8 steps) ****
    Final optimized geometry and variables:
    Molecular point group: c1

    Geometry (in Angstrom), charge = 0, multiplicity = 1:

    H            2.206596630985     0.356429976205    -0.880139948524
    O            2.093492517196    -0.051344717571    -0.041139855700
    C            0.747032654696    -0.007313179782     0.339035524855
    H            0.744613823081     0.015432499244     1.423869759444
    C           -0.079082494983    -1.197919340261    -0.142037229305
    C           -0.040953022149     1.185537739874    -0.191288557395
    H            0.141328679166    -1.363686480838    -1.192544714071
    H            0.160647137552    -2.112251733765     0.384753761693
    C           -1.538288823806    -0.751227137834     0.043125356427
    H            0.144392966365     1.277025769404    -1.260199486784
    H            0.244028691434     2.122629640844     0.270035282205
    C           -1.504140305676     0.802081062660     0.062127166350
    H           -2.173434550806    -1.131443565902    -0.745945324005
    H           -1.941252332119    -1.129055818123     0.974489706502
    H           -2.169260678092     1.237163213477    -0.671837576940
    H           -1.822770900684     1.171627829892     1.029229273621

  Mulliken Charges: (a.u.)
   Center  Symbol    Alpha    Beta     Spin     Total
       1     H     0.39344  0.39344  0.00000  0.21311
       2     O     4.20831  4.20831  0.00000 -0.41662
       3     C     2.93058  2.93058  0.00000  0.13885
       4     H     0.44739  0.44739  0.00000  0.10522
       5     C     3.09642  3.09642  0.00000 -0.19284
       6     C     3.10857  3.10857  0.00000 -0.21713
       7     H     0.45998  0.45998  0.00000  0.08004
       8     H     0.44374  0.44374  0.00000  0.11251
       9     C     3.11373  3.11373  0.00000 -0.22746
      10     H     0.46188  0.46188  0.00000  0.07623
      11     H     0.44172  0.44172  0.00000  0.11655
      12     C     3.11055  3.11055  0.00000 -0.22110
      13     H     0.44476  0.44476  0.00000  0.11047
      14     H     0.44764  0.44764  0.00000  0.10471
      15     H     0.44361  0.44361  0.00000  0.11278
      16     H     0.44767  0.44767  0.00000  0.10466

   Total alpha = 24.00000, Total beta = 24.00000, Total charge = -0.00000
