                              Psi4 1.0.54 Driver

  ==> Input File <==

--------------------------------------------------------------------------
set {
	reference rhf
	basis cc-pvtz
}

set_num_threads( 4 )
memory 2 gb

molecule MOL {
0 1

H	 -0.566068	 -1.666549	 -1.942521
C	 -0.781932	 -0.604205	 -1.992245
O	 -0.775228	 0.000056	 -0.739966
H	 -1.778777	 -0.482102	 -2.391673
H	 -0.083178	 -0.140818	 -2.681192
C	 0.406133	 -0.000384	 0.036994
C	 1.526415	 -0.003194	 -0.997339
C	 0.498772	 1.259027	 0.900673
C	 0.495883	 -1.257378	 0.904465
H	 1.452279	 0.872071	 -1.630204
H	 1.451276	 -0.881020	 -1.626529
H	 2.497919	 -0.002741	 -0.517601
H	 0.368981	 2.144239	 0.289753
H	 1.470064	 1.313479	 1.377660
H	 -0.248448	 1.271586	 1.684297
H	 0.363971	 -2.144195	 0.296316
H	 1.467114	 -1.312636	 1.381470
H	 -0.251246	 -1.265768	 1.688235

	symmetry c1
}
set optking {
	frozen_dihedral = ("
		2 3 6 7
	")
}

ee,wfn = optimize('scf', return_wfn=True)
oeprop( wfn, 'DIPOLE', 'QUADRUPOLE', 'MULLIKEN_CHARGES')
f=open( 'psi4out.xyz', 'w' )
f.write( "18  " )
f.write( str(ee) + "\n" )
f.write( MOL.save_string_xyz() )
f.close()
--------------------------------------------------------------------------

    Molecular point group: c1
  Charge       = 0
  Multiplicity = 1
  Basis Set: CC-PVTZ
  Basis Set:
  @DF-RHF Final Energy:  -271.26336657154701
    Total Energy =                       -271.2633665715469533
    Molecular point group: c1
  Basis Set: CC-PVTZ
  Basis Set:
  Basis Set: CC-PVTZ
  Basis Set:
  @DF-RHF Final Energy:  -271.13887961228340
    Total Energy =                       -271.1388796122834037
  Basis Set: CC-PVTZ
  Basis Set:
  Basis Set: CC-PVTZ
  Basis Set:
  @DF-RHF Final Energy:  -271.23858616567821
    Total Energy =                       -271.2385861656782708
  Basis Set: CC-PVTZ
  Basis Set:
  Basis Set: CC-PVTZ
  Basis Set:
  @DF-RHF Final Energy:  -271.27165786638324
    Total Energy =                       -271.2716578663835207
  Basis Set: CC-PVTZ
  Basis Set:
  @DF-RHF Final Energy:  -271.16951836324620
    Total Energy =                       -271.1695183632463113
  @DF-RHF Final Energy:  -271.26537965481458
    Total Energy =                       -271.2653796548148080
  @DF-RHF Final Energy:  -271.27474463958026
    Total Energy =                       -271.2747446395802626
  @DF-RHF Final Energy:  -271.27478002846328
    Total Energy =                       -271.2747800284629989
  Basis Set: CC-PVTZ
  Basis Set:
  @DF-RHF Final Energy:  -271.27492332537139
    Total Energy =                       -271.2749233253717875
  Basis Set: CC-PVTZ
  Basis Set:
  Basis Set: CC-PVTZ
  Basis Set:
  @DF-RHF Final Energy:  -271.27493215939427
    Total Energy =                       -271.2749321593943250
  Basis Set: CC-PVTZ
  Basis Set:
  Basis Set: CC-PVTZ
  Basis Set:
  @DF-RHF Final Energy:  -271.27493718582684
    Total Energy =                       -271.2749371858269569
  Basis Set: CC-PVTZ
  Basis Set:
  Charge       = 0
  Multiplicity = 1
  Basis Set: CC-PVTZ
  Basis Set:

    Orbital Energies (a.u.)
    -----------------------

    Doubly Occupied:

       1A    -20.539015     2A    -11.280398     3A    -11.259127
       4A    -11.210592     5A    -11.203571     6A    -11.202238
       7A     -1.371837     8A     -1.075046     9A     -0.950670
      10A     -0.936914    11A     -0.912832    12A     -0.752824
      13A     -0.657573    14A     -0.647749    15A     -0.639546
      16A     -0.587743    17A     -0.575793    18A     -0.551936
      19A     -0.537216    20A     -0.526697    21A     -0.515469
      22A     -0.491429    23A     -0.485889    24A     -0.443263
      25A     -0.402201

  @DF-RHF Final Energy:  -271.27493724839047

   => Energetics <=

    Nuclear Repulsion Energy =            272.4938772006940439
    One-Electron Energy =                -908.0224946142712952
    Two-Electron Energy =                 364.2536801651866654
    DFT Exchange-Correlation Energy =       0.0000000000000000
    Empirical Dispersion Energy =           0.0000000000000000
    PCM Polarization Energy =               0.0000000000000000
    EFP Energy =                            0.0000000000000000
    Total Energy =                       -271.2749372483905290
    Molecular point group: c1
  Basis Set: CC-PVTZ
  Basis Set:

  -Total Gradient:
     Atom            X                  Y                   Z
    ------   -----------------  -----------------  -----------------
       1       -0.000004673282    -0.000000563771     0.000003123815
       2        0.002151967439     0.002271321905     0.000567103907
       3       -0.003481003828    -0.004438537252    -0.001281753580
       4       -0.000004943646     0.000004005359    -0.000002855320
       5        0.000009677722     0.000003281568     0.000003123495
       6        0.001964581547     0.004585859926     0.001746569240
       7       -0.000635093459    -0.002413655394    -0.001043202697
       8        0.000016664330    -0.000023294586    -0.000014396465
       9       -0.000005777054     0.000000154696     0.000014428238
      10        0.000007742972     0.000006047094    -0.000020513397
      11       -0.000002820377    -0.000004906687     0.000009294242
      12       -0.000008199314     0.000006972597     0.000001044756
      13        0.000015570909     0.000031819368    -0.000001793581
      14        0.000014416828    -0.000012820775     0.000038063899
      15       -0.000023736575    -0.000005912018    -0.000009309666
      16        0.000007759511     0.000004229876    -0.000008086067
      17       -0.000006092626    -0.000000400745     0.000016461584
      18       -0.000016041099    -0.000013601160    -0.000017302400

  **** Optimization is complete! (in 12 steps) ****
    Final optimized geometry and variables:
    Molecular point group: c1

    Geometry (in Angstrom), charge = 0, multiplicity = 1:

    H            0.241529593604    -0.832828176693    -2.210537653069
    C            0.295046585662     0.230680950132    -1.992156528904
    O           -0.377514296200     0.571161924022    -0.824659641798
    H           -0.191992054611     0.762305736143    -2.797439689053
    H            1.338233074183     0.526413323246    -1.971281998814
    C           -0.049555504022    -0.050015669991     0.406625620599
    C            1.416652353159    -0.475059918071     0.495437018808
    C           -0.361515427501     0.994520735272     1.471323948753
    C           -0.954525966110    -1.271943761479     0.577790063627
    H            2.081070534150     0.365448625969     0.333499098621
    H            1.661655715962    -1.249662943448    -0.219494949936
    H            1.614519626532    -0.868312939950     1.484810537265
    H            0.285642810921     1.855397979217     1.356533898263
    H           -0.224579052361     0.588419438344     2.466956352760
    H           -1.386503173690     1.328442893740     1.372886135672
    H           -0.774173473466    -1.999637657259    -0.205224241397
    H           -0.780725606597    -1.757896601758     1.531277789540
    H           -1.994229870036    -0.974308928577     0.527073368862

  Mulliken Charges: (a.u.)
   Center  Symbol    Alpha    Beta     Spin     Total
       1     H     0.47044  0.47044  0.00000  0.05912
       2     C     3.04294  3.04294  0.00000 -0.08587
       3     O     4.19530  4.19530  0.00000 -0.39060
       4     H     0.44230  0.44230  0.00000  0.11541
       5     H     0.46701  0.46701  0.00000  0.06598
       6     C     2.87347  2.87347  0.00000  0.25306
       7     C     3.17429  3.17429  0.00000 -0.34858
       8     C     3.14073  3.14073  0.00000 -0.28146
       9     C     3.14885  3.14885  0.00000 -0.29771
      10     H     0.44527  0.44527  0.00000  0.10946
      11     H     0.44479  0.44479  0.00000  0.11042
      12     H     0.44385  0.44385  0.00000  0.11229
      13     H     0.45139  0.45139  0.00000  0.09723
      14     H     0.45912  0.45912  0.00000  0.08176
      15     H     0.44735  0.44735  0.00000  0.10529
      16     H     0.45059  0.45059  0.00000  0.09882
      17     H     0.45414  0.45414  0.00000  0.09172
      18     H     0.44817  0.44817  0.00000  0.10366

   Total alpha = 25.00000, Total beta = 25.00000, Total charge = -0.00000

*** Psi4 exiting successfully. Buy a developer a beer!
