  ==> Input File <==

--------------------------------------------------------------------------
set {
	reference rhf
	basis 6-31G*
}

set_num_threads( 4 )
memory 2 gb

molecule MOL {
0 1

H	 -1.836216	 1.387520	 -0.000064
C	 -1.301823	 0.443321	 -0.000031
O	 -0.003969	 0.658512	 0.000451
O	 -1.829879	 -0.616434	 -0.000857
C	 0.850537	 -0.484732	 0.000380
C	 2.256440	 -0.000700	 0.282283
H	 0.779104	 -0.973241	 -0.961688
H	 0.505417	 -1.178508	 0.754609
H	 2.582329	 0.699157	 -0.478658
H	 2.940783	 -0.842625	 0.290563
H	 2.307484	 0.492931	 1.245928

	symmetry c1
}
set optking {
	frozen_dihedral = ("
		7 5 3 2
	")
}

ee = optimize('scf')
oeprop('DIPOLE', 'QUADRUPOLE', 'MULLIKEN_CHARGES')
f=open( 'psi4out.xyz', 'w' )
f.write( "11  " )
f.write( str(ee) + "\n" )
f.write( MOL.save_string_xyz() )
f.close()
--------------------------------------------------------------------------

    Molecular point group: c1
  Charge       = 0
  Multiplicity = 1
  Basis Set: 6-31G*
  Basis Set:
  @DF-RHF Final Energy:  -266.82877598100686
    Total Energy =                       -266.8287759810067996
    Molecular point group: c1
  Basis Set: 6-31G*
  Basis Set:
  Basis Set: 6-31G*
  Basis Set:
  @DF-RHF Final Energy:  -266.82879343310935
    Total Energy =                       -266.8287934331093538
  Basis Set: 6-31G*
  Basis Set:
  Basis Set: 6-31G*
  Basis Set:
  @DF-RHF Final Energy:  -266.82874527443732
    Total Energy =                       -266.8287452744372104
  Basis Set: 6-31G*
  Basis Set:
  Basis Set: 6-31G*
  Basis Set:
  @DF-RHF Final Energy:  -266.82880104877211
    Total Energy =                       -266.8288010487721635
  Basis Set: 6-31G*
  Basis Set:
  Charge       = 0
  Multiplicity = 1
  Basis Set: 6-31G*
  Basis Set:

    Orbital Energies (a.u.)
    -----------------------

    Doubly Occupied:

       1A    -20.612907     2A    -20.556957     3A    -11.378466
       4A    -11.291824     5A    -11.226733     6A     -1.476211
       7A     -1.374022     8A     -1.052800     9A     -0.902705
      10A     -0.805273    11A     -0.737937    12A     -0.690187
      13A     -0.677667    14A     -0.591676    15A     -0.575634
      16A     -0.556950    17A     -0.519927    18A     -0.512826
      19A     -0.460115    20A     -0.454200

  @DF-RHF Final Energy:  -266.82880640806871

   => Energetics <=

    Nuclear Repulsion Energy =            179.2874448596890602
    One-Electron Energy =                -719.3224728985147749
    Two-Electron Energy =                 273.2062216307571134
    DFT Exchange-Correlation Energy =       0.0000000000000000
    Empirical Dispersion Energy =           0.0000000000000000
    PCM Polarization Energy =               0.0000000000000000
    EFP Energy =                            0.0000000000000000
    Total Energy =                       -266.8288064080685444
    Molecular point group: c1
  Basis Set: 6-31G*
  Basis Set:

  -Total Gradient:
     Atom            X                  Y                   Z
    ------   -----------------  -----------------  -----------------
       1        0.000001316014     0.000014560861    -0.000007226599
       2       -0.000079920632     0.000048840827     0.000909857854
       3        0.000160147133     0.000007598414    -0.001265331377
       4        0.000089246824     0.000020807195    -0.000020542519
       5       -0.000913951260    -0.000757906660     0.000819785692
       6       -0.000028404576     0.000009365080    -0.000020769108
       7        0.000763063497     0.000505955300    -0.000454380977
       8        0.000001547704     0.000150212418    -0.000013927898
       9       -0.000012235036    -0.000025184602     0.000020006044
      10       -0.000000173920     0.000002578586    -0.000000478767
      11        0.000019364250     0.000023172580     0.000033007654

  **** Optimization is complete! (in 5 steps) ****
    Final optimized geometry and variables:
    Molecular point group: c1

    Geometry (in Angstrom), charge = 0, multiplicity = 1:

    H           -1.827591370082     1.394472942286    -0.044199452079
    C           -1.297433440884     0.448006311975    -0.057955056737
    O            0.001353559909     0.658232928733    -0.051527570271
    O           -1.830537388177    -0.609024036409    -0.076961732361
    C            0.856552293091    -0.484650685399    -0.044136898969
    C            2.263527070420     0.003698779857     0.227361486337
    H            0.787602544945    -0.973532787029    -1.007156077468
    H            0.516309648849    -1.175082064831     0.713557516675
    H            2.581408969567     0.705243544563    -0.535214359938
    H            2.950625982128    -0.836125286025     0.229357968828
    H            2.320186233443     0.496320358321     1.191310038631

  Mulliken Charges: (a.u.)
   Center  Symbol    Alpha    Beta     Spin     Total
       1     H     0.41042  0.41042  0.00000  0.17917
       2     C     2.72758  2.72758  0.00000  0.54484
       3     O     4.29125  4.29125  0.00000 -0.58250
       4     O     4.26316  4.26316  0.00000 -0.52633
       5     C     3.00680  3.00680  0.00000 -0.01360
       6     C     3.24924  3.24924  0.00000 -0.49849
       7     H     0.41019  0.41019  0.00000  0.17961
       8     H     0.40519  0.40519  0.00000  0.18962
       9     H     0.41023  0.41023  0.00000  0.17955
      10     H     0.41515  0.41515  0.00000  0.16970
      11     H     0.41079  0.41079  0.00000  0.17843

   Total alpha = 20.00000, Total beta = 20.00000, Total charge =  0.00000
