  ==> Input File <==

--------------------------------------------------------------------------
set {
	reference rhf
	basis cc-pvtz
}

set_num_threads( 4 )
memory 2 gb

molecule MOL {
0 1

H	 -0.216830	 1.920715	 0.492836
O	 0.057669	 1.301365	 -0.158528
C	 0.004145	 -0.005141	 0.363049
C	 1.199168	 -0.827145	 -0.096690
C	 -1.316386	 -0.602081	 -0.083515
H	 0.012026	 0.043363	 1.450619
H	 1.216685	 -0.896776	 -1.178167
H	 2.129940	 -0.372354	 0.228035
H	 1.160783	 -1.829622	 0.314294
H	 -1.357882	 -0.655920	 -1.165207
H	 -2.140147	 0.011735	 0.257253
H	 -1.440790	 -1.601175	 0.317669

	symmetry c1
}
set optking {
	frozen_dihedral = ("
		1 2 3 4
	")
}

ee = optimize('scf')
oeprop('DIPOLE', 'QUADRUPOLE', 'MULLIKEN_CHARGES')
f=open( 'psi4out.xyz', 'w' )
f.write( "12  " )
f.write( str(ee) + "\n" )
f.write( MOL.save_string_xyz() )
f.close()
--------------------------------------------------------------------------

    Molecular point group: c1
  Charge       = 0
  Multiplicity = 1
  Basis Set: CC-PVTZ
  Basis Set:
  @DF-RHF Final Energy:  -193.19353983142992
    Total Energy =                       -193.1935398314298595
    Molecular point group: c1
  Basis Set: CC-PVTZ
  Basis Set:
  Basis Set: CC-PVTZ
  Basis Set:
  @DF-RHF Final Energy:  -193.19451125328354
    Total Energy =                       -193.1945112532835935
  Basis Set: CC-PVTZ
  Basis Set:
  Basis Set: CC-PVTZ
  Basis Set:
  @DF-RHF Final Energy:  -193.19468673443674
    Total Energy =                       -193.1946867344369423
  Basis Set: CC-PVTZ
  Basis Set:
  Basis Set: CC-PVTZ
  Basis Set:
  @DF-RHF Final Energy:  -193.19468916709357
    Total Energy =                       -193.1946891670934860
  Basis Set: CC-PVTZ
  Basis Set:
  Charge       = 0
  Multiplicity = 1
  Basis Set: CC-PVTZ
  Basis Set:

    Orbital Energies (a.u.)
    -----------------------

    Doubly Occupied:

       1A    -20.543166     2A    -11.274577     3A    -11.206185
       4A    -11.204781     5A     -1.363112     6A     -1.042724
       7A     -0.937105     8A     -0.800228     9A     -0.713180
      10A     -0.612227    11A     -0.601098    12A     -0.556305
      13A     -0.538719    14A     -0.525916    15A     -0.507560
      16A     -0.465111    17A     -0.432970

  @DF-RHF Final Energy:  -193.19468958218815

   => Energetics <=

    Nuclear Repulsion Energy =            135.5186238442074966
    One-Electron Energy =                -530.7766983847805022
    Two-Electron Energy =                 202.0633849583848303
    DFT Exchange-Correlation Energy =       0.0000000000000000
    Empirical Dispersion Energy =           0.0000000000000000
    PCM Polarization Energy =               0.0000000000000000
    EFP Energy =                            0.0000000000000000
    Total Energy =                       -193.1946895821882038
    Molecular point group: c1
  Basis Set: CC-PVTZ
  Basis Set:

  -Total Gradient:
     Atom            X                  Y                   Z
    ------   -----------------  -----------------  -----------------
       1        0.001492302489     0.000075132391     0.000549279786
       2       -0.001679529577    -0.000018050352    -0.000421161590
       3       -0.000304667774    -0.000300524842    -0.000941632977
       4        0.000465843180     0.000255371744     0.000812338874
       5        0.000011908981    -0.000005699344    -0.000000532637
       6        0.000000538390    -0.000018698053    -0.000001774401
       7       -0.000008487913     0.000001277791    -0.000008235001
       8       -0.000006995073     0.000009593952     0.000007639711
       9        0.000003507331     0.000001006626    -0.000007563414
      10        0.000005518100     0.000010418285     0.000004043822
      11        0.000020146272    -0.000002239672    -0.000001397779
      12       -0.000000084406    -0.000007588527     0.000008995608

  **** Optimization is complete! (in 5 steps) ****
    Final optimized geometry and variables:
    Molecular point group: c1

    Geometry (in Angstrom), charge = 0, multiplicity = 1:

    H           -0.141245810666     1.934433625943     0.461829428494
    O            0.126022978991     1.295682219090    -0.171173082821
    C           -0.001127541304    -0.007264835650     0.356734007610
    C            1.201439094629    -0.812827680869    -0.100493261231
    C           -1.319983070586    -0.623160180082    -0.083493743678
    H            0.014442652035     0.043728892500     1.442973057008
    H            1.237298592408    -0.849030037154    -1.183375072236
    H            2.117171757836    -0.355997343180     0.252381399670
    H            1.152838082712    -1.828491910072     0.275477687922
    H           -1.364190537296    -0.678488749671    -1.164965789852
    H           -2.155022275044    -0.021431468145     0.256625540256
    H           -1.436460336845    -1.623577474883     0.318825823565

  Mulliken Charges: (a.u.)
   Center  Symbol    Alpha    Beta     Spin     Total
       1     H     0.39185  0.39185  0.00000  0.21631
       2     O     4.21004  4.21004  0.00000 -0.42008
       3     C     2.92576  2.92576  0.00000  0.14847
       4     C     3.13817  3.13817  0.00000 -0.27634
       5     C     3.13797  3.13797  0.00000 -0.27594
       6     H     0.46770  0.46770  0.00000  0.06460
       7     H     0.45217  0.45217  0.00000  0.09566
       8     H     0.45004  0.45004  0.00000  0.09992
       9     H     0.45950  0.45950  0.00000  0.08100
      10     H     0.45243  0.45243  0.00000  0.09514
      11     H     0.45544  0.45544  0.00000  0.08912
      12     H     0.45893  0.45893  0.00000  0.08215

   Total alpha = 17.00000, Total beta = 17.00000, Total charge = -0.00000
