  ==> Input File <==

--------------------------------------------------------------------------
set {
	reference rhf
	basis 6-31G*
}

set_num_threads( 4 )
memory 2 gb

molecule MOL {
0 1

H	 -2.798360	 -0.862255	 -0.071053
N	 -1.863561	 -0.715187	 0.256814
C	 -1.344686	 0.554728	 -0.219830
H	 -1.300452	 -1.461917	 -0.101532
C	 0.081427	 0.741154	 0.254071
H	 -1.362155	 0.656231	 -1.305829
H	 -1.952773	 1.354456	 0.191809
O	 0.828398	 -0.368359	 -0.155930
H	 0.502633	 1.652983	 -0.168767
H	 0.098173	 0.827501	 1.338275
C	 2.147450	 -0.368679	 0.288674
H	 2.620462	 -1.265285	 -0.088227
H	 2.692359	 0.498031	 -0.081286
H	 2.200699	 -0.371694	 1.375396

	symmetry c1
}
set optking {
	frozen_dihedral = ("
		8 5 3 6
	")
}

ee = optimize('scf')
oeprop('DIPOLE', 'QUADRUPOLE', 'MULLIKEN_CHARGES')
f=open( 'psi4out.xyz', 'w' )
f.write( "14  " )
f.write( str(ee) + "\n" )
f.write( MOL.save_string_xyz() )
f.close()
--------------------------------------------------------------------------

    Molecular point group: c1
  Charge       = 0
  Multiplicity = 1
  Basis Set: 6-31G*
  Basis Set:
  @DF-RHF Final Energy:  -248.12454951538203
    Total Energy =                       -248.1245495153821707
    Molecular point group: c1
  Basis Set: 6-31G*
  Basis Set:
  Basis Set: 6-31G*
  Basis Set:
  @DF-RHF Final Energy:  -248.12466695679964
    Total Energy =                       -248.1246669567995013
  Basis Set: 6-31G*
  Basis Set:
  Basis Set: 6-31G*
  Basis Set:
  @DF-RHF Final Energy:  -248.12470000657351
    Total Energy =                       -248.1247000065735620
  Basis Set: 6-31G*
  Basis Set:
  Charge       = 0
  Multiplicity = 1
  Basis Set: 6-31G*
  Basis Set:

    Orbital Energies (a.u.)
    -----------------------

    Doubly Occupied:

       1A    -20.557485     2A    -15.527572     3A    -11.266317
       4A    -11.266232     5A    -11.240997     6A     -1.381778
       7A     -1.173151     8A     -0.998784     9A     -0.908255
      10A     -0.814264    11A     -0.684016    12A     -0.674598
      13A     -0.645490    14A     -0.609415    15A     -0.605752
      16A     -0.541295    17A     -0.529688    18A     -0.495832
      19A     -0.473007    20A     -0.417710    21A     -0.378697

  @DF-RHF Final Energy:  -248.12470065959002

   => Energetics <=

    Nuclear Repulsion Energy =            194.9631786455665861
    One-Electron Energy =                -723.7950868613838793
    Two-Electron Energy =                 280.7072075562272744
    DFT Exchange-Correlation Energy =       0.0000000000000000
    Empirical Dispersion Energy =           0.0000000000000000
    PCM Polarization Energy =               0.0000000000000000
    EFP Energy =                            0.0000000000000000
    Total Energy =                       -248.1247006595900189
    Molecular point group: c1
  Basis Set: 6-31G*
  Basis Set:

  -Total Gradient:
     Atom            X                  Y                   Z
    ------   -----------------  -----------------  -----------------
       1       -0.000020115986    -0.000018580208     0.000000076926
       2       -0.000058499964     0.000020334455     0.000007886663
       3        0.000602043019    -0.004547380222     0.000214887711
       4        0.000006389141     0.000055334732    -0.000018483091
       5        0.000612790761     0.002427910794    -0.002846118102
       6       -0.000585384707     0.003334542380     0.000368225050
       7       -0.000037544077    -0.000015694172     0.000007024661
       8       -0.000596242859    -0.001217108764     0.002269002218
       9        0.000041886264    -0.000027083400    -0.000004895067
      10        0.000014570829    -0.000010787332    -0.000002909551
      11        0.000000101192     0.000005286085    -0.000001318274
      12        0.000007669212    -0.000001099476     0.000002182155
      13        0.000005303430    -0.000005412471     0.000002119345
      14        0.000007033744    -0.000000262403     0.000002319355

  **** Optimization is complete! (in 4 steps) ****
    Final optimized geometry and variables:
    Molecular point group: c1

    Geometry (in Angstrom), charge = 0, multiplicity = 1:

    H           -2.793875456692    -0.799991514010    -0.154409971240
    N           -1.862100851554    -0.656930762591     0.182909756139
    C           -1.323490892444     0.596391684097    -0.307289063921
    H           -1.300035499253    -1.417251509085    -0.145397787265
    C            0.102016695956     0.781033682861     0.174490555434
    H           -1.346690224837     0.708837352714    -1.392839252327
    H           -1.919484271921     1.409667496149     0.097492191371
    O            0.859045267327    -0.318289384018    -0.241917357855
    H            0.518743850333     1.704016800523    -0.227311952602
    H            0.113295826217     0.846448938350     1.260595477808
    C            2.176304156980    -0.311662691704     0.207747747264
    H            2.656472889548    -1.203931405480    -0.170243185050
    H            2.717017050907     0.559802700817    -0.156977491130
    H            2.224568754254    -0.318342832944     1.294676029304

  Mulliken Charges: (a.u.)
   Center  Symbol    Alpha    Beta     Spin     Total
       1     H     0.33289  0.33289  0.00000  0.33423
       2     N     3.92464  3.92464  0.00000 -0.84927
       3     C     3.06968  3.06968  0.00000 -0.13935
       4     H     0.32199  0.32199  0.00000  0.35602
       5     C     2.98785  2.98785  0.00000  0.02431
       6     H     0.42862  0.42862  0.00000  0.14276
       7     H     0.42088  0.42088  0.00000  0.15823
       8     O     4.30975  4.30975  0.00000 -0.61949
       9     H     0.43100  0.43100  0.00000  0.13800
      10     H     0.42411  0.42411  0.00000  0.15178
      11     C     3.07891  3.07891  0.00000 -0.15782
      12     H     0.41244  0.41244  0.00000  0.17511
      13     H     0.42995  0.42995  0.00000  0.14009
      14     H     0.42729  0.42729  0.00000  0.14541

   Total alpha = 21.00000, Total beta = 21.00000, Total charge = -0.00000
