  ==> Input File <==

--------------------------------------------------------------------------
set {
	reference rhf
	basis 6-31G*
}

set_num_threads( 1 )
memory 2 gb

molecule MOL {
0 1

H	 2.067447	 1.295881	 -0.945191
O	 1.189185	 0.931024	 -0.993378
C	 1.050492	 0.053836	 0.000068
C	 -0.318135	 -0.576402	 0.000164
O	 1.926134	 -0.173312	 0.769906
C	 -1.454360	 0.441875	 -0.000474
H	 -0.374042	 -1.230163	 -0.866135
H	 -0.374274	 -1.229227	 0.867154
C	 -2.826123	 -0.230780	 0.000056
H	 -1.357605	 1.085198	 -0.868380
H	 -1.357504	 1.086451	 0.866496
H	 -2.959731	 -0.858053	 -0.876869
H	 -3.619374	 0.509403	 -0.000080
H	 -2.959371	 -0.857318	 0.877556

	symmetry c1
}
set optking {
	frozen_dihedral = ("
		7 4 6 10,
		1 2 3 5
	")
}

ee = energy('scf')
oeprop('DIPOLE', 'QUADRUPOLE', 'MULLIKEN_CHARGES')
f=open( 'psi4out.xyz', 'w' )
f.write( "14  " )
f.write( str(ee) + "\n" )
f.write( MOL.save_string_xyz() )
f.close()
--------------------------------------------------------------------------

    Molecular point group: c1

    Geometry (in Angstrom), charge = 0, multiplicity = 1:

       Center              X                  Y                   Z               Mass
    ------------   -----------------  -----------------  -----------------  -----------------
           H          2.110242719063     1.202953288832    -0.893750116943     1.007825032070
           O          1.231980719063     0.838096288832    -0.941937116943    15.994914619560
           C          1.093287719063    -0.039091711168     0.051508883057    12.000000000000
           C         -0.275339280937    -0.669329711168     0.051604883057    12.000000000000
           O          1.968929719063    -0.266239711168     0.821346883057    15.994914619560
           C         -1.411564280937     0.348947288832     0.050966883057    12.000000000000
           H         -0.331246280937    -1.323090711168    -0.814694116943     1.007825032070
           H         -0.331478280937    -1.322154711168     0.918594883057     1.007825032070
           C         -2.783327280937    -0.323707711168     0.051496883057    12.000000000000
           H         -1.314809280937     0.992270288832    -0.816939116943     1.007825032070
           H         -1.314708280937     0.993523288832     0.917936883057     1.007825032070
           H         -2.916935280937    -0.950980711168    -0.825428116943     1.007825032070
           H         -3.576578280937     0.416475288832     0.051360883057     1.007825032070
           H         -2.916575280937    -0.950245711168     0.928996883057     1.007825032070

  Charge       = 0
  Multiplicity = 1
  Basis Set: 6-31G*
  Basis Set:

    Orbital Energies (a.u.)
    -----------------------

    Doubly Occupied:

       1A    -20.613668     2A    -20.550792     3A    -11.380810
       4A    -11.239922     5A    -11.232697     6A    -11.220527
       7A     -1.475005     8A     -1.365315     9A     -1.087116
      10A     -0.979105    11A     -0.848727    12A     -0.814972
      13A     -0.701286    14A     -0.684522    15A     -0.650069
      16A     -0.626783    17A     -0.592757    18A     -0.566224
      19A     -0.549386    20A     -0.521405    21A     -0.500923
      22A     -0.485573    23A     -0.474551    24A     -0.437711

  @DF-RHF Final Energy:  -305.87902824585501

   => Energetics <=

    Nuclear Repulsion Energy =            240.7743966658414365
    One-Electron Energy =                -894.1071254867822518
    Two-Electron Energy =                 347.4537005750859180
    DFT Exchange-Correlation Energy =       0.0000000000000000
    Empirical Dispersion Energy =           0.0000000000000000
    PCM Polarization Energy =               0.0000000000000000
    EFP Energy =                            0.0000000000000000
    Total Energy =                       -305.8790282458548972

  Mulliken Charges: (a.u.)
   Center  Symbol    Alpha    Beta     Spin     Total
       1     H     0.26750  0.26750  0.00000  0.46500
       2     O     4.34689  4.34689  0.00000 -0.69377
       3     C     2.62959  2.62959  0.00000  0.74083
       4     C     3.20240  3.20240  0.00000 -0.40480
       5     O     4.27917  4.27917  0.00000 -0.55835
       6     C     3.16275  3.16275  0.00000 -0.32549
       7     H     0.40163  0.40163  0.00000  0.19673
       8     H     0.39769  0.39769  0.00000  0.20461
       9     C     3.24207  3.24207  0.00000 -0.48414
      10     H     0.40446  0.40446  0.00000  0.19107
      11     H     0.41379  0.41379  0.00000  0.17241
      12     H     0.41898  0.41898  0.00000  0.16205
      13     H     0.41460  0.41460  0.00000  0.17080
      14     H     0.41848  0.41848  0.00000  0.16304

   Total alpha = 24.00000, Total beta = 24.00000, Total charge =  0.00000
