  ==> Input File <==

--------------------------------------------------------------------------
set {
	reference rhf
	basis 6-31G*
}

set_num_threads( 1 )
memory 2 gb

molecule MOL {
0 1

H	 3.462098	 1.063521	 0.488894
O	 2.545597	 0.932427	 0.711595
C	 2.077727	 -0.067559	 -0.035091
C	 0.624473	 -0.343591	 0.253101
O	 2.759781	 -0.642494	 -0.819481
C	 -0.265902	 0.883932	 0.072916
H	 0.324016	 -1.163849	 -0.390541
H	 0.565024	 -0.726111	 1.268924
C	 -1.728698	 0.646073	 0.462102
H	 -0.209144	 1.219470	 -0.958188
H	 0.135059	 1.692851	 0.673903
C	 -2.482460	 -0.343073	 -0.431425
H	 -2.245265	 1.602650	 0.432430
H	 -1.779332	 0.308348	 1.496285
C	 -3.960546	 -0.461025	 -0.060175
H	 -2.395034	 -0.026811	 -1.468912
H	 -2.024850	 -1.327147	 -0.371646
H	 -4.472726	 -1.168004	 -0.705284
H	 -4.465146	 0.496508	 -0.151489
H	 -4.081218	 -0.800940	 0.964585

	symmetry c1
}
set optking {
	frozen_dihedral = ("
		16 12 9 6,
		7 4 6 10,
		12 9 6 10,
		1 2 3 5
	")
}

ee = energy('scf')
oeprop('DIPOLE', 'QUADRUPOLE', 'MULLIKEN_CHARGES')
f=open( 'psi4out.xyz', 'w' )
f.write( "20  " )
f.write( str(ee) + "\n" )
f.write( MOL.save_string_xyz() )
f.close()
--------------------------------------------------------------------------

    Molecular point group: c1

    Geometry (in Angstrom), charge = 0, multiplicity = 1:

       Center              X                  Y                   Z               Mass
    ------------   -----------------  -----------------  -----------------  -----------------
           H          3.473183161755     0.980872185201     0.465630812636     1.007825032070
           O          2.556682161755     0.849778185201     0.688331812636    15.994914619560
           C          2.088812161755    -0.150207814799    -0.058354187364    12.000000000000
           C          0.635558161755    -0.426239814799     0.229837812636    12.000000000000
           O          2.770866161755    -0.725142814799    -0.842744187364    15.994914619560
           C         -0.254816838245     0.801283185201     0.049652812636    12.000000000000
           H          0.335101161755    -1.246497814799    -0.413804187364     1.007825032070
           H          0.576109161755    -0.808759814799     1.245660812636     1.007825032070
           C         -1.717612838245     0.563424185201     0.438838812636    12.000000000000
           H         -0.198058838245     1.136821185201    -0.981451187364     1.007825032070
           H          0.146144161755     1.610202185201     0.650639812636     1.007825032070
           C         -2.471374838245    -0.425721814799    -0.454688187364    12.000000000000
           H         -2.234179838245     1.520001185201     0.409166812636     1.007825032070
           H         -1.768246838245     0.225699185201     1.473021812636     1.007825032070
           C         -3.949460838245    -0.543673814799    -0.083438187364    12.000000000000
           H         -2.383948838245    -0.109459814799    -1.492175187364     1.007825032070
           H         -2.013764838245    -1.409795814799    -0.394909187364     1.007825032070
           H         -4.461640838245    -1.250652814799    -0.728547187364     1.007825032070
           H         -4.454060838245     0.413859185201    -0.174752187364     1.007825032070
           H         -4.070132838245    -0.883588814799     0.941321812636     1.007825032070

  Charge       = 0
  Multiplicity = 1
  Basis Set: 6-31G*
  Basis Set:

    Orbital Energies (a.u.)
    -----------------------

    Doubly Occupied:

       1A    -20.612828     2A    -20.550307     3A    -11.380123
       4A    -11.238578     5A    -11.230147     6A    -11.223804
       7A    -11.221460     8A    -11.213365     9A     -1.474269
      10A     -1.364615    11A     -1.099586    12A     -1.042446
      13A     -0.960290    14A     -0.863672    15A     -0.824061
      16A     -0.790648    17A     -0.700953    18A     -0.685937
      19A     -0.643446    20A     -0.637654    21A     -0.614412
      22A     -0.592119    23A     -0.578431    24A     -0.554709
      25A     -0.540250    26A     -0.519186    27A     -0.500496
      28A     -0.482472    29A     -0.477425    30A     -0.469895
      31A     -0.458304    32A     -0.434594

  @DF-RHF Final Energy:  -383.94693175459656

   => Energetics <=

    Nuclear Repulsion Energy =            376.7328693046413264
    One-Electron Energy =               -1269.3986637360485474
    Two-Electron Energy =                 508.7188626768115682
    DFT Exchange-Correlation Energy =       0.0000000000000000
    Empirical Dispersion Energy =           0.0000000000000000
    PCM Polarization Energy =               0.0000000000000000
    EFP Energy =                            0.0000000000000000
    Total Energy =                       -383.9469317545956528

  Mulliken Charges: (a.u.)
   Center  Symbol    Alpha    Beta     Spin     Total
       1     H     0.26762  0.26762  0.00000  0.46476
       2     O     4.34701  4.34701  0.00000 -0.69401
       3     C     2.62969  2.62969  0.00000  0.74061
       4     C     3.20508  3.20508  0.00000 -0.41015
       5     O     4.27884  4.27884  0.00000 -0.55768
       6     C     3.16606  3.16606  0.00000 -0.33211
       7     H     0.39566  0.39566  0.00000  0.20868
       8     H     0.40246  0.40246  0.00000  0.19507
       9     C     3.15454  3.15454  0.00000 -0.30908
      10     H     0.41450  0.41450  0.00000  0.17099
      11     H     0.40261  0.40261  0.00000  0.19478
      12     C     3.15487  3.15487  0.00000 -0.30973
      13     H     0.41808  0.41808  0.00000  0.16384
      14     H     0.42176  0.42176  0.00000  0.15647
      15     C     3.23956  3.23956  0.00000 -0.47911
      16     H     0.42104  0.42104  0.00000  0.15792
      17     H     0.42088  0.42088  0.00000  0.15824
      18     H     0.41760  0.41760  0.00000  0.16481
      19     H     0.42095  0.42095  0.00000  0.15811
      20     H     0.42120  0.42120  0.00000  0.15760

   Total alpha = 32.00000, Total beta = 32.00000, Total charge =  0.00000
