  ==> Input File <==

--------------------------------------------------------------------------
set {
	reference rhf
	basis 6-31G*
}

set_num_threads( 4 )
memory 2 gb

molecule MOL {
0 1

H	 -0.177333	 2.458119	 0.579380
C	 0.669984	 1.784154	 0.713961
N	 0.538815	 0.649616	 0.000000
O	 1.590928	 2.060184	 1.424508
C	 1.521968	 -0.411503	 0.000000
H	 -0.279895	 0.543379	 -0.553816
H	 2.150599	 -0.357004	 -0.881901
H	 0.999455	 -1.354525	 0.000000
H	 2.150599	 -0.357004	 0.881901

	symmetry c1
}
set optking {
	frozen_dihedral = ("
		6 3 5 7
	")
}

ee = optimize('scf')
oeprop('DIPOLE', 'QUADRUPOLE', 'MULLIKEN_CHARGES')
f=open( 'psi4out.xyz', 'w' )
f.write( "9  " )
f.write( str(ee) + "\n" )
f.write( MOL.save_string_xyz() )
f.close()
--------------------------------------------------------------------------

    Molecular point group: c1
  Charge       = 0
  Multiplicity = 1
  Basis Set: 6-31G*
  Basis Set:
  @DF-RHF Final Energy:  -207.96061838682840
    Total Energy =                       -207.9606183868282869
    Molecular point group: c1
  Basis Set: 6-31G*
  Basis Set:
  Basis Set: 6-31G*
  Basis Set:
  @DF-RHF Final Energy:  -207.96094149971623
    Total Energy =                       -207.9609414997162560
  Basis Set: 6-31G*
  Basis Set:
  Basis Set: 6-31G*
  Basis Set:
  @DF-RHF Final Energy:  -207.96094020173553
    Total Energy =                       -207.9609402017354114
  Basis Set: 6-31G*
  Basis Set:
  Basis Set: 6-31G*
  Basis Set:
  @DF-RHF Final Energy:  -207.96100664349353
    Total Energy =                       -207.9610066434935902
  Basis Set: 6-31G*
  Basis Set:
  Basis Set: 6-31G*
  Basis Set:
  @DF-RHF Final Energy:  -207.96102429410593
    Total Energy =                       -207.9610242941059823
  Basis Set: 6-31G*
  Basis Set:
  Basis Set: 6-31G*
  Basis Set:
  @DF-RHF Final Energy:  -207.96103963126484
    Total Energy =                       -207.9610396312648959
  Basis Set: 6-31G*
  Basis Set:
  Charge       = 0
  Multiplicity = 1
  Basis Set: 6-31G*
  Basis Set:

    Orbital Energies (a.u.)
    -----------------------

    Doubly Occupied:

       1A    -20.526035     2A    -15.590802     3A    -11.343818
       4A    -11.260582     5A     -1.389374     6A     -1.236409
       7A     -0.968234     8A     -0.807366     9A     -0.746414
      10A     -0.641589    11A     -0.626540    12A     -0.592975
      13A     -0.555571    14A     -0.535614    15A     -0.424114
      16A     -0.391006

  @DF-RHF Final Energy:  -207.96104055304815

   => Energetics <=

    Nuclear Repulsion Energy =            122.5511870712863640
    One-Electron Energy =                -525.7515704648772044
    Two-Electron Energy =                 195.2393428405427755
    DFT Exchange-Correlation Energy =       0.0000000000000000
    Empirical Dispersion Energy =           0.0000000000000000
    PCM Polarization Energy =               0.0000000000000000
    EFP Energy =                            0.0000000000000000
    Total Energy =                       -207.9610405530480932
    Molecular point group: c1
  Basis Set: 6-31G*
  Basis Set:

  -Total Gradient:
     Atom            X                  Y                   Z
    ------   -----------------  -----------------  -----------------
       1        0.000002602453     0.000008481330     0.000003408257
       2       -0.000077030862    -0.000030520746    -0.000051499509
       3       -0.000115021319    -0.000110323122     0.000106351145
       4        0.000036081615    -0.000010530319     0.000013061845
       5        0.000146479548     0.000118852185     0.000112056806
       6        0.000059571873     0.000107945133    -0.000096678470
       7       -0.000084669860    -0.000075286906    -0.000079387368
       8        0.000002168210     0.000015848655    -0.000008793112
       9        0.000029818342    -0.000024466209     0.000001480403

  **** Optimization is complete! (in 7 steps) ****
    Final optimized geometry and variables:
    Molecular point group: c1

    Geometry (in Angstrom), charge = 0, multiplicity = 1:

    H           -1.253436775198     1.463817293373     0.057010628839
    C           -0.409999091286     0.782126237010     0.177024396436
    N           -0.589501908673    -0.381899656622    -0.476615735793
    O            0.545852970845     1.065860282124     0.836474077840
    C            0.421040462934    -1.416643265776    -0.519525951086
    H           -1.384824167748    -0.464581053069    -1.067160036923
    H            1.089286334594    -1.295208437471    -1.366103990968
    H           -0.057182523578    -2.385537714302    -0.587076247787
    H            1.002352651188    -1.373133086717     0.388252328848

  Mulliken Charges: (a.u.)
   Center  Symbol    Alpha    Beta     Spin     Total
       1     H     0.42720  0.42720  0.00000  0.14560
       2     C     2.74608  2.74608  0.00000  0.50783
       3     N     3.87418  3.87418  0.00000 -0.74837
       4     O     4.28354  4.28354  0.00000 -0.56707
       5     C     3.14157  3.14157  0.00000 -0.28314
       6     H     0.30941  0.30941  0.00000  0.38119
       7     H     0.41289  0.41289  0.00000  0.17422
       8     H     0.41444  0.41444  0.00000  0.17112
       9     H     0.39069  0.39069  0.00000  0.21862

   Total alpha = 16.00000, Total beta = 16.00000, Total charge =  0.00000
