  ==> Input File <==

--------------------------------------------------------------------------
set {
	reference rhf
	basis 6-31G*
}

set_num_threads( 1 )
memory 2 gb

molecule MOL {
0 1

H	 1.179365	 -5.448648	 -1.353414
O	 2.072120	 -5.241920	 -1.588623
C	 2.095104	 -4.091818	 -2.395339
C	 1.803617	 -2.809910	 -1.623020
H	 3.091694	 -4.046851	 -2.815409
H	 1.398495	 -4.195367	 -3.226479
C	 0.395917	 -2.750077	 -1.024967
H	 2.541194	 -2.709187	 -0.831059
H	 1.945862	 -1.967616	 -2.298057
C	 0.115918	 -1.429151	 -0.302766
H	 0.266894	 -3.576872	 -0.332053
H	 -0.340209	 -2.886960	 -1.817256
C	 -1.309753	 -1.282496	 0.241564
H	 0.826627	 -1.309501	 0.512969
H	 0.306773	 -0.610120	 -0.993029
C	 -2.037799	 -0.007733	 -0.193645
H	 -1.890610	 -2.142323	 -0.085726
H	 -1.285946	 -1.330893	 1.329189
C	 -3.489788	 0.042957	 0.286558
H	 -2.017067	 0.064384	 -1.280144
H	 -1.513726	 0.868678	 0.179924
C	 -4.216917	 1.317354	 -0.141063
H	 -4.025645	 -0.823308	 -0.095450
H	 -3.513059	 -0.038752	 1.371301
H	 -4.239342	 1.411634	 -1.223113
H	 -5.243387	 1.322503	 0.212445
H	 -3.726170	 2.201406	 0.256408

	symmetry c1
}
set optking {
	frozen_dihedral = ("
		14 10 7 4,
		10 7 4 8,
		8 4 3 2,
		10 13 16 20,
		20 16 19 22,
		4 3 2 1
	")
}

ee = energy('scf')
oeprop('DIPOLE', 'QUADRUPOLE', 'MULLIKEN_CHARGES')
f=open( 'psi4out.xyz', 'w' )
f.write( "27  " )
f.write( str(ee) + "\n" )
f.write( MOL.save_string_xyz() )
f.close()
--------------------------------------------------------------------------

    Molecular point group: c1

    Geometry (in Angstrom), charge = 0, multiplicity = 1:

       Center              X                  Y                   Z               Mass
    ------------   -----------------  -----------------  -----------------  -----------------
           H          1.663062554666    -3.593741522012    -0.586302018490     1.007825032070
           O          2.555817554666    -3.387013522012    -0.821511018490    15.994914619560
           C          2.578801554666    -2.236911522012    -1.628227018490    12.000000000000
           C          2.287314554666    -0.955003522012    -0.855908018490    12.000000000000
           H          3.575391554666    -2.191944522012    -2.048297018490     1.007825032070
           H          1.882192554666    -2.340460522012    -2.459367018490     1.007825032070
           C          0.879614554666    -0.895170522012    -0.257855018490    12.000000000000
           H          3.024891554666    -0.854280522012    -0.063947018490     1.007825032070
           H          2.429559554666    -0.112709522012    -1.530945018490     1.007825032070
           C          0.599615554666     0.425755477988     0.464345981510    12.000000000000
           H          0.750591554666    -1.721965522012     0.435058981510     1.007825032070
           H          0.143488554666    -1.032053522012    -1.050144018490     1.007825032070
           C         -0.826055445334     0.572410477988     1.008675981510    12.000000000000
           H          1.310324554666     0.545405477988     1.280080981510     1.007825032070
           H          0.790470554666     1.244786477988    -0.225917018490     1.007825032070
           C         -1.554101445334     1.847173477988     0.573466981510    12.000000000000
           H         -1.406912445334    -0.287416522012     0.681385981510     1.007825032070
           H         -0.802248445334     0.524013477988     2.096300981510     1.007825032070
           C         -3.006090445334     1.897863477988     1.053669981510    12.000000000000
           H         -1.533369445334     1.919290477988    -0.513032018490     1.007825032070
           H         -1.030028445334     2.723584477988     0.947035981510     1.007825032070
           C         -3.733219445334     3.172260477988     0.626048981510    12.000000000000
           H         -3.541947445334     1.031598477988     0.671661981510     1.007825032070
           H         -3.029361445334     1.816154477988     2.138412981510     1.007825032070
           H         -3.755644445334     3.266540477988    -0.456001018490     1.007825032070
           H         -4.759689445334     3.177409477988     0.979556981510     1.007825032070
           H         -3.242472445334     4.056312477988     1.023519981510     1.007825032070

  Charge       = 0
  Multiplicity = 1
  Basis Set: 6-31G*
  Basis Set:

    Orbital Energies (a.u.)
    -----------------------

    Doubly Occupied:

       1A    -20.552317     2A    -11.267173     3A    -11.221048
       4A    -11.215912     5A    -11.215777     6A    -11.215163
       7A    -11.215128     8A    -11.214079     9A    -11.209427
      10A     -1.359091    11A     -1.094308    12A     -1.062693
      13A     -1.011494    14A     -0.950246    15A     -0.884189
      16A     -0.819781    17A     -0.792968    18A     -0.789898
      19A     -0.694182    20A     -0.654838    21A     -0.634590
      22A     -0.615207    23A     -0.602017    24A     -0.583437
      25A     -0.578903    26A     -0.554605    27A     -0.535557
      28A     -0.525249    29A     -0.507152    30A     -0.500057
      31A     -0.478042    32A     -0.476894    33A     -0.469970
      34A     -0.460260    35A     -0.453562    36A     -0.442356
      37A     -0.421818

  @DF-RHF Final Energy:  -388.27771647189275

   => Energetics <=

    Nuclear Repulsion Energy =            452.6064328005231800
    One-Electron Energy =               -1423.2095672171485603
    Two-Electron Energy =                 582.3254179447355909
    DFT Exchange-Correlation Energy =       0.0000000000000000
    Empirical Dispersion Energy =           0.0000000000000000
    PCM Polarization Energy =               0.0000000000000000
    EFP Energy =                            0.0000000000000000
    Total Energy =                       -388.2777164718897893

  Mulliken Charges: (a.u.)
   Center  Symbol    Alpha    Beta     Spin     Total
       1     H     0.27995  0.27995  0.00000  0.44010
       2     O     4.37093  4.37093  0.00000 -0.74186
       3     C     2.99737  2.99737  0.00000  0.00527
       4     C     3.16202  3.16202  0.00000 -0.32404
       5     H     0.41438  0.41438  0.00000  0.17124
       6     H     0.43208  0.43208  0.00000  0.13583
       7     C     3.16357  3.16357  0.00000 -0.32715
       8     H     0.41486  0.41486  0.00000  0.17029
       9     H     0.42397  0.42397  0.00000  0.15207
      10     C     3.15340  3.15340  0.00000 -0.30680
      11     H     0.42413  0.42413  0.00000  0.15174
      12     H     0.42487  0.42487  0.00000  0.15026
      13     C     3.15515  3.15515  0.00000 -0.31030
      14     H     0.41909  0.41909  0.00000  0.16183
      15     H     0.42086  0.42086  0.00000  0.15828
      16     C     3.15269  3.15269  0.00000 -0.30538
      17     H     0.42269  0.42269  0.00000  0.15462
      18     H     0.42047  0.42047  0.00000  0.15906
      19     C     3.15220  3.15220  0.00000 -0.30439
      20     H     0.42444  0.42444  0.00000  0.15112
      21     H     0.42273  0.42273  0.00000  0.15453
      22     C     3.23926  3.23926  0.00000 -0.47853
      23     H     0.42321  0.42321  0.00000  0.15357
      24     H     0.42276  0.42276  0.00000  0.15448
      25     H     0.42199  0.42199  0.00000  0.15602
      26     H     0.41922  0.41922  0.00000  0.16157
      27     H     0.42171  0.42171  0.00000  0.15658

   Total alpha = 37.00000, Total beta = 37.00000, Total charge =  0.00000
