                              Psi4 1.0.54 Driver

  ==> Input File <==

--------------------------------------------------------------------------
set {
	reference rhf
	basis cc-pvtz
}

set_num_threads( 4 )
memory 2 gb

molecule MOL {
0 1

O	 -2.440701	 -0.934798	 -0.415053
C	 -1.922978	 0.063265	 -0.045005
C	 -2.632749	 1.372204	 0.158357
O	 -0.637375	 0.157174	 0.243149
H	 -2.187724	 2.129143	 -0.474664
H	 -3.677681	 1.257276	 -0.079438
H	 -2.516788	 1.693160	 1.185542
C	 0.162530	 -1.009518	 0.097799
C	 1.587210	 -0.664190	 0.477086
H	 0.096803	 -1.356267	 -0.924704
H	 -0.233803	 -1.785900	 0.736810
C	 2.214094	 0.434281	 -0.377398
H	 2.174811	 -1.573885	 0.388125
H	 1.612706	 -0.377945	 1.524106
C	 3.656836	 0.733795	 0.015544
H	 2.178713	 0.136844	 -1.422089
H	 1.620762	 1.337512	 -0.293888
H	 4.078251	 1.513111	 -0.608525
H	 4.283307	 -0.146277	 -0.086432
H	 3.720391	 1.065726	 1.046466

	symmetry c1
}
set optking {
	frozen_dihedral = ("
		12 9 8 10
	")
}

ee,wfn = optimize('scf', return_wfn=True)
oeprop( wfn, 'DIPOLE', 'QUADRUPOLE', 'MULLIKEN_CHARGES')
f=open( 'psi4out.xyz', 'w' )
f.write( "20  " )
f.write( str(ee) + "\n" )
f.write( MOL.save_string_xyz() )
f.close()
--------------------------------------------------------------------------

    Molecular point group: c1
  Charge       = 0
  Multiplicity = 1
  Basis Set: CC-PVTZ
  Basis Set:
  @DF-RHF Final Energy:  -384.08743247419739
    Total Energy =                       -384.0874324741971577
    Molecular point group: c1
  Basis Set: CC-PVTZ
  Basis Set:
  Basis Set: CC-PVTZ
  Basis Set:
  @DF-RHF Final Energy:  -384.08743762697907
    Total Energy =                       -384.0874376269790673
  Basis Set: CC-PVTZ
  Basis Set:
  Basis Set: CC-PVTZ
  Basis Set:
  @DF-RHF Final Energy:  -384.08733527679908
    Total Energy =                       -384.0873352767988536
  Basis Set: CC-PVTZ
  Basis Set:
  Basis Set: CC-PVTZ
  Basis Set:
  @DF-RHF Final Energy:  -384.08745679809425
    Total Energy =                       -384.0874567980946495
  Basis Set: CC-PVTZ
  Basis Set:
  Charge       = 0
  Multiplicity = 1
  Basis Set: CC-PVTZ
  Basis Set:

    Orbital Energies (a.u.)
    -----------------------

    Doubly Occupied:

       1A    -20.594653     2A    -20.532840     3A    -11.366882
       4A    -11.280151     5A    -11.231837     6A    -11.223636
       7A    -11.218506     8A    -11.211459     9A     -1.471390
      10A     -1.365476    11A     -1.087038    12A     -1.029335
      13A     -0.982354    14A     -0.881263    15A     -0.813311
      16A     -0.775614    17A     -0.692735    18A     -0.687215
      19A     -0.670458    20A     -0.633048    21A     -0.601012
      22A     -0.594245    23A     -0.573237    24A     -0.551479
      25A     -0.546247    26A     -0.533730    27A     -0.512654
      28A     -0.484492    29A     -0.475010    30A     -0.473351
      31A     -0.451813    32A     -0.442361

  @DF-RHF Final Energy:  -384.08745772055113

   => Energetics <=

    Nuclear Repulsion Energy =            385.9301755607814357
    One-Electron Energy =               -1288.0576041365991387
    Two-Electron Energy =                 518.0399708552661195
    DFT Exchange-Correlation Energy =       0.0000000000000000
    Empirical Dispersion Energy =           0.0000000000000000
    PCM Polarization Energy =               0.0000000000000000
    EFP Energy =                            0.0000000000000000
    Total Energy =                       -384.0874577205515834
    Molecular point group: c1
  Basis Set: CC-PVTZ
  Basis Set:

  -Total Gradient:
     Atom            X                  Y                   Z
    ------   -----------------  -----------------  -----------------
       1       -0.000038295680    -0.000095720722     0.000011080650
       2        0.000090296569     0.000063643903    -0.000021615335
       3        0.000001696567     0.000008667058    -0.000003975975
       4       -0.000055001927     0.000030052138     0.000031691445
       5        0.000005590789     0.000021327934    -0.000002981420
       6        0.000005678290    -0.000015951687    -0.000001968707
       7       -0.000003613956     0.000014313265     0.000025431817
       8       -0.000288864275     0.001804760377    -0.000430273957
       9        0.000498385615    -0.001266287359    -0.000719486680
      10        0.000178111928    -0.001241429553     0.000462414529
      11       -0.000034764179     0.000005330395     0.000033793676
      12       -0.000348786647     0.000676103220     0.000614525489
      13       -0.000015990868     0.000000028305    -0.000007339374
      14        0.000015251697    -0.000000239648     0.000005540243
      15       -0.000000842586    -0.000010747713    -0.000006612464
      16        0.000004356193     0.000003617832    -0.000003308209
      17       -0.000011492019     0.000000207294     0.000004653615
      18       -0.000002528633    -0.000002665668    -0.000004356385
      19        0.000002428537    -0.000001275354     0.000005391818
      20       -0.000001615419     0.000006265985     0.000007395225

  **** Optimization is complete! (in 5 steps) ****
    Final optimized geometry and variables:
    Molecular point group: c1

    Geometry (in Angstrom), charge = 0, multiplicity = 1:

    O           -2.425879848789    -0.964252246333    -0.449704232773
    C           -1.917237542470     0.037447686036    -0.077109513611
    C           -2.636572419608     1.341769357972     0.120243136720
    O           -0.633786029340     0.139947331912     0.217910128687
    H           -2.193539703692     2.100102441776    -0.512505925678
    H           -3.679574210705     1.219294763478    -0.122218326006
    H           -2.527425430274     1.665541400754     1.147267228814
    C            0.173121670780    -1.021317783896     0.078650357476
    C            1.594346429358    -0.676537284073     0.471961533722
    H            0.118558600065    -1.375300883948    -0.942107173660
    H           -0.224419659729    -1.800378998478     0.714023333529
    C            2.237287762056     0.413919085580    -0.380784279363
    H            2.177995209579    -1.590166049235     0.401125534695
    H            1.608301929434    -0.378263238637     1.516073690333
    C            3.679282487271     0.700866354332     0.023907450303
    H            2.208178075809     0.115462563829    -1.425533604245
    H            1.651402288859     1.321872987842    -0.303482434078
    H            4.111914411542     1.477421971456    -0.595909079177
    H            4.299304460674    -0.184137405627    -0.074034654038
    H            3.737328709727     1.031276733310     1.055687194427

  Mulliken Charges: (a.u.)
   Center  Symbol    Alpha    Beta     Spin     Total
       1     O     4.19723  4.19723  0.00000 -0.39446
       2     C     2.80839  2.80839  0.00000  0.38323
       3     C     3.13855  3.13855  0.00000 -0.27710
       4     O     4.15295  4.15295  0.00000 -0.30589
       5     H     0.44604  0.44604  0.00000  0.10793
       6     H     0.43766  0.43766  0.00000  0.12468
       7     H     0.44571  0.44571  0.00000  0.10859
       8     C     2.99430  2.99430  0.00000  0.01139
       9     C     3.08472  3.08472  0.00000 -0.16945
      10     H     0.45064  0.45064  0.00000  0.09872
      11     H     0.44490  0.44490  0.00000  0.11020
      12     C     3.08593  3.08593  0.00000 -0.17187
      13     H     0.45163  0.45163  0.00000  0.09674
      14     H     0.45217  0.45217  0.00000  0.09566
      15     C     3.15023  3.15023  0.00000 -0.30046
      16     H     0.45529  0.45529  0.00000  0.08942
      17     H     0.44642  0.44642  0.00000  0.10716
      18     H     0.44737  0.44737  0.00000  0.10526
      19     H     0.45543  0.45543  0.00000  0.08914
      20     H     0.45445  0.45445  0.00000  0.09110

   Total alpha = 32.00000, Total beta = 32.00000, Total charge = -0.00000

*** Psi4 exiting successfully. Buy a developer a beer!
