  ==> Input File <==

--------------------------------------------------------------------------
set {
	reference rhf
	basis 6-31G*
}

set_num_threads( 1 )
memory 2 gb

molecule MOL {
0 1

H	 -2.714867	 -0.736094	 1.292299
C	 -2.694279	 -0.735743	 0.204311
O	 -1.398713	 -0.586909	 -0.280143
H	 -3.069082	 -1.684884	 -0.153176
H	 -3.349305	 0.057846	 -0.152879
C	 -0.782442	 0.603790	 0.096280
C	 0.646876	 0.602720	 -0.392857
H	 -1.308844	 1.455324	 -0.336716
H	 -0.791060	 0.718911	 1.178259
O	 1.392611	 -0.295398	 0.366430
H	 0.665373	 0.328232	 -1.445625
H	 1.058150	 1.608695	 -0.300330
C	 2.706965	 -0.449871	 -0.062409
H	 2.756559	 -0.644779	 -1.131878
H	 3.305899	 0.433456	 0.155466
H	 3.125548	 -1.294566	 0.467107

	symmetry c1
}
set optking {
	frozen_dihedral = ("
		3 6 7 11,
		2 3 6 7
	")
}

ee = energy('scf')
oeprop('DIPOLE', 'QUADRUPOLE', 'MULLIKEN_CHARGES')
f=open( 'psi4out.xyz', 'w' )
f.write( "16  " )
f.write( str(ee) + "\n" )
f.write( MOL.save_string_xyz() )
f.close()
--------------------------------------------------------------------------

    Molecular point group: c1

    Geometry (in Angstrom), charge = 0, multiplicity = 1:

       Center              X                  Y                   Z               Mass
    ------------   -----------------  -----------------  -----------------  -----------------
           H         -2.693812851455    -0.584901286236     1.302366548865     1.007825032070
           C         -2.673224851455    -0.584550286236     0.214378548865    12.000000000000
           O         -1.377658851455    -0.435716286236    -0.270075451135    15.994914619560
           H         -3.048027851455    -1.533691286236    -0.143108451135     1.007825032070
           H         -3.328250851455     0.209038713764    -0.142811451135     1.007825032070
           C         -0.761387851455     0.754982713764     0.106347548865    12.000000000000
           C          0.667930148545     0.753912713764    -0.382789451135    12.000000000000
           H         -1.287789851455     1.606516713764    -0.326648451135     1.007825032070
           H         -0.770005851455     0.870103713764     1.188326548865     1.007825032070
           O          1.413665148545    -0.144205286236     0.376497548865    15.994914619560
           H          0.686427148545     0.479424713764    -1.435557451135     1.007825032070
           H          1.079204148545     1.759887713764    -0.290262451135     1.007825032070
           C          2.728019148545    -0.298678286236    -0.052341451135    12.000000000000
           H          2.777613148545    -0.493586286236    -1.121810451135     1.007825032070
           H          3.326953148545     0.584648713764     0.165533548865     1.007825032070
           H          3.146602148545    -1.143373286236     0.477174548865     1.007825032070

  Charge       = 0
  Multiplicity = 1
  Basis Set: 6-31G*
  Basis Set:

    Orbital Energies (a.u.)
    -----------------------

    Doubly Occupied:

       1A    -20.553610     2A    -20.553464     3A    -11.269070
       4A    -11.268407     5A    -11.263553     6A    -11.263441
       7A     -1.388307     8A     -1.370693     9A     -1.030821
      10A     -0.936033    11A     -0.891952    12A     -0.824153
      13A     -0.684046    14A     -0.680399    15A     -0.657053
      16A     -0.636030    17A     -0.629550    18A     -0.597125
      19A     -0.551086    20A     -0.535026    21A     -0.508870
      22A     -0.477581    23A     -0.462793    24A     -0.419777
      25A     -0.410293

  @DF-RHF Final Energy:  -306.97739756617619

   => Energetics <=

    Nuclear Repulsion Energy =            258.8409968098895320
    One-Electron Energy =                -931.9104338725295520
    Two-Electron Energy =                 366.0920394964643947
    DFT Exchange-Correlation Energy =       0.0000000000000000
    Empirical Dispersion Energy =           0.0000000000000000
    PCM Polarization Energy =               0.0000000000000000
    EFP Energy =                            0.0000000000000000
    Total Energy =                       -306.9773975661755685

  Mulliken Charges: (a.u.)
   Center  Symbol    Alpha    Beta     Spin     Total
       1     H     0.42806  0.42806  0.00000  0.14387
       2     C     3.07951  3.07951  0.00000 -0.15903
       3     O     4.30090  4.30090  0.00000 -0.60179
       4     H     0.41129  0.41129  0.00000  0.17741
       5     H     0.43188  0.43188  0.00000  0.13624
       6     C     2.99342  2.99342  0.00000  0.01316
       7     C     2.99350  2.99350  0.00000  0.01300
       8     H     0.43227  0.43227  0.00000  0.13547
       9     H     0.42271  0.42271  0.00000  0.15457
      10     O     4.30102  4.30102  0.00000 -0.60204
      11     H     0.42239  0.42239  0.00000  0.15523
      12     H     0.43250  0.43250  0.00000  0.13500
      13     C     3.07919  3.07919  0.00000 -0.15838
      14     H     0.42936  0.42936  0.00000  0.14127
      15     H     0.43069  0.43069  0.00000  0.13862
      16     H     0.41131  0.41131  0.00000  0.17739

   Total alpha = 25.00000, Total beta = 25.00000, Total charge = -0.00000
