                              Psi4 1.0.54 Driver

  ==> Input File <==

--------------------------------------------------------------------------
set {
	reference rhf
	basis cc-pvtz
}

set_num_threads( 4 )
memory 2 gb

molecule MOL {
0 1

H	 -2.503997	 -0.141253	 1.949854
C	 -2.418060	 -0.648877	 0.991827
O	 -1.133831	 -0.544627	 0.474691
H	 -2.633225	 -1.697894	 1.133794
H	 -3.158061	 -0.229179	 0.312757
C	 -0.718530	 0.758693	 0.228682
C	 0.718529	 0.758687	 -0.228709
H	 -1.335834	 1.211328	 -0.547222
H	 -0.808143	 1.367117	 1.126022
O	 1.401606	 -0.295166	 0.366636
H	 0.748705	 0.673477	 -1.312803
H	 1.176496	 1.708671	 0.046552
C	 2.714315	 -0.441627	 -0.061017
H	 2.765292	 -0.641548	 -1.128869
H	 3.305661	 0.447341	 0.150952
H	 3.143725	 -1.278506	 0.470147

	symmetry c1
}
set optking {
	frozen_dihedral = ("
		3 6 7 11
	")
}

ee,wfn = optimize('scf', return_wfn=True)
oeprop( wfn, 'DIPOLE', 'QUADRUPOLE', 'MULLIKEN_CHARGES')
f=open( 'psi4out.xyz', 'w' )
f.write( "16  " )
f.write( str(ee) + "\n" )
f.write( MOL.save_string_xyz() )
f.close()
--------------------------------------------------------------------------

    Molecular point group: c1
  Charge       = 0
  Multiplicity = 1
  Basis Set: CC-PVTZ
  Basis Set:
  @DF-RHF Final Energy:  -307.08933973130416
    Total Energy =                       -307.0893397313040509
    Molecular point group: c1
  Basis Set: CC-PVTZ
  Basis Set:
  Basis Set: CC-PVTZ
  Basis Set:
  @DF-RHF Final Energy:  -307.09044890152876
    Total Energy =                       -307.0904489015288732
  Basis Set: CC-PVTZ
  Basis Set:
  Basis Set: CC-PVTZ
  Basis Set:
  @DF-RHF Final Energy:  -307.09079284517759
    Total Energy =                       -307.0907928451777025
  Basis Set: CC-PVTZ
  Basis Set:
  Charge       = 0
  Multiplicity = 1
  Basis Set: CC-PVTZ
  Basis Set:

    Orbital Energies (a.u.)
    -----------------------

    Doubly Occupied:

       1A    -20.548111     2A    -20.546061     3A    -11.269327
       4A    -11.268695     5A    -11.261640     6A    -11.260728
       7A     -1.393646     8A     -1.373697     9A     -1.028877
      10A     -0.935895    11A     -0.897502    12A     -0.820063
      13A     -0.688702    14A     -0.678184    15A     -0.661183
      16A     -0.645276    17A     -0.623729    18A     -0.595259
      19A     -0.568547    20A     -0.520514    21A     -0.509035
      22A     -0.475082    23A     -0.469117    24A     -0.422015
      25A     -0.407752

  @DF-RHF Final Energy:  -307.09080975076483

   => Energetics <=

    Nuclear Repulsion Energy =            259.8342473997747675
    One-Electron Energy =                -934.1128470534747521
    Two-Electron Energy =                 367.1877899029353784
    DFT Exchange-Correlation Energy =       0.0000000000000000
    Empirical Dispersion Energy =           0.0000000000000000
    PCM Polarization Energy =               0.0000000000000000
    EFP Energy =                            0.0000000000000000
    Total Energy =                       -307.0908097507646062
    Molecular point group: c1
  Basis Set: CC-PVTZ
  Basis Set:

  -Total Gradient:
     Atom            X                  Y                   Z
    ------   -----------------  -----------------  -----------------
       1        0.000000973015     0.000008326194    -0.000004817398
       2       -0.000035030274    -0.000045349067     0.000019026675
       3        0.002345695181     0.000544515294     0.006640949400
       4       -0.000055023883    -0.000003842842    -0.000000944461
       5       -0.000030400673    -0.000009846100     0.000009917505
       6       -0.003088815752     0.001664247410    -0.008861759823
       7        0.000591497788    -0.010686343448     0.002447721724
       8        0.000039736071    -0.000024109462    -0.000014301642
       9       -0.000005116646    -0.000065308865     0.000029150211
      10        0.000055096436    -0.000161568953     0.000099949780
      11        0.000140933147     0.008850117533    -0.000355892770
      12        0.000003509640    -0.000102710772     0.000003357247
      13       -0.000142605218     0.000026677894    -0.000001766401
      14        0.000026865125     0.000009149589    -0.000000958573
      15        0.000064032000     0.000005338018    -0.000011720020
      16        0.000088654044    -0.000009292423     0.000002088549

  **** Optimization is complete! (in 4 steps) ****
    Final optimized geometry and variables:
    Molecular point group: c1

    Geometry (in Angstrom), charge = 0, multiplicity = 1:

    H           -2.697026482930     0.017672860253     1.586379393716
    C           -2.592022040748    -0.521136837622     0.646736495658
    O           -1.284756020883    -0.481130397105     0.182380705733
    H           -2.853041448809    -1.556626077784     0.809143100437
    H           -3.287956894649    -0.093790830906    -0.072877827537
    C           -0.807415971927     0.798706024886    -0.053121069239
    C            0.633154255278     0.764721149061    -0.545147717674
    H           -1.415644833838     1.320778084618    -0.790607035958
    H           -0.855175350932     1.371985360560     0.872048755981
    O            1.355541832488    -0.242203170577     0.065835768942
    H            0.666248778428     0.702105549727    -1.632131888831
    H            1.070554836279     1.737340656459    -0.309786044284
    C            2.689824667958    -0.292449844008    -0.314693894695
    H            2.792857925944    -0.464779538109    -1.383889789978
    H            3.213013934541     0.628343280734    -0.063404265981
    H            3.153132617074    -1.111422998308     0.215659610323

  Mulliken Charges: (a.u.)
   Center  Symbol    Alpha    Beta     Spin     Total
       1     H     0.47249  0.47249  0.00000  0.05503
       2     C     3.03103  3.03103  0.00000 -0.06207
       3     O     4.16119  4.16119  0.00000 -0.32238
       4     H     0.44565  0.44565  0.00000  0.10870
       5     H     0.47338  0.47338  0.00000  0.05325
       6     C     2.96383  2.96383  0.00000  0.07233
       7     C     2.96226  2.96226  0.00000  0.07547
       8     H     0.47639  0.47639  0.00000  0.04723
       9     H     0.47633  0.47633  0.00000  0.04733
      10     O     4.15971  4.15971  0.00000 -0.31941
      11     H     0.47553  0.47553  0.00000  0.04894
      12     H     0.48043  0.48043  0.00000  0.03913
      13     C     3.03185  3.03185  0.00000 -0.06371
      14     H     0.47131  0.47131  0.00000  0.05738
      15     H     0.47309  0.47309  0.00000  0.05382
      16     H     0.44552  0.44552  0.00000  0.10895

   Total alpha = 25.00000, Total beta = 25.00000, Total charge = -0.00000

*** Psi4 exiting successfully. Buy a developer a beer!
