                              Psi4 1.0.54 Driver

  ==> Input File <==

--------------------------------------------------------------------------
set {
	reference rhf
	basis cc-pvtz
}

set_num_threads( 4 )
memory 2 gb

molecule MOL {
0 1

O	 2.566050	 1.828146	 -1.324644
C	 2.378817	 0.892258	 -2.031162
C	 1.087164	 0.100652	 -2.002413
C	 3.427726	 0.425432	 -3.015077
C	 0.061415	 0.603814	 -0.996682
H	 0.675843	 0.108691	 -3.009298
H	 1.343831	 -0.937602	 -1.804536
C	 -1.221298	 -0.223057	 -1.003398
H	 -0.167860	 1.641296	 -1.211573
H	 0.500815	 0.594187	 -0.005739
C	 -2.258482	 0.271340	 0.000669
H	 -1.655097	 -0.210884	 -2.000867
H	 -0.983435	 -1.262659	 -0.789133
C	 -3.544441	 -0.550271	 -0.000253
H	 -2.497076	 1.310377	 -0.212844
H	 -1.826053	 0.258795	 0.998153
C	 -4.804551	 0.308747	 0.000556
H	 -3.553737	 -1.201524	 -0.870151
H	 -3.553831	 -1.203282	 0.868313
H	 -4.842050	 0.949078	 -0.874436
H	 -5.698404	 -0.304480	 -0.000254
H	 -4.842277	 0.947103	 0.876982
H	 3.031892	 0.451642	 -4.024371
H	 4.298765	 1.059008	 -2.949779
H	 3.706583	 -0.601305	 -2.805099

	symmetry c1
}
set optking {
	frozen_dihedral = ("
		15 11 14 18
	")
}

ee,wfn = optimize('scf', return_wfn=True)
oeprop( wfn, 'DIPOLE', 'QUADRUPOLE', 'MULLIKEN_CHARGES')
f=open( 'psi4out.xyz', 'w' )
f.write( "25  " )
f.write( str(ee) + "\n" )
f.write( MOL.save_string_xyz() )
f.close()
--------------------------------------------------------------------------

    Molecular point group: c1
  Charge       = 0
  Multiplicity = 1
  Basis Set: CC-PVTZ
  Basis Set:
  @DF-RHF Final Energy:  -387.26961979187274
    Total Energy =                       -387.2696197918721737
    Molecular point group: c1
  Basis Set: CC-PVTZ
  Basis Set:
  Basis Set: CC-PVTZ
  Basis Set:
  @DF-RHF Final Energy:  -387.26987844828909
    Total Energy =                       -387.2698784482889778
  Basis Set: CC-PVTZ
  Basis Set:
  Basis Set: CC-PVTZ
  Basis Set:
  @DF-RHF Final Energy:  -387.26994962543841
    Total Energy =                       -387.2699496254383575
  Basis Set: CC-PVTZ
  Basis Set:
  Basis Set: CC-PVTZ
  Basis Set:
  @DF-RHF Final Energy:  -387.26974085275032
    Total Energy =                       -387.2697408527501466
  Basis Set: CC-PVTZ
  Basis Set:
  Charge       = 0
  Multiplicity = 1
  Basis Set: CC-PVTZ
  Basis Set:

    Orbital Energies (a.u.)
    -----------------------

    Doubly Occupied:

       1A    -20.538899     2A    -11.320545     3A    -11.230292
       4A    -11.226596     5A    -11.215752     6A    -11.214710
       7A    -11.213264     8A    -11.211242     9A    -11.207197
      10A     -1.398958    11A     -1.094322    12A     -1.056210
      13A     -1.015438    14A     -0.970326    15A     -0.891569
      16A     -0.816590    17A     -0.791552    18A     -0.731033
      19A     -0.660263    20A     -0.654830    21A     -0.628675
      22A     -0.625818    23A     -0.600223    24A     -0.587310
      25A     -0.569789    26A     -0.559336    27A     -0.536469
      28A     -0.529694    29A     -0.515423    30A     -0.493894
      31A     -0.487121    32A     -0.477077    33A     -0.464956
      34A     -0.455326    35A     -0.451589    36A     -0.401420

  @DF-RHF Final Energy:  -387.26995264183461

   => Energetics <=

    Nuclear Repulsion Energy =            439.3283661717139239
    One-Electron Energy =               -1395.5092162904047655
    Two-Electron Energy =                 568.9108974768564622
    DFT Exchange-Correlation Energy =       0.0000000000000000
    Empirical Dispersion Energy =           0.0000000000000000
    PCM Polarization Energy =               0.0000000000000000
    EFP Energy =                            0.0000000000000000
    Total Energy =                       -387.2699526418343794
    Molecular point group: c1
  Basis Set: CC-PVTZ
  Basis Set:

  -Total Gradient:
     Atom            X                  Y                   Z
    ------   -----------------  -----------------  -----------------
       1        0.000134369782    -0.000042965438    -0.000017669725
       2       -0.000230066690     0.000023625479    -0.000122034670
       3       -0.000017928263    -0.000057729072     0.000059314401
       4        0.000087670452     0.000046332123     0.000083906226
       5       -0.000025053253     0.000012321725     0.000005694283
       6        0.000003369992     0.000005759796    -0.000001022338
       7       -0.000007348477    -0.000000924491    -0.000004826602
       8        0.000136215062    -0.000078222186    -0.000099501560
       9        0.000001101133     0.000002951885     0.000004123163
      10        0.000002234650    -0.000001945241     0.000007210959
      11        0.000734196164    -0.001083282664    -0.003437583125
      12       -0.000001345036     0.000001734531    -0.000010094879
      13        0.000010222115     0.000001122725    -0.000008760128
      14       -0.001950813808     0.002747552753    -0.001383655048
      15       -0.000268775347     0.000546863522     0.003248346934
      16       -0.000014696720     0.000006829536    -0.000079877897
      17       -0.000125951547     0.000130164020     0.000066884282
      18        0.001549777471    -0.002312640906     0.001783552757
      19       -0.000032053890     0.000054480705    -0.000074252516
      20        0.000001644655    -0.000007518922    -0.000011663411
      21        0.000033953878    -0.000011650445    -0.000004250979
      22       -0.000030900432    -0.000002485713    -0.000012277623
      23       -0.000012064009     0.000025010135     0.000013732508
      24        0.000020958450    -0.000015836982    -0.000023784030
      25        0.000001283667     0.000010453128     0.000018489017

  **** Optimization is complete! (in 5 steps) ****
    Final optimized geometry and variables:
    Molecular point group: c1

    Geometry (in Angstrom), charge = 0, multiplicity = 1:

    O            2.841665729784     1.408552026116    -0.163060798985
    C            2.651584629141     0.478812659619    -0.876799566648
    C            1.354834116252    -0.304915927916    -0.859609992982
    C            3.703146915088     0.011376375430    -1.857691597838
    C            0.326787589188     0.199071234488     0.143359622258
    H            0.949265863443    -0.288585857717    -1.868705573254
    H            1.604091942601    -1.345815692015    -0.666161696631
    C           -0.960030607377    -0.620289002258     0.126078432275
    H            0.104064234996     1.238908607110    -0.067472071160
    H            0.760985951733     0.182270489465     1.136505162663
    C           -2.003283712456    -0.121056588819     1.121088454918
    H           -1.387434221916    -0.606488550809    -0.874194967957
    H           -0.730869469849    -1.661622816398     0.342674908245
    C           -3.291412586974    -0.964710432992     1.150985295161
    H           -2.247866308922     0.915715194690     0.908428757452
    H           -1.561754606367    -0.106129990785     2.113367518993
    C           -4.568847337728    -0.134507942902     1.211336607258
    H           -3.318762536290    -1.622818895413     0.287780022753
    H           -3.263132528972    -1.629322636203     2.008863439774
    H           -4.663168142691     0.500275798615     0.336493909666
    H           -5.447907919828    -0.767145419468     1.259645078474
    H           -4.575073839348     0.508130428878     2.085559024319
    H            3.313122622400     0.046515797950    -2.868964669239
    H            4.578023374845     0.638737652200    -1.783764580368
    H            3.974081195957    -1.018409320682    -1.652337415718

  Mulliken Charges: (a.u.)
   Center  Symbol    Alpha    Beta     Spin     Total
       1     O     4.17076  4.17076  0.00000 -0.34151
       2     C     2.86220  2.86220  0.00000  0.27560
       3     C     3.11363  3.11363  0.00000 -0.22727
       4     C     3.15125  3.15125  0.00000 -0.30249
       5     C     3.08365  3.08365  0.00000 -0.16730
       6     H     0.44559  0.44559  0.00000  0.10883
       7     H     0.44557  0.44557  0.00000  0.10885
       8     C     3.09131  3.09131  0.00000 -0.18262
       9     H     0.44571  0.44571  0.00000  0.10857
      10     H     0.44601  0.44601  0.00000  0.10798
      11     C     3.09197  3.09197  0.00000 -0.18395
      12     H     0.45541  0.45541  0.00000  0.08917
      13     H     0.45457  0.45457  0.00000  0.09085
      14     C     3.08750  3.08750  0.00000 -0.17499
      15     H     0.45295  0.45295  0.00000  0.09410
      16     H     0.45139  0.45139  0.00000  0.09722
      17     C     3.14763  3.14763  0.00000 -0.29527
      18     H     0.45539  0.45539  0.00000  0.08922
      19     H     0.45222  0.45222  0.00000  0.09556
      20     H     0.45567  0.45567  0.00000  0.08866
      21     H     0.44969  0.44969  0.00000  0.10063
      22     H     0.45377  0.45377  0.00000  0.09246
      23     H     0.45041  0.45041  0.00000  0.09917
      24     H     0.43536  0.43536  0.00000  0.12928
      25     H     0.45038  0.45038  0.00000  0.09923

   Total alpha = 36.00000, Total beta = 36.00000, Total charge = -0.00000

*** Psi4 exiting successfully. Buy a developer a beer!
