  ==> Input File <==

--------------------------------------------------------------------------
set {
	reference rhf
	basis 6-31G*
}

set_num_threads( 4 )
memory 2 gb

molecule MOL {
0 1

O	 -3.638428	 -0.348837	 0.494561
C	 -2.668563	 0.129746	 -0.000350
C	 -2.653618	 1.466209	 -0.696705
O	 -1.481751	 -0.454642	 0.000584
H	 -2.982193	 2.226278	 0.002004
H	 -1.672080	 1.713327	 -1.073472
H	 -3.365924	 1.441308	 -1.512721
C	 -0.334255	 0.388708	 0.000906
C	 0.891947	 -0.504646	 0.000751
H	 -0.365390	 1.025305	 -0.873475
H	 -0.365484	 1.024911	 0.875569
C	 2.191998	 0.301789	 0.000897
H	 0.855148	 -1.151283	 -0.871571
H	 0.855132	 -1.151660	 0.872805
C	 3.441114	 -0.581407	 0.000108
H	 2.215074	 0.954890	 -0.869742
H	 2.215465	 0.953923	 0.872248
C	 4.739576	 0.224112	 -0.001102
H	 3.419457	 -1.233487	 -0.870178
H	 3.420834	 -1.233096	 0.870717
H	 4.804918	 0.861552	 -0.878265
H	 5.606527	 -0.429058	 -0.001824
H	 4.806469	 0.861674	 0.875853

	symmetry c1
}
set optking {
	frozen_dihedral = ("
		1 2 4 8
	")
}

ee = optimize('scf')
oeprop('DIPOLE', 'QUADRUPOLE', 'MULLIKEN_CHARGES')
f=open( 'psi4out.xyz', 'w' )
f.write( "23  " )
f.write( str(ee) + "\n" )
f.write( MOL.save_string_xyz() )
f.close()
--------------------------------------------------------------------------

    Molecular point group: c1
  Charge       = 0
  Multiplicity = 1
  Basis Set: 6-31G*
  Basis Set:
  @DF-RHF Final Energy:  -422.94659328763237
    Total Energy =                       -422.9465932876327088
    Molecular point group: c1
  Basis Set: 6-31G*
  Basis Set:
  Basis Set: 6-31G*
  Basis Set:
  @DF-RHF Final Energy:  -422.94852694970018
    Total Energy =                       -422.9485269496993851
  Basis Set: 6-31G*
  Basis Set:
  Basis Set: 6-31G*
  Basis Set:
  @DF-RHF Final Energy:  -422.95674805969276
    Total Energy =                       -422.9567480596923588
  Basis Set: 6-31G*
  Basis Set:
  Basis Set: 6-31G*
  Basis Set:
  @DF-RHF Final Energy:  -422.96102539219902
    Total Energy =                       -422.9610253921985077
  Basis Set: 6-31G*
  Basis Set:
  @DF-RHF Final Energy:  -422.96134694691477
    Total Energy =                       -422.9613469469148868
  @DF-RHF Final Energy:  -422.96206403440578
    Total Energy =                       -422.9620640344056710
  @DF-RHF Final Energy:  -422.96250281190419
    Total Energy =                       -422.9625028119038461
  @DF-RHF Final Energy:  -422.96276971158659
    Total Energy =                       -422.9627697115865885
  @DF-RHF Final Energy:  -422.96337987309170
    Total Energy =                       -422.9633798730912986
  @DF-RHF Final Energy:  -422.96369813736129
    Total Energy =                       -422.9636981373607796
  Basis Set: 6-31G*
  Basis Set:
  @DF-RHF Final Energy:  -422.96419236188717
    Total Energy =                       -422.9641923618876262
  Basis Set: 6-31G*
  Basis Set:
  Basis Set: 6-31G*
  Basis Set:
  @DF-RHF Final Energy:  -422.96440266617810
    Total Energy =                       -422.9644026661786711
  Basis Set: 6-31G*
  Basis Set:
  Basis Set: 6-31G*
  Basis Set:
  @DF-RHF Final Energy:  -422.96442580807354
    Total Energy =                       -422.9644258080736563
  Basis Set: 6-31G*
  Basis Set:
  Charge       = 0
  Multiplicity = 1
  Basis Set: 6-31G*
  Basis Set:

    Orbital Energies (a.u.)
    -----------------------

    Doubly Occupied:

       1A    -20.595658     2A    -20.541674     3A    -11.375324
       4A    -11.296757     5A    -11.241063     6A    -11.229665
       7A    -11.228970     8A    -11.225210     9A    -11.216242
      10A     -1.460369    11A     -1.364782    12A     -1.097768
      13A     -1.036548    14A     -1.014691    15A     -0.942706
      16A     -0.847839    17A     -0.807715    18A     -0.778556
      19A     -0.699350    20A     -0.693955    21A     -0.659142
      22A     -0.650192    23A     -0.613297    24A     -0.595083
      25A     -0.581121    26A     -0.574773    27A     -0.569458
      28A     -0.542825    29A     -0.527394    30A     -0.504028
      31A     -0.497203    32A     -0.482314    33A     -0.475725
      34A     -0.473934    35A     -0.446011    36A     -0.430536

  @DF-RHF Final Energy:  -422.96442677913939

   => Energetics <=

    Nuclear Repulsion Energy =            449.4951664183968774
    One-Electron Energy =               -1466.2834260155641459
    Two-Electron Energy =                 593.8238328180273129
    DFT Exchange-Correlation Energy =       0.0000000000000000
    Empirical Dispersion Energy =           0.0000000000000000
    PCM Polarization Energy =               0.0000000000000000
    EFP Energy =                            0.0000000000000000
    Total Energy =                       -422.9644267791400125
    Molecular point group: c1
  Basis Set: 6-31G*
  Basis Set:

  -Total Gradient:
     Atom            X                  Y                   Z
    ------   -----------------  -----------------  -----------------
       1        0.000720356774     0.001165021640     0.002789056360
       2       -0.001052888213    -0.001812501948    -0.002687228356
       3        0.000006701535    -0.000065851413    -0.000049761740
       4        0.000312897486     0.000842847295    -0.002697845497
       5        0.000044392461     0.000064905262     0.000036055023
       6        0.000002538287    -0.000025110483     0.000034953074
       7        0.000055079436     0.000023789134     0.000040316867
       8       -0.000106060857    -0.000237311921     0.002500211548
       9       -0.000001134335     0.000005320039     0.000005694949
      10        0.000012917609     0.000040934516    -0.000004521637
      11        0.000006420560     0.000006173253     0.000026889277
      12        0.000000779826    -0.000003914041     0.000011259787
      13       -0.000021758272     0.000020940529    -0.000006450385
      14        0.000029940145    -0.000018761407    -0.000011543778
      15       -0.000001119720    -0.000004772843     0.000034188979
      16        0.000003445491    -0.000004049671    -0.000011755303
      17       -0.000010265087     0.000001762416    -0.000010097305
      18       -0.000001639962     0.000001249720    -0.000006913928
      19       -0.000003281435     0.000005036650     0.000005781428
      20        0.000003207407    -0.000006471651     0.000005254255
      21       -0.000000658356     0.000005862722     0.000000710905
      22       -0.000001472358    -0.000000148458    -0.000005905359
      23        0.000001601591    -0.000004949340     0.000001650834

  **** Optimization is complete! (in 14 steps) ****
    Final optimized geometry and variables:
    Molecular point group: c1

    Geometry (in Angstrom), charge = 0, multiplicity = 1:

    O           -3.599799873176    -0.599570819107     0.407721611251
    C           -2.722086733215     0.048046725210    -0.050448210126
    C           -2.932304592690     1.437322262501    -0.607557106120
    O           -1.485283692404    -0.456525192806    -0.111555783886
    H           -2.418165597657     2.181127363812    -0.008524761487
    H           -2.552344559832     1.505205763833    -1.620787560241
    H           -3.990341347160     1.650117687225    -0.599543014312
    C           -0.336034686199     0.367880328107    -0.038464594284
    C            0.877420075724    -0.543292818182    -0.004718253390
    H           -0.290069975513     1.030180056793    -0.896170627218
    H           -0.380734038534     0.976345740503     0.859031840714
    C            2.189695854627     0.237853617269     0.081139014267
    H            0.866689441716    -1.162825411654    -0.896591722505
    H            0.781342770286    -1.213021643819     0.844102867992
    C            3.420036162907    -0.670580849538     0.121649183943
    H            2.271051316081     0.911098793587    -0.770877106234
    H            2.182129769010     0.867909105009     0.969172725705
    C            4.731912866898     0.108163371955     0.206619745514
    H            3.430009557018    -1.300710912025    -0.764663652441
    H            3.342005976910    -1.342278621678     0.973290912388
    H            4.854433980367     0.765667624234    -0.649437722407
    H            5.584698908828    -0.562666090952     0.232582338779
    H            4.766751935098     0.721959325432     1.102225973897

  Mulliken Charges: (a.u.)
   Center  Symbol    Alpha    Beta     Spin     Total
       1     O     4.26112  4.26112  0.00000 -0.52225
       2     C     2.61681  2.61681  0.00000  0.76637
       3     C     3.30679  3.30679  0.00000 -0.61359
       4     O     4.30835  4.30835  0.00000 -0.61669
       5     H     0.40357  0.40357  0.00000  0.19286
       6     H     0.40212  0.40212  0.00000  0.19577
       7     H     0.38888  0.38888  0.00000  0.22224
       8     C     2.99562  2.99562  0.00000  0.00877
       9     C     3.16214  3.16214  0.00000 -0.32427
      10     H     0.42083  0.42083  0.00000  0.15835
      11     H     0.41874  0.41874  0.00000  0.16253
      12     C     3.16114  3.16114  0.00000 -0.32228
      13     H     0.41064  0.41064  0.00000  0.17871
      14     H     0.40800  0.40800  0.00000  0.18399
      15     C     3.15182  3.15182  0.00000 -0.30364
      16     H     0.42253  0.42253  0.00000  0.15494
      17     H     0.42182  0.42182  0.00000  0.15637
      18     C     3.24007  3.24007  0.00000 -0.48014
      19     H     0.42024  0.42024  0.00000  0.15952
      20     H     0.41960  0.41960  0.00000  0.16080
      21     H     0.42131  0.42131  0.00000  0.15738
      22     H     0.41688  0.41688  0.00000  0.16624
      23     H     0.42097  0.42097  0.00000  0.15806

   Total alpha = 36.00000, Total beta = 36.00000, Total charge = -0.00000
