                              Psi4 1.0.54 Driver

  ==> Input File <==

--------------------------------------------------------------------------
set {
	reference rhf
	basis cc-pvtz
}

set_num_threads( 4 )
memory 2 gb

molecule MOL {
0 1

O	 0.012190	 -0.249540	 0.172118
C	 1.121787	 0.124983	 0.000110
C	 1.535700	 1.553677	 -0.242731
O	 2.167739	 -0.685178	 -0.000678
C	 0.373176	 2.535686	 -0.253575
H	 2.261114	 1.811779	 0.521886
H	 2.077293	 1.575345	 -1.182768
C	 0.827273	 3.971251	 -0.501082
H	 -0.155367	 2.475411	 0.691174
H	 -0.339028	 2.239227	 -1.015429
C	 -0.329785	 4.964224	 -0.511710
H	 1.543183	 4.261431	 0.263449
H	 1.356320	 4.025332	 -1.448932
H	 -0.857905	 4.958694	 0.435731
H	 0.021725	 5.973983	 -0.689204
H	 -1.046054	 4.720987	 -1.289127
C	 3.449556	 -0.089977	 -0.000570
H	 3.585694	 0.522473	 -0.879546
H	 4.155805	 -0.904274	 -0.001389
H	 3.586173	 0.521118	 0.879272

	symmetry c1
}
set optking {
	frozen_dihedral = ("
		1 2 4 17
	")
}

ee,wfn = optimize('scf', return_wfn=True)
oeprop( wfn, 'DIPOLE', 'QUADRUPOLE', 'MULLIKEN_CHARGES')
f=open( 'psi4out.xyz', 'w' )
f.write( "20  " )
f.write( str(ee) + "\n" )
f.write( MOL.save_string_xyz() )
f.close()
--------------------------------------------------------------------------

    Molecular point group: c1
  Charge       = 0
  Multiplicity = 1
  Basis Set: CC-PVTZ
  Basis Set:
  @DF-RHF Final Energy:  -384.05769601543278
    Total Energy =                       -384.0576960154324979
    Molecular point group: c1
  Basis Set: CC-PVTZ
  Basis Set:
  Basis Set: CC-PVTZ
  Basis Set:
  @DF-RHF Final Energy:  -384.02144680345197
    Total Energy =                       -384.0214468034513402
  Basis Set: CC-PVTZ
  Basis Set:
  Basis Set: CC-PVTZ
  Basis Set:
  @DF-RHF Final Energy:  -384.06351690189638
    Total Energy =                       -384.0635169018961506
  Basis Set: CC-PVTZ
  Basis Set:
  Basis Set: CC-PVTZ
  Basis Set:
  @DF-RHF Final Energy:  -384.06789764584721
    Total Energy =                       -384.0678976458472107
  Basis Set: CC-PVTZ
  Basis Set:
  @DF-RHF Final Energy:  -384.03683665074044
    Total Energy =                       -384.0368366507402698
  @DF-RHF Final Energy:  -384.06777736690651
    Total Energy =                       -384.0677773669057160
  @DF-RHF Final Energy:  -384.06868513344955
    Total Energy =                       -384.0686851334498897
  @DF-RHF Final Energy:  -384.05906281911888
    Total Energy =                       -384.0590628191189353
  Basis Set: CC-PVTZ
  Basis Set:
  @DF-RHF Final Energy:  -384.06869126151616
    Total Energy =                       -384.0686912615159372
  Basis Set: CC-PVTZ
  Basis Set:
  Basis Set: CC-PVTZ
  Basis Set:
  @DF-RHF Final Energy:  -384.06892111263534
    Total Energy =                       -384.0689211126351665
  Basis Set: CC-PVTZ
  Basis Set:
  Basis Set: CC-PVTZ
  Basis Set:
  @DF-RHF Final Energy:  -384.06892221464096
    Total Energy =                       -384.0689222146407928
  Basis Set: CC-PVTZ
  Basis Set:
  Charge       = 0
  Multiplicity = 1
  Basis Set: CC-PVTZ
  Basis Set:

    Orbital Energies (a.u.)
    -----------------------

    Doubly Occupied:

       1A    -20.594706     2A    -20.527766     3A    -11.366176
       4A    -11.293286     5A    -11.243598     6A    -11.222477
       7A    -11.221289     8A    -11.211547     9A     -1.465823
      10A     -1.367292    11A     -1.093009    12A     -1.017968
      13A     -0.985673    14A     -0.902690    15A     -0.811296
      16A     -0.768123    17A     -0.702255    18A     -0.692154
      19A     -0.675648    20A     -0.650712    21A     -0.602703
      22A     -0.595484    23A     -0.589893    24A     -0.554034
      25A     -0.542247    26A     -0.525007    27A     -0.511036
      28A     -0.483007    29A     -0.476311    30A     -0.474678
      31A     -0.450647    32A     -0.433456

  @DF-RHF Final Energy:  -384.06892304197021

   => Energetics <=

    Nuclear Repulsion Energy =            383.9372541546165962
    One-Electron Energy =               -1283.9083667191503082
    Two-Electron Energy =                 515.9021895225637309
    DFT Exchange-Correlation Energy =       0.0000000000000000
    Empirical Dispersion Energy =           0.0000000000000000
    PCM Polarization Energy =               0.0000000000000000
    EFP Energy =                            0.0000000000000000
    Total Energy =                       -384.0689230419700380
    Molecular point group: c1
  Basis Set: CC-PVTZ
  Basis Set:

  -Total Gradient:
     Atom            X                  Y                   Z
    ------   -----------------  -----------------  -----------------
       1        0.000309713115     0.000661360573     0.000800102081
       2       -0.000319564925    -0.000697206156    -0.000700804043
       3        0.000039605394     0.000017500161     0.000018710061
       4       -0.000238495194    -0.000516478484    -0.000870797783
       5       -0.000021671163     0.000001729143    -0.000013214160
       6       -0.000002577815     0.000001608292    -0.000016326960
       7       -0.000000176989    -0.000003677303     0.000015119497
       8        0.000010994165    -0.000002997102     0.000010026248
       9        0.000004039149    -0.000001402054    -0.000015541861
      10        0.000004920610     0.000012223604     0.000002714045
      11       -0.000014061369     0.000001508381    -0.000000766286
      12       -0.000002480640    -0.000008692978    -0.000002062264
      13       -0.000003564273     0.000001415080     0.000013917427
      14        0.000003187355    -0.000006522746    -0.000008877409
      15       -0.000000007003    -0.000009264309     0.000008159657
      16        0.000004433795     0.000006739464     0.000003819451
      17        0.000210543838     0.000590522573     0.000747204242
      18       -0.000013837272    -0.000002234821    -0.000020651396
      19        0.000016082402    -0.000044051159     0.000024410823
      20        0.000012916825    -0.000002080159     0.000004858631

  **** Optimization is complete! (in 12 steps) ****
    Final optimized geometry and variables:
    Molecular point group: c1

    Geometry (in Angstrom), charge = 0, multiplicity = 1:

    O           -1.047469431558    -1.092895427268     1.337023547499
    C            0.023841880965    -1.002188588705     0.853387054343
    C            0.378382470350     0.028836861918    -0.196104068024
    O            0.974103029842    -1.855569084739     1.231609939996
    C           -0.791699979000     0.931644595566    -0.563095556439
    H            1.212384827550     0.620846621634     0.166525561989
    H            0.742701532519    -0.495616942767    -1.074073392660
    C           -0.418225334566     1.962164107763    -1.624707256652
    H           -1.148106652072     1.432864102650     0.328946405965
    H           -1.615630629846     0.321841925732    -0.913888111019
    C           -1.583595078300     2.871040871967    -2.000112592529
    H            0.409586768496     2.569108560942    -1.266856320446
    H           -0.059072582116     1.452607612353    -2.515196909324
    H           -1.943280154049     3.421017975113    -1.137298056161
    H           -1.291041544281     3.591967158282    -2.754555107243
    H           -2.414965125230     2.296901118212    -2.394390999802
    C            2.325722642072    -1.711744183582     0.876384662730
    H            2.470856862535    -1.756371292857    -0.194571148412
    H            2.840484560969    -2.541707494253     1.332494061582
    H            2.741231393343    -0.789287167767     1.260459879163

  Mulliken Charges: (a.u.)
   Center  Symbol    Alpha    Beta     Spin     Total
       1     O     4.18106  4.18106  0.00000 -0.36213
       2     C     2.80387  2.80387  0.00000  0.39226
       3     C     3.13656  3.13656  0.00000 -0.27312
       4     O     4.12854  4.12854  0.00000 -0.25707
       5     C     3.08072  3.08072  0.00000 -0.16145
       6     H     0.44145  0.44145  0.00000  0.11709
       7     H     0.43965  0.43965  0.00000  0.12069
       8     C     3.08532  3.08532  0.00000 -0.17065
       9     H     0.44402  0.44402  0.00000  0.11197
      10     H     0.44351  0.44351  0.00000  0.11298
      11     C     3.14990  3.14990  0.00000 -0.29980
      12     H     0.45612  0.45612  0.00000  0.08776
      13     H     0.45591  0.45591  0.00000  0.08819
      14     H     0.45312  0.45312  0.00000  0.09375
      15     H     0.44822  0.44822  0.00000  0.10357
      16     H     0.45299  0.45299  0.00000  0.09401
      17     C     3.04601  3.04601  0.00000 -0.09201
      18     H     0.46104  0.46104  0.00000  0.07792
      19     H     0.43229  0.43229  0.00000  0.13541
      20     H     0.45969  0.45969  0.00000  0.08062

   Total alpha = 32.00000, Total beta = 32.00000, Total charge = -0.00000

*** Psi4 exiting successfully. Buy a developer a beer!
