  ==> Input File <==

--------------------------------------------------------------------------
set {
	reference rhf
	basis cc-pvtz
}

set_num_threads( 4 )
memory 2 gb

molecule MOL {
0 1

H	 0.019676	 -3.598580	 -0.873632
O	 0.314108	 -2.771046	 -0.524013
C	 -0.706585	 -1.918735	 -0.543351
C	 -0.318151	 -0.570512	 0.000144
O	 -1.774671	 -2.224993	 -0.947535
C	 -1.454884	 0.441630	 -0.000560
H	 0.068150	 -0.728451	 1.002001
H	 0.523129	 -0.218543	 -0.588298
C	 -2.822577	 -0.232186	 0.000063
H	 -1.359760	 1.084704	 -0.867077
H	 -1.359641	 1.085996	 0.864983
H	 -2.954352	 -0.858985	 -0.875745
H	 -3.615886	 0.505352	 0.000019
H	 -2.953878	 -0.858359	 0.876394

	symmetry c1
}
set optking {
	frozen_dihedral = ("
		7 4 6 10
	")
}

ee = optimize('scf')
oeprop('DIPOLE', 'QUADRUPOLE', 'MULLIKEN_CHARGES')
f=open( 'psi4out.xyz', 'w' )
f.write( "14  " )
f.write( str(ee) + "\n" )
f.write( MOL.save_string_xyz() )
f.close()
--------------------------------------------------------------------------

    Molecular point group: c1
  Charge       = 0
  Multiplicity = 1
  Basis Set: CC-PVTZ
  Basis Set:
  @DF-RHF Final Energy:  -305.97120733651735
    Total Energy =                       -305.9712073365170113
    Molecular point group: c1
  Basis Set: CC-PVTZ
  Basis Set:
  Basis Set: CC-PVTZ
  Basis Set:
  @DF-RHF Final Energy:  -305.98711514283866
    Total Energy =                       -305.9871151428385474
  Basis Set: CC-PVTZ
  Basis Set:
  Basis Set: CC-PVTZ
  Basis Set:
  @DF-RHF Final Energy:  -305.99045225769362
    Total Energy =                       -305.9904522576934482
  Basis Set: CC-PVTZ
  Basis Set:
  Basis Set: CC-PVTZ
  Basis Set:
  @DF-RHF Final Energy:  -305.98695007521565
    Total Energy =                       -305.9869500752157023
  Basis Set: CC-PVTZ
  Basis Set:
  @DF-RHF Final Energy:  -305.99233412375054
    Total Energy =                       -305.9923341237506520
  @DF-RHF Final Energy:  -305.99288045483138
    Total Energy =                       -305.9928804548309245
  @DF-RHF Final Energy:  -305.99344628234985
    Total Energy =                       -305.9934462823500212
  @DF-RHF Final Energy:  -305.99370250009520
    Total Energy =                       -305.9937025000950825
  @DF-RHF Final Energy:  -305.99378660918495
    Total Energy =                       -305.9937866091848946
  @DF-RHF Final Energy:  -305.99380418748683
    Total Energy =                       -305.9938041874868304
  @DF-RHF Final Energy:  -305.99380871655637
    Total Energy =                       -305.9938087165564866
  @DF-RHF Final Energy:  -305.99380994537410
    Total Energy =                       -305.9938099453739824
  Basis Set: CC-PVTZ
  Basis Set:
  @DF-RHF Final Energy:  -305.99375081009447
    Total Energy =                       -305.9937508100945251
  Basis Set: CC-PVTZ
  Basis Set:
  Basis Set: CC-PVTZ
  Basis Set:
  @DF-RHF Final Energy:  -305.99374022170514
    Total Energy =                       -305.9937402217051954
  Basis Set: CC-PVTZ
  Basis Set:
  Basis Set: CC-PVTZ
  Basis Set:
  @DF-RHF Final Energy:  -305.99381019756947
    Total Energy =                       -305.9938101975694735
  Basis Set: CC-PVTZ
  Basis Set:
  Charge       = 0
  Multiplicity = 1
  Basis Set: CC-PVTZ
  Basis Set:

    Orbital Energies (a.u.)
    -----------------------

    Doubly Occupied:

       1A    -20.606165     2A    -20.538581     3A    -11.374897
       4A    -11.239663     5A    -11.229274     6A    -11.208854
       7A     -1.478759     8A     -1.369016     9A     -1.080054
      10A     -0.978268    11A     -0.865809    12A     -0.791751
      13A     -0.706650    14A     -0.687599    15A     -0.659760
      16A     -0.621264    17A     -0.594506    18A     -0.570980
      19A     -0.554356    20A     -0.506200    21A     -0.490973
      22A     -0.481984    23A     -0.477313    24A     -0.442470

  @DF-RHF Final Energy:  -305.99381054598933

   => Energetics <=

    Nuclear Repulsion Energy =            245.5911687316799430
    One-Electron Energy =                -904.0596677410030679
    Two-Electron Energy =                 352.4746884633337345
    DFT Exchange-Correlation Energy =       0.0000000000000000
    Empirical Dispersion Energy =           0.0000000000000000
    PCM Polarization Energy =               0.0000000000000000
    EFP Energy =                            0.0000000000000000
    Total Energy =                       -305.9938105459893336
    Molecular point group: c1
  Basis Set: CC-PVTZ
  Basis Set:

  -Total Gradient:
     Atom            X                  Y                   Z
    ------   -----------------  -----------------  -----------------
       1        0.000003160258    -0.000021387939    -0.000001532620
       2       -0.000015176699    -0.000001946767    -0.000030196206
       3       -0.000036342247     0.000070203114    -0.000039794932
       4       -0.004622187956    -0.005634854731     0.002329830258
       5        0.000012051202    -0.000045044591     0.000010290139
       6       -0.003554114059    -0.004255688916    -0.004578512185
       7        0.004387659866     0.005325485792    -0.001167171380
       8        0.000013191197     0.000019183789     0.000034378058
       9        0.000030702097    -0.000038271430    -0.000011996404
      10        0.003777656079     0.004538821212     0.003467130081
      11       -0.000007242941     0.000028369806    -0.000015484184
      12        0.000002595262     0.000005827095     0.000010415211
      13        0.000007424654    -0.000002916105    -0.000013231440
      14        0.000000623287     0.000012219669     0.000005875602

  **** Optimization is complete! (in 16 steps) ****
    Final optimized geometry and variables:
    Molecular point group: c1

    Geometry (in Angstrom), charge = 0, multiplicity = 1:

    H            0.963976627629    -2.443325657307    -0.153626514346
    O            1.111926686412    -1.647099355276     0.334917390509
    C            0.502119294353    -0.650459449533    -0.297033161127
    C            0.742414564067     0.682285710479     0.356988099149
    O           -0.116183332613    -0.822450745783    -1.291189797459
    C           -0.445343679064     1.662032256769     0.372317580194
    H            1.160851896700     0.554257295118     1.344696086059
    H            1.546738229079     1.124681584234    -0.225456368009
    C           -1.828794400656     1.046624624596     0.550355902675
    H           -0.406580896451     2.298637007331    -0.502616299729
    H           -0.262978222085     2.336429918813     1.203338309537
    H           -2.112782605880     0.445677593654    -0.300731065739
    H           -2.568738302185     1.828173692031     0.675625405242
    H           -1.864335269706     0.418557492239     1.435519227790

  Mulliken Charges: (a.u.)
   Center  Symbol    Alpha    Beta     Spin     Total
       1     H     0.38068  0.38068  0.00000  0.23863
       2     O     4.15973  4.15973  0.00000 -0.31946
       3     C     2.79745  2.79745  0.00000  0.40511
       4     C     3.11056  3.11056  0.00000 -0.22111
       5     O     4.19914  4.19914  0.00000 -0.39828
       6     C     3.07976  3.07976  0.00000 -0.15953
       7     H     0.43407  0.43407  0.00000  0.13186
       8     H     0.43978  0.43978  0.00000  0.12045
       9     C     3.15886  3.15886  0.00000 -0.31771
      10     H     0.44775  0.44775  0.00000  0.10451
      11     H     0.45090  0.45090  0.00000  0.09820
      12     H     0.43763  0.43763  0.00000  0.12474
      13     H     0.44809  0.44809  0.00000  0.10383
      14     H     0.45561  0.45561  0.00000  0.08878

   Total alpha = 24.00000, Total beta = 24.00000, Total charge = -0.00000
