  ==> Input File <==

--------------------------------------------------------------------------
set {
	reference rhf
	basis cc-pvtz
}

set_num_threads( 4 )
memory 2 gb

molecule MOL {
0 1

O	 0.572046	 0.499548	 0.963428
C	 0.029490	 0.077183	 0.000078
C	 -1.232113	 -0.748027	 0.000015
O	 0.472093	 0.280328	 -1.229584
C	 -2.501422	 0.088592	 -0.000052
H	 -1.188777	 -1.400384	 -0.865133
H	 -1.188857	 -1.400312	 0.865225
H	 -2.548170	 0.725504	 -0.873205
H	 -3.371613	 -0.556398	 -0.000040
H	 -2.548215	 0.725571	 0.873047
C	 1.653134	 1.042698	 -1.376463
H	 1.518342	 2.035758	 -0.974098
H	 1.845142	 1.093262	 -2.435898
H	 2.479579	 0.566483	 -0.870050

	symmetry c1
}
set optking {
	frozen_dihedral = ("
		4 2 3 6
	")
}

ee = optimize('scf')
oeprop('DIPOLE', 'QUADRUPOLE', 'MULLIKEN_CHARGES')
f=open( 'psi4out.xyz', 'w' )
f.write( "14  " )
f.write( str(ee) + "\n" )
f.write( MOL.save_string_xyz() )
f.close()
--------------------------------------------------------------------------

    Molecular point group: c1
  Charge       = 0
  Multiplicity = 1
  Basis Set: CC-PVTZ
  Basis Set:
  @DF-RHF Final Energy:  -305.98532652496857
    Total Energy =                       -305.9853265249686842
    Molecular point group: c1
  Basis Set: CC-PVTZ
  Basis Set:
  Basis Set: CC-PVTZ
  Basis Set:
  @DF-RHF Final Energy:  -305.98570554978158
    Total Energy =                       -305.9857055497816418
  Basis Set: CC-PVTZ
  Basis Set:
  Basis Set: CC-PVTZ
  Basis Set:
  @DF-RHF Final Energy:  -305.98604208564251
    Total Energy =                       -305.9860420856426799
  Basis Set: CC-PVTZ
  Basis Set:
  Basis Set: CC-PVTZ
  Basis Set:
  @DF-RHF Final Energy:  -305.98608062069979
    Total Energy =                       -305.9860806206998518
  Basis Set: CC-PVTZ
  Basis Set:
  Charge       = 0
  Multiplicity = 1
  Basis Set: CC-PVTZ
  Basis Set:

    Orbital Energies (a.u.)
    -----------------------

    Doubly Occupied:

       1A    -20.598718     2A    -20.532666     3A    -11.364270
       4A    -11.279160     5A    -11.235719     6A    -11.225417
       7A     -1.472928     8A     -1.365395     9A     -1.068036
      10A     -0.978834    11A     -0.883468    12A     -0.776035
      13A     -0.699903    14A     -0.682904    15A     -0.676312
      16A     -0.618477    17A     -0.598656    18A     -0.568687
      19A     -0.543302    20A     -0.520614    21A     -0.509127
      22A     -0.507505    23A     -0.459612    24A     -0.438050

  @DF-RHF Final Energy:  -305.98608155928036

   => Energetics <=

    Nuclear Repulsion Energy =            248.3972247337701731
    One-Electron Energy =                -909.5590278256183865
    Two-Electron Energy =                 355.1757215325680477
    DFT Exchange-Correlation Energy =       0.0000000000000000
    Empirical Dispersion Energy =           0.0000000000000000
    PCM Polarization Energy =               0.0000000000000000
    EFP Energy =                            0.0000000000000000
    Total Energy =                       -305.9860815592801941
    Molecular point group: c1
  Basis Set: CC-PVTZ
  Basis Set:

  -Total Gradient:
     Atom            X                  Y                   Z
    ------   -----------------  -----------------  -----------------
       1        0.000001252458    -0.000012151962    -0.000045642749
       2       -0.000260718716     0.000411954068    -0.000017094567
       3        0.000210139757    -0.000363448708     0.000195558391
       4        0.000153873822    -0.000260942972     0.000046553863
       5        0.000052353948    -0.000018577848     0.000043192017
       6       -0.000134714016     0.000214106981    -0.000207335821
       7        0.000017543004     0.000015102379    -0.000019937993
       8        0.000005759811    -0.000015593132     0.000016317937
       9       -0.000016897414     0.000003624325    -0.000007652888
      10       -0.000029965289     0.000032397408     0.000001345345
      11       -0.000017931148    -0.000020392778    -0.000002403104
      12        0.000001125376     0.000001567793    -0.000000667743
      13        0.000012160003     0.000010143629    -0.000002891218
      14        0.000006018404     0.000002210816     0.000000658532

  **** Optimization is complete! (in 5 steps) ****
    Final optimized geometry and variables:
    Molecular point group: c1

    Geometry (in Angstrom), charge = 0, multiplicity = 1:

    O            0.709643664077     0.248866727633     1.249275855658
    C            0.179600750347    -0.176670581843     0.279456706371
    C           -1.081201852423    -1.001489221989     0.290279073678
    O            0.620112124723     0.050067003003    -0.946352619669
    C           -2.319182561771    -0.100356739003     0.272261662440
    H           -1.086896430915    -1.658525953249    -0.568307587206
    H           -1.068949331223    -1.597769342006     1.191480544005
    H           -2.347384874333     0.504720945538    -0.625718874670
    H           -3.218406300354    -0.702336245159     0.299187083267
    H           -2.327038114259     0.559437681927     1.130404197042
    C            1.773145457512     0.856868956027    -1.081339548170
    H            1.600392191822     1.840069643402    -0.669452163128
    H            1.966878933064     0.924736597310    -2.139501513052
    H            2.613994696741     0.405857017195    -0.575897818255

  Mulliken Charges: (a.u.)
   Center  Symbol    Alpha    Beta     Spin     Total
       1     O     4.20363  4.20363  0.00000 -0.40727
       2     C     2.79711  2.79711  0.00000  0.40578
       3     C     3.08415  3.08415  0.00000 -0.16829
       4     O     4.14942  4.14942  0.00000 -0.29885
       5     C     3.15055  3.15055  0.00000 -0.30110
       6     H     0.44395  0.44395  0.00000  0.11209
       7     H     0.43996  0.43996  0.00000  0.12007
       8     H     0.44998  0.44998  0.00000  0.10004
       9     H     0.44771  0.44771  0.00000  0.10459
      10     H     0.44492  0.44492  0.00000  0.11016
      11     C     3.03538  3.03538  0.00000 -0.07075
      12     H     0.45446  0.45446  0.00000  0.09109
      13     H     0.44561  0.44561  0.00000  0.10878
      14     H     0.45317  0.45317  0.00000  0.09366

   Total alpha = 24.00000, Total beta = 24.00000, Total charge =  0.00000
