  ==> Input File <==

--------------------------------------------------------------------------
set {
	reference rhf
	basis 6-31G*
}

set_num_threads( 1 )
memory 2 gb

molecule MOL {
0 1

H	 -3.227593	 -1.104104	 -0.144060
O	 -2.401479	 -0.758181	 -0.450080
C	 -2.026376	 0.340750	 0.341611
C	 -0.673256	 0.843270	 -0.132153
H	 -2.763487	 1.137394	 0.258173
H	 -1.969987	 0.054202	 1.391070
C	 0.486613	 -0.083066	 0.235839
H	 -0.715586	 0.970948	 -1.210718
H	 -0.508072	 1.829858	 0.297090
C	 1.840406	 0.433480	 -0.254303
H	 0.300215	 -1.068318	 -0.178947
H	 0.519509	 -0.203625	 1.318070
C	 3.000220	 -0.489290	 0.118523
H	 1.809207	 0.553576	 -1.335192
H	 2.021860	 1.424500	 0.157276
H	 2.864959	 -1.479103	 -0.307933
H	 3.946603	 -0.099227	 -0.243630
H	 3.080049	 -0.602997	 1.196117

	symmetry c1
}
set optking {
	frozen_dihedral = ("
		14 10 7 11,
		10 7 4 8,
		1 2 3 4
	")
}

ee = energy('scf')
oeprop('DIPOLE', 'QUADRUPOLE', 'MULLIKEN_CHARGES')
f=open( 'psi4out.xyz', 'w' )
f.write( "18  " )
f.write( str(ee) + "\n" )
f.write( MOL.save_string_xyz() )
f.close()
--------------------------------------------------------------------------

    Molecular point group: c1

    Geometry (in Angstrom), charge = 0, multiplicity = 1:

       Center              X                  Y                   Z               Mass
    ------------   -----------------  -----------------  -----------------  -----------------
           H         -3.210785343191    -1.124978945620    -0.118198576665     1.007825032070
           O         -2.384671343191    -0.779055945620    -0.424218576665    15.994914619560
           C         -2.009568343191     0.319875054380     0.367472423335    12.000000000000
           C         -0.656448343191     0.822395054380    -0.106291576665    12.000000000000
           H         -2.746679343191     1.116519054380     0.284034423335     1.007825032070
           H         -1.953179343191     0.033327054380     1.416931423335     1.007825032070
           C          0.503420656809    -0.103940945620     0.261700423335    12.000000000000
           H         -0.698778343191     0.950073054380    -1.184856576665     1.007825032070
           H         -0.491264343191     1.808983054380     0.322951423335     1.007825032070
           C          1.857213656809     0.412605054380    -0.228441576665    12.000000000000
           H          0.317022656809    -1.089192945620    -0.153085576665     1.007825032070
           H          0.536316656809    -0.224499945620     1.343931423335     1.007825032070
           C          3.017027656809    -0.510164945620     0.144384423335    12.000000000000
           H          1.826014656809     0.532701054380    -1.309330576665     1.007825032070
           H          2.038667656809     1.403625054380     0.183137423335     1.007825032070
           H          2.881766656809    -1.499977945620    -0.282071576665     1.007825032070
           H          3.963410656809    -0.120101945620    -0.217768576665     1.007825032070
           H          3.096856656809    -0.623871945620     1.221978423335     1.007825032070

  Charge       = 0
  Multiplicity = 1
  Basis Set: 6-31G*
  Basis Set:

    Orbital Energies (a.u.)
    -----------------------

    Doubly Occupied:

       1A    -20.552730     2A    -11.267759     3A    -11.211781
       4A    -11.211401     5A    -11.207706     6A    -11.205105
       7A     -1.359389     8A     -1.075564     9A     -1.009033
      10A     -0.913145    11A     -0.817874    12A     -0.785080
      13A     -0.705199    14A     -0.639134    15A     -0.628038
      16A     -0.579033    17A     -0.570884    18A     -0.559161
      19A     -0.523023    20A     -0.500005    21A     -0.488262
      22A     -0.468181    23A     -0.459682    24A     -0.449301
      25A     -0.427691

  @DF-RHF Final Energy:  -271.17955996737317

   => Energetics <=

    Nuclear Repulsion Energy =            248.5432900178015814
    One-Electron Energy =                -860.2174594818004607
    Two-Electron Energy =                 340.4946094966255714
    DFT Exchange-Correlation Energy =       0.0000000000000000
    Empirical Dispersion Energy =           0.0000000000000000
    PCM Polarization Energy =               0.0000000000000000
    EFP Energy =                            0.0000000000000000
    Total Energy =                       -271.1795599673732795

  Mulliken Charges: (a.u.)
   Center  Symbol    Alpha    Beta     Spin     Total
       1     H     0.28078  0.28078  0.00000  0.43843
       2     O     4.36993  4.36993  0.00000 -0.73986
       3     C     2.99725  2.99725  0.00000  0.00550
       4     C     3.15989  3.15989  0.00000 -0.31977
       5     H     0.42950  0.42950  0.00000  0.14100
       6     H     0.43256  0.43256  0.00000  0.13488
       7     C     3.15375  3.15375  0.00000 -0.30750
       8     H     0.41302  0.41302  0.00000  0.17395
       9     H     0.42419  0.42419  0.00000  0.15162
      10     C     3.15187  3.15187  0.00000 -0.30374
      11     H     0.41007  0.41007  0.00000  0.17985
      12     H     0.42739  0.42739  0.00000  0.14522
      13     C     3.23901  3.23901  0.00000 -0.47802
      14     H     0.42207  0.42207  0.00000  0.15585
      15     H     0.42496  0.42496  0.00000  0.15008
      16     H     0.42090  0.42090  0.00000  0.15821
      17     H     0.42016  0.42016  0.00000  0.15968
      18     H     0.42270  0.42270  0.00000  0.15460

   Total alpha = 25.00000, Total beta = 25.00000, Total charge =  0.00000
