                              Psi4 1.0.54 Driver

  ==> Input File <==

--------------------------------------------------------------------------
set {
	reference rhf
	basis cc-pvtz
}

set_num_threads( 4 )
memory 2 gb

molecule MOL {
0 1

H	 5.269878	 0.195679	 1.068175
C	 4.673900	 -0.208485	 0.258034
C	 3.190199	 -0.204714	 0.610086
H	 4.865136	 0.391893	 -0.624684
H	 5.027838	 -1.214511	 0.056939
C	 2.319208	 -0.778154	 -0.505491
H	 2.876954	 0.809861	 0.827925
H	 3.035335	 -0.782733	 1.518235
C	 2.141805	 -2.291487	 -0.433105
H	 1.344199	 -0.307363	 -0.482241
H	 2.765849	 -0.533043	 -1.464770
C	 1.248654	 -2.772212	 0.698120
H	 1.686938	 -2.653662	 -1.351631
H	 3.102735	 -2.792779	 -0.363553
C	 1.334231	 -4.236548	 1.082525
O	 0.493759	 -2.039478	 1.251752
C	 0.897480	 -5.193677	 -0.031709
H	 0.710717	 -4.371856	 1.955887
H	 2.359973	 -4.457476	 1.365790
C	 0.903931	 -6.652199	 0.418116
H	 -0.102087	 -4.924362	 -0.361755
H	 1.548709	 -5.085485	 -0.893217
C	 0.464007	 -7.615051	 -0.679385
H	 0.251866	 -6.763391	 1.279231
H	 1.902153	 -6.918864	 0.754295
H	 -0.543503	 -7.392586	 -1.014219
H	 1.119625	 -7.553140	 -1.541587
H	 0.476544	 -8.640077	 -0.327993

	symmetry c1
}
set optking {
	frozen_dihedral = ("
		10 6 3 2
	")
}

ee,wfn = optimize('scf', return_wfn=True)
oeprop( wfn, 'DIPOLE', 'QUADRUPOLE', 'MULLIKEN_CHARGES')
f=open( 'psi4out.xyz', 'w' )
f.write( "28  " )
f.write( str(ee) + "\n" )
f.write( MOL.save_string_xyz() )
f.close()
--------------------------------------------------------------------------

    Molecular point group: c1
  Charge       = 0
  Multiplicity = 1
  Basis Set: CC-PVTZ
  Basis Set:
  @DF-RHF Final Energy:  -426.31651827003225
    Total Energy =                       -426.3165182700322475
    Molecular point group: c1
  Basis Set: CC-PVTZ
  Basis Set:
  Basis Set: CC-PVTZ
  Basis Set:
  @DF-RHF Final Energy:  -426.31677669568751
    Total Energy =                       -426.3167766956873947
  Basis Set: CC-PVTZ
  Basis Set:
  Basis Set: CC-PVTZ
  Basis Set:
  @DF-RHF Final Energy:  -426.31615646442810
    Total Energy =                       -426.3161564644283317
  Basis Set: CC-PVTZ
  Basis Set:
  Basis Set: CC-PVTZ
  Basis Set:
  @DF-RHF Final Energy:  -426.31681715693003
    Total Energy =                       -426.3168171569302558
  Basis Set: CC-PVTZ
  Basis Set:
  Basis Set: CC-PVTZ
  Basis Set:
  @DF-RHF Final Energy:  -426.31681698913872
    Total Energy =                       -426.3168169891382604
  Basis Set: CC-PVTZ
  Basis Set:
  Basis Set: CC-PVTZ
  Basis Set:
  @DF-RHF Final Energy:  -426.31682225080328
    Total Energy =                       -426.3168222508038525
  Basis Set: CC-PVTZ
  Basis Set:
  Basis Set: CC-PVTZ
  Basis Set:
  @DF-RHF Final Energy:  -426.31682691197432
    Total Energy =                       -426.3168269119744309
  Basis Set: CC-PVTZ
  Basis Set:
  Charge       = 0
  Multiplicity = 1
  Basis Set: CC-PVTZ
  Basis Set:

    Orbital Energies (a.u.)
    -----------------------

    Doubly Occupied:

       1A    -20.536620     2A    -11.316219     3A    -11.229768
       4A    -11.228381     5A    -11.226817     6A    -11.223741
       7A    -11.214476     8A    -11.214173     9A    -11.211410
      10A    -11.207518    11A     -1.396464    12A     -1.096035
      13A     -1.078550    14A     -1.023055    15A     -0.990944
      16A     -0.910025    17A     -0.878005    18A     -0.809301
      19A     -0.798826    20A     -0.722153    21A     -0.667185
      22A     -0.652153    23A     -0.641809    24A     -0.621638
      25A     -0.603663    26A     -0.598379    27A     -0.577431
      28A     -0.567795    29A     -0.541616    30A     -0.538261
      31A     -0.525456    32A     -0.510043    33A     -0.503301
      34A     -0.485496    35A     -0.480462    36A     -0.476542
      37A     -0.470198    38A     -0.460560    39A     -0.458743
      40A     -0.394334

  @DF-RHF Final Energy:  -426.31682750702930

   => Energetics <=

    Nuclear Repulsion Energy =            534.7210688269467482
    One-Electron Energy =               -1637.9007042244072636
    Two-Electron Energy =                 676.8628078904310996
    DFT Exchange-Correlation Energy =       0.0000000000000000
    Empirical Dispersion Energy =           0.0000000000000000
    PCM Polarization Energy =               0.0000000000000000
    EFP Energy =                            0.0000000000000000
    Total Energy =                       -426.3168275070294158
    Molecular point group: c1
  Basis Set: CC-PVTZ
  Basis Set:

  -Total Gradient:
     Atom            X                  Y                   Z
    ------   -----------------  -----------------  -----------------
       1       -0.000001364382     0.000000846300     0.000000313346
       2       -0.000240153331     0.001950446075    -0.000932302391
       3        0.000577641826    -0.002214485908     0.000820892590
       4       -0.000003196065    -0.000004022246     0.000001863503
       5        0.000003629830     0.000002134777    -0.000000475518
       6       -0.001273329724    -0.001809936713     0.002025812400
       7       -0.000000410906     0.000005669483    -0.000001152283
       8       -0.000002371934    -0.000009095610     0.000008611598
       9        0.000033832104     0.000002439310     0.000009650041
      10        0.000953385257     0.002091869687    -0.001930346905
      11        0.000001974611     0.000004996900    -0.000004212766
      12       -0.000032995386    -0.000002489425     0.000030217516
      13       -0.000016130975     0.000006372792     0.000002425559
      14        0.000005062114     0.000000861695    -0.000014141784
      15       -0.000060072697    -0.000009965652    -0.000053881831
      16        0.000007668040    -0.000013329562    -0.000001661190
      17        0.000029793312    -0.000009398195     0.000016732980
      18        0.000004200835    -0.000005658650     0.000003067154
      19        0.000018561766     0.000015483269     0.000011452487
      20        0.000001593509     0.000000481601     0.000002311221
      21        0.000014644170    -0.000004586610    -0.000003253078
      22       -0.000013899567    -0.000003353094     0.000015016392
      23       -0.000007997328    -0.000008161045     0.000001252203
      24        0.000011019328    -0.000000534229    -0.000009819247
      25       -0.000013838347     0.000005913571    -0.000002206147
      26        0.000013413303    -0.000006392362     0.000001108578
      27       -0.000009241090    -0.000002338865     0.000012420890
      28       -0.000001418271     0.000016232707    -0.000009695315

  **** Optimization is complete! (in 8 steps) ****
    Final optimized geometry and variables:
    Molecular point group: c1

    Geometry (in Angstrom), charge = 0, multiplicity = 1:

    H            3.463837655384     3.497822067269     0.818819901143
    C            2.893603423832     3.064002631335     0.005328993871
    C            1.401893248420     3.041757051740     0.330174582999
    H            3.086155026622     3.652634073245    -0.885140813020
    H            3.284855095204     2.066733673467    -0.170412639591
    C            0.542999518206     2.411645476268    -0.774901318574
    H            1.071785083852     4.062759758380     0.488049661112
    H            1.231787110959     2.528695337697     1.269962273034
    C            0.407341092142     0.895334979565    -0.681316018515
    H           -0.440781748192     2.860386838859    -0.776876940982
    H            0.983317767610     2.652789163429    -1.738275899289
    C           -0.491043136892     0.412261688743     0.444800144632
    H           -0.018658757337     0.504473403260    -1.601664072785
    H            1.377688757519     0.417673245498    -0.584369238501
    C           -0.417931134500    -1.056562777557     0.815914270472
    O           -1.238214106685     1.145994932416     1.007132122647
    C           -0.887672737667    -1.998575890897    -0.297825804038
    H           -1.028839781199    -1.190353272738     1.698372243039
    H            0.608936587025    -1.294915042992     1.080104685976
    C           -0.899482101830    -3.459889019466     0.142519883937
    H           -1.887263529896    -1.710006030068    -0.610856546827
    H           -0.247681541833    -1.895956704116    -1.168313821748
    C           -1.367605374371    -4.408136443781    -0.955961216252
    H           -1.543175091436    -3.566319557525     1.010468655709
    H            0.098149865290    -3.744766547273     0.465145674935
    H           -2.375550335386    -4.167880386754    -1.276792896242
    H           -0.721719834559    -4.350286207433    -1.825723091820
    H           -1.366581401144    -5.435624596463    -0.611711177289

  Mulliken Charges: (a.u.)
   Center  Symbol    Alpha    Beta     Spin     Total
       1     H     0.44744  0.44744  0.00000  0.10513
       2     C     3.14818  3.14818  0.00000 -0.29635
       3     C     3.09001  3.09001  0.00000 -0.18002
       4     H     0.45475  0.45475  0.00000  0.09049
       5     H     0.45897  0.45897  0.00000  0.08206
       6     C     3.09438  3.09438  0.00000 -0.18875
       7     H     0.44749  0.44749  0.00000  0.10502
       8     H     0.44927  0.44927  0.00000  0.10147
       9     C     3.13049  3.13049  0.00000 -0.26099
      10     H     0.43803  0.43803  0.00000  0.12394
      11     H     0.44978  0.44978  0.00000  0.10044
      12     C     2.86487  2.86487  0.00000  0.27026
      13     H     0.43353  0.43353  0.00000  0.13294
      14     H     0.44199  0.44199  0.00000  0.11602
      15     C     3.09316  3.09316  0.00000 -0.18633
      16     O     4.17772  4.17772  0.00000 -0.35543
      17     C     3.10115  3.10115  0.00000 -0.20231
      18     H     0.43773  0.43773  0.00000  0.12454
      19     H     0.44955  0.44955  0.00000  0.10089
      20     C     3.08721  3.08721  0.00000 -0.17442
      21     H     0.44556  0.44556  0.00000  0.10888
      22     H     0.45068  0.45068  0.00000  0.09864
      23     C     3.14922  3.14922  0.00000 -0.29844
      24     H     0.44980  0.44980  0.00000  0.10041
      25     H     0.45363  0.45363  0.00000  0.09274
      26     H     0.45340  0.45340  0.00000  0.09320
      27     H     0.45521  0.45521  0.00000  0.08957
      28     H     0.44680  0.44680  0.00000  0.10640

   Total alpha = 40.00000, Total beta = 40.00000, Total charge = -0.00000

*** Psi4 exiting successfully. Buy a developer a beer!
