                              Psi4 1.0.54 Driver

  ==> Input File <==

--------------------------------------------------------------------------
set {
	reference rhf
	basis cc-pvtz
}

set_num_threads( 4 )
memory 2 gb

molecule MOL {
0 1

H	 2.253382	 -2.247711	 -1.677577
O	 1.940736	 -1.945266	 -0.838247
C	 1.166264	 -0.882097	 -1.036486
C	 0.626018	 -0.337582	 0.258241
O	 0.955426	 -0.451356	 -2.117158
C	 -0.267326	 0.883135	 0.076490
H	 0.107677	 -1.153355	 0.747828
H	 1.480441	 -0.108468	 0.887449
C	 -1.726822	 0.642622	 0.463839
H	 -0.210803	 1.217591	 -0.953497
H	 0.129920	 1.693110	 0.675679
C	 -2.480891	 -0.340606	 -0.429852
H	 -2.243098	 1.597649	 0.438609
H	 -1.776542	 0.301208	 1.495542
C	 -3.955933	 -0.460128	 -0.060472
H	 -2.393755	 -0.020485	 -1.464726
H	 -2.024244	 -1.323637	 -0.374360
H	 -4.467673	 -1.160944	 -0.709827
H	 -4.458917	 0.497287	 -0.144505
H	 -4.076458	 -0.806900	 0.960497

	symmetry c1
}
set optking {
	frozen_dihedral = ("
		7 4 6 10
	")
}

ee,wfn = optimize('scf', return_wfn=True)
oeprop( wfn, 'DIPOLE', 'QUADRUPOLE', 'MULLIKEN_CHARGES')
f=open( 'psi4out.xyz', 'w' )
f.write( "20  " )
f.write( str(ee) + "\n" )
f.write( MOL.save_string_xyz() )
f.close()
--------------------------------------------------------------------------

    Molecular point group: c1
  Charge       = 0
  Multiplicity = 1
  Basis Set: CC-PVTZ
  Basis Set:
  @DF-RHF Final Energy:  -384.09065116445328
    Total Energy =                       -384.0906511644534476
    Molecular point group: c1
  Basis Set: CC-PVTZ
  Basis Set:
  Basis Set: CC-PVTZ
  Basis Set:
  @DF-RHF Final Energy:  -384.09102628791874
    Total Energy =                       -384.0910262879187940
  Basis Set: CC-PVTZ
  Basis Set:
  Basis Set: CC-PVTZ
  Basis Set:
  @DF-RHF Final Energy:  -384.09106664734111
    Total Energy =                       -384.0910666473409947
  Basis Set: CC-PVTZ
  Basis Set:
  Basis Set: CC-PVTZ
  Basis Set:
  @DF-RHF Final Energy:  -384.09110809705544
    Total Energy =                       -384.0911080970558942
  Basis Set: CC-PVTZ
  Basis Set:
  Basis Set: CC-PVTZ
  Basis Set:
  @DF-RHF Final Energy:  -384.09111564267891
    Total Energy =                       -384.0911156426789148
  Basis Set: CC-PVTZ
  Basis Set:
  Basis Set: CC-PVTZ
  Basis Set:
  @DF-RHF Final Energy:  -384.09111705364586
    Total Energy =                       -384.0911170536465988
  Basis Set: CC-PVTZ
  Basis Set:
  Charge       = 0
  Multiplicity = 1
  Basis Set: CC-PVTZ
  Basis Set:

    Orbital Energies (a.u.)
    -----------------------

    Doubly Occupied:

       1A    -20.604316     2A    -20.541322     3A    -11.374252
       4A    -11.239084     5A    -11.219534     6A    -11.216354
       7A    -11.213795     8A    -11.207386     9A     -1.478236
      10A     -1.369551    11A     -1.094654    12A     -1.038828
      13A     -0.961365    14A     -0.870423    15A     -0.814377
      16A     -0.776866    17A     -0.704865    18A     -0.694917
      19A     -0.664465    20A     -0.633346    21A     -0.606162
      22A     -0.593343    23A     -0.576454    24A     -0.555387
      25A     -0.533615    26A     -0.514327    27A     -0.495564
      28A     -0.485356    29A     -0.467345    30A     -0.465233
      31A     -0.454125    32A     -0.448126

  @DF-RHF Final Energy:  -384.09111732750137

   => Energetics <=

    Nuclear Repulsion Energy =            384.6617476838387120
    One-Electron Energy =               -1285.6797861460825061
    Two-Electron Energy =                 516.9269211347427699
    DFT Exchange-Correlation Energy =       0.0000000000000000
    Empirical Dispersion Energy =           0.0000000000000000
    PCM Polarization Energy =               0.0000000000000000
    EFP Energy =                            0.0000000000000000
    Total Energy =                       -384.0911173275010242
    Molecular point group: c1
  Basis Set: CC-PVTZ
  Basis Set:

  -Total Gradient:
     Atom            X                  Y                   Z
    ------   -----------------  -----------------  -----------------
       1       -0.000006426013     0.000011738626     0.000003175221
       2       -0.000025904171    -0.000014574993    -0.000009717683
       3        0.000072934260     0.000001356740     0.000000443203
       4        0.000253041246     0.000468192966     0.001612809231
       5       -0.000007548036    -0.000020233502     0.000012621107
       6        0.001249506876     0.000967722502     0.000012071009
       7       -0.000403880956    -0.000576053935    -0.001354217687
       8        0.000020041690     0.000007154640     0.000021611125
       9        0.000039050318    -0.000006912115     0.000004764057
      10       -0.001179885413    -0.000896414835    -0.000283267931
      11       -0.000022794758     0.000040996618    -0.000004935926
      12       -0.000009639098     0.000012425322    -0.000009982565
      13       -0.000003938091    -0.000010697932     0.000000666544
      14        0.000030559404     0.000002102349     0.000016566831
      15        0.000014435765     0.000005366551    -0.000005215090
      16        0.000007804159    -0.000006615255    -0.000021963767
      17       -0.000026375466     0.000012350093     0.000005003945
      18        0.000001383279     0.000002318246    -0.000000094774
      19        0.000001129962    -0.000001315507    -0.000001292025
      20       -0.000003494957     0.000001093423     0.000000955175

  **** Optimization is complete! (in 7 steps) ****
    Final optimized geometry and variables:
    Molecular point group: c1

    Geometry (in Angstrom), charge = 0, multiplicity = 1:

    H            2.689243232820    -1.957741724329    -1.032579617658
    O            2.371918284528    -1.587628738110    -0.222682851272
    C            1.608269626334    -0.537358529953    -0.511473240419
    C            1.065739591781     0.105587904088     0.739584387122
    O            1.411313078587    -0.194415025429    -1.625741030329
    C            0.167691046443     1.328189443588     0.501140450726
    H            0.544368466307    -0.680249636114     1.274155871558
    H            1.925784681012     0.352940908730     1.350341944887
    C           -1.298007384529     1.112703673690     0.884831825893
    H            0.219979082465     1.605841250296    -0.542752362810
    H            0.555918207006     2.163433351740     1.071201495313
    C           -2.040747802218     0.113344914698     0.000453837055
    H           -1.808987195992     2.069757991837     0.832205687656
    H           -1.359377211662     0.794464146455     1.923475644719
    C           -3.503948981198    -0.053402616053     0.397271856779
    H           -1.978848018089     0.439618968948    -1.033048720271
    H           -1.551742850810    -0.855623503484     0.039383469313
    H           -4.006995166113    -0.763145129483    -0.249162266552
    H           -4.036863305616     0.889283852713     0.331116204339
    H           -3.595839036902    -0.412252743336     1.417224516388

  Mulliken Charges: (a.u.)
   Center  Symbol    Alpha    Beta     Spin     Total
       1     H     0.38253  0.38253  0.00000  0.23494
       2     O     4.16039  4.16039  0.00000 -0.32078
       3     C     2.79838  2.79838  0.00000  0.40324
       4     C     3.12915  3.12915  0.00000 -0.25831
       5     O     4.19238  4.19238  0.00000 -0.38476
       6     C     3.10456  3.10456  0.00000 -0.20912
       7     H     0.43399  0.43399  0.00000  0.13202
       8     H     0.42474  0.42474  0.00000  0.15052
       9     C     3.09716  3.09716  0.00000 -0.19431
      10     H     0.43686  0.43686  0.00000  0.12627
      11     H     0.44110  0.44110  0.00000  0.11780
      12     C     3.08435  3.08435  0.00000 -0.16870
      13     H     0.44812  0.44812  0.00000  0.10377
      14     H     0.45478  0.45478  0.00000  0.09043
      15     C     3.15011  3.15011  0.00000 -0.30022
      16     H     0.44657  0.44657  0.00000  0.10685
      17     H     0.45683  0.45683  0.00000  0.08635
      18     H     0.44750  0.44750  0.00000  0.10501
      19     H     0.45438  0.45438  0.00000  0.09125
      20     H     0.45613  0.45613  0.00000  0.08774

   Total alpha = 32.00000, Total beta = 32.00000, Total charge = -0.00000

*** Psi4 exiting successfully. Buy a developer a beer!
