                              Psi4 1.0.54 Driver

  ==> Input File <==

--------------------------------------------------------------------------
set {
	reference rhf
	basis cc-pvtz
}

set_num_threads( 4 )
memory 2 gb

molecule MOL {
0 1

O	 0.749630	 1.305591	 -0.000460
C	 0.576499	 0.134701	 -0.003900
C	 -0.765656	 -0.550508	 -0.002152
O	 1.564816	 -0.744612	 -0.000631
C	 -1.945526	 0.411052	 0.000603
H	 -0.794329	 -1.203792	 -0.868145
H	 -0.791555	 -1.205429	 0.862701
C	 -3.282915	 -0.321280	 0.002596
H	 -1.880300	 1.059126	 -0.864925
H	 -1.877207	 1.057892	 0.866807
H	 -3.388495	 -0.952755	 -0.873419
H	 -4.107811	 0.380864	 0.004116
H	 -3.385717	 -0.953283	 0.878571
C	 2.693268	 -0.455547	 -0.801285
H	 2.412106	 -0.373646	 -1.840657
H	 3.374128	 -1.279642	 -0.663493
H	 3.156811	 0.467865	 -0.487469

	symmetry c1
}
set optking {
	frozen_dihedral = ("
		14 4 2 1
	")
}

ee,wfn = optimize('scf', return_wfn=True)
oeprop( wfn, 'DIPOLE', 'QUADRUPOLE', 'MULLIKEN_CHARGES')
f=open( 'psi4out.xyz', 'w' )
f.write( "17  " )
f.write( str(ee) + "\n" )
f.write( MOL.save_string_xyz() )
f.close()
--------------------------------------------------------------------------

    Molecular point group: c1
  Charge       = 0
  Multiplicity = 1
  Basis Set: CC-PVTZ
  Basis Set:
  @DF-RHF Final Energy:  -345.02730750110015
    Total Energy =                       -345.0273075011002106
    Molecular point group: c1
  Basis Set: CC-PVTZ
  Basis Set:
  Basis Set: CC-PVTZ
  Basis Set:
  @DF-RHF Final Energy:  -344.94153186613516
    Total Energy =                       -344.9415318661352785
  Basis Set: CC-PVTZ
  Basis Set:
  Basis Set: CC-PVTZ
  Basis Set:
  @DF-RHF Final Energy:  -345.01887760767204
    Total Energy =                       -345.0188776076720956
  Basis Set: CC-PVTZ
  Basis Set:
  Basis Set: CC-PVTZ
  Basis Set:
  @DF-RHF Final Energy:  -345.02650922810074
    Total Energy =                       -345.0265092281006218
  Basis Set: CC-PVTZ
  Basis Set:
  @DF-RHF Final Energy:  -345.02631999663600
    Total Energy =                       -345.0263199966361185
  Basis Set: CC-PVTZ
  Basis Set:
  @DF-RHF Final Energy:  -345.02790410774179
    Total Energy =                       -345.0279041077419038
  Basis Set: CC-PVTZ
  Basis Set:
  Basis Set: CC-PVTZ
  Basis Set:
  @DF-RHF Final Energy:  -345.02792590612745
    Total Energy =                       -345.0279259061275070
  Basis Set: CC-PVTZ
  Basis Set:
  Basis Set: CC-PVTZ
  Basis Set:
  @DF-RHF Final Energy:  -345.02793121955216
    Total Energy =                       -345.0279312195523289
  Basis Set: CC-PVTZ
  Basis Set:
  Charge       = 0
  Multiplicity = 1
  Basis Set: CC-PVTZ
  Basis Set:

    Orbital Energies (a.u.)
    -----------------------

    Doubly Occupied:

       1A    -20.589195     2A    -20.538598     3A    -11.366369
       4A    -11.281890     5A    -11.235134     6A    -11.220636
       7A    -11.213291     8A     -1.467454     9A     -1.367476
      10A     -1.081734    11A     -0.999721    12A     -0.942859
      13A     -0.829861    14A     -0.767797    15A     -0.701952
      16A     -0.682501    17A     -0.676386    18A     -0.636799
      19A     -0.604064    20A     -0.577512    21A     -0.567685
      22A     -0.531443    23A     -0.523844    24A     -0.500016
      25A     -0.489008    26A     -0.479781    27A     -0.458285
      28A     -0.439116

  @DF-RHF Final Energy:  -345.02793095263161

   => Energetics <=

    Nuclear Repulsion Energy =            312.5592590675094584
    One-Electron Energy =               -1089.6335683868956039
    Two-Electron Energy =                 432.0463783667539701
    DFT Exchange-Correlation Energy =       0.0000000000000000
    Empirical Dispersion Energy =           0.0000000000000000
    PCM Polarization Energy =               0.0000000000000000
    EFP Energy =                            0.0000000000000000
    Total Energy =                       -345.0279309526322322
    Molecular point group: c1
  Basis Set: CC-PVTZ
  Basis Set:

  -Total Gradient:
     Atom            X                  Y                   Z
    ------   -----------------  -----------------  -----------------
       1        0.000526943199     0.004233429386     0.008744061525
       2       -0.002677596511    -0.009004441450    -0.014843477330
       3        0.000046293087     0.000212061164     0.000081867536
       4        0.005513545069     0.010225826185     0.009428450434
       5        0.000002127556    -0.000078627906     0.000001052526
       6        0.000010929528    -0.000032454280    -0.000011184831
       7        0.000023875632     0.000028070326     0.000027721044
       8       -0.000015676815     0.000059532910     0.000005935320
       9        0.000004833171     0.000021495667    -0.000036700218
      10        0.000020491758     0.000041160404     0.000015776327
      11       -0.000009891771    -0.000039027985    -0.000018332462
      12        0.000016798376    -0.000009841426    -0.000005700533
      13       -0.000000600697    -0.000021426706     0.000029031594
      14       -0.003473387946    -0.005651353456    -0.003356576846
      15       -0.000010039521    -0.000019001623    -0.000050231747
      16       -0.000010383231    -0.000004009178     0.000006284644
      17        0.000031739121     0.000038607968    -0.000017976982

  **** Optimization is complete! (in 9 steps) ****
    Final optimized geometry and variables:
    Molecular point group: c1

    Geometry (in Angstrom), charge = 0, multiplicity = 1:

    O            0.724856505033     1.217543188572    -0.613773214047
    C            0.590489898069     0.156429043282    -0.112676033181
    C           -0.714184101690    -0.416121421838     0.374037867459
    O            1.615666869192    -0.645551547783     0.177452174438
    C           -1.893790153655     0.537528861674     0.253345038245
    H           -0.889139758879    -1.328696830924    -0.189220087712
    H           -0.561815823033    -0.731439267654     1.400912705338
    C           -3.192080303789    -0.087094705249     0.752610455399
    H           -2.003198705963     0.841950710895    -0.780452099223
    H           -1.680104055307     1.441076229456     0.812133148771
    H           -3.445138014449    -0.977452789595     0.186123378580
    H           -4.016886123228     0.608805184914     0.658408915366
    H           -3.117495758401    -0.371492190825     1.797103492598
    C            2.669136813450    -0.719931626749    -0.762037277877
    H            2.296129657175    -1.070890037571    -1.715602721564
    H            3.377534472392    -1.429909388566    -0.367247555579
    H            3.142748849625     0.241098828208    -0.893710640781

  Mulliken Charges: (a.u.)
   Center  Symbol    Alpha    Beta     Spin     Total
       1     O     4.18700  4.18700  0.00000 -0.37401
       2     C     2.80203  2.80203  0.00000  0.39595
       3     C     3.09804  3.09804  0.00000 -0.19608
       4     O     4.15584  4.15584  0.00000 -0.31169
       5     C     3.07985  3.07985  0.00000 -0.15969
       6     H     0.44495  0.44495  0.00000  0.11010
       7     H     0.43849  0.43849  0.00000  0.12302
       8     C     3.15076  3.15076  0.00000 -0.30152
       9     H     0.44627  0.44627  0.00000  0.10746
      10     H     0.44685  0.44685  0.00000  0.10630
      11     H     0.45615  0.45615  0.00000  0.08770
      12     H     0.44551  0.44551  0.00000  0.10898
      13     H     0.45550  0.45550  0.00000  0.08900
      14     C     3.03708  3.03708  0.00000 -0.07416
      15     H     0.46334  0.46334  0.00000  0.07331
      16     H     0.44539  0.44539  0.00000  0.10923
      17     H     0.44695  0.44695  0.00000  0.10610

   Total alpha = 28.00000, Total beta = 28.00000, Total charge = -0.00000

*** Psi4 exiting successfully. Buy a developer a beer!
