  ==> Input File <==

--------------------------------------------------------------------------
set {
	reference rhf
	basis 6-31G*
}

set_num_threads( 1 )
memory 2 gb

molecule MOL {
0 1

O	 -0.267901	 -2.165704	 0.711429
C	 -1.315188	 -1.711855	 0.377022
C	 -2.597806	 -2.502034	 0.334894
O	 -1.481751	 -0.454642	 0.000584
H	 -2.797025	 -2.895011	 1.324714
H	 -3.431271	 -1.900073	 0.004110
H	 -2.465016	 -3.345564	 -0.331967
C	 -0.334255	 0.388708	 0.000906
C	 0.891947	 -0.504646	 0.000751
H	 -0.365390	 1.025305	 -0.873475
H	 -0.365484	 1.024911	 0.875569
C	 2.191998	 0.301789	 0.000897
H	 0.855148	 -1.151283	 -0.871571
H	 0.855132	 -1.151660	 0.872805
C	 3.441114	 -0.581407	 0.000108
H	 2.215074	 0.954890	 -0.869742
H	 2.215465	 0.953923	 0.872248
C	 4.739576	 0.224112	 -0.001102
H	 3.419457	 -1.233487	 -0.870178
H	 3.420834	 -1.233096	 0.870717
H	 4.804918	 0.861552	 -0.878265
H	 5.606527	 -0.429058	 -0.001824
H	 4.806469	 0.861674	 0.875853

	symmetry c1
}
set optking {
	frozen_dihedral = ("
		13 9 8 10,
		16 12 9 13,
		19 15 12 16,
		1 2 4 8
	")
}

ee = energy('scf')
oeprop('DIPOLE', 'QUADRUPOLE', 'MULLIKEN_CHARGES')
f=open( 'psi4out.xyz', 'w' )
f.write( "23  " )
f.write( str(ee) + "\n" )
f.write( MOL.save_string_xyz() )
f.close()
--------------------------------------------------------------------------

    Molecular point group: c1

    Geometry (in Angstrom), charge = 0, multiplicity = 1:

       Center              X                  Y                   Z               Mass
    ------------   -----------------  -----------------  -----------------  -----------------
           O         -0.845496754382    -1.379742530549     0.550343602411    15.994914619560
           C         -1.892783754382    -0.925893530549     0.215936602411    12.000000000000
           C         -3.175401754382    -1.716072530549     0.173808602411    12.000000000000
           O         -2.059346754382     0.331319469451    -0.160501397589    15.994914619560
           H         -3.374620754382    -2.109049530549     1.163628602411     1.007825032070
           H         -4.008866754382    -1.114111530549    -0.156975397589     1.007825032070
           H         -3.042611754382    -2.559602530549    -0.493052397589     1.007825032070
           C         -0.911850754382     1.174669469451    -0.160179397589    12.000000000000
           C          0.314351245618     0.281315469451    -0.160334397589    12.000000000000
           H         -0.942985754382     1.811266469451    -1.034560397589     1.007825032070
           H         -0.943079754382     1.810872469451     0.714483602411     1.007825032070
           C          1.614402245618     1.087750469451    -0.160188397589    12.000000000000
           H          0.277552245618    -0.365321530549    -1.032656397589     1.007825032070
           H          0.277536245618    -0.365698530549     0.711719602411     1.007825032070
           C          2.863518245618     0.204554469451    -0.160977397589    12.000000000000
           H          1.637478245618     1.740851469451    -1.030827397589     1.007825032070
           H          1.637869245618     1.739884469451     0.711162602411     1.007825032070
           C          4.161980245618     1.010073469451    -0.162187397589    12.000000000000
           H          2.841861245618    -0.447525530549    -1.031263397589     1.007825032070
           H          2.843238245618    -0.447134530549     0.709631602411     1.007825032070
           H          4.227322245618     1.647513469451    -1.039350397589     1.007825032070
           H          5.028931245618     0.356903469451    -0.162909397589     1.007825032070
           H          4.228873245618     1.647635469451     0.714767602411     1.007825032070

  Charge       = 0
  Multiplicity = 1
  Basis Set: 6-31G*
  Basis Set:

    Orbital Energies (a.u.)
    -----------------------

    Doubly Occupied:

       1A    -20.608482     2A    -20.535903     3A    -11.385554
       4A    -11.281583     5A    -11.236717     6A    -11.206290
       7A    -11.201673     8A    -11.200988     9A    -11.183454
      10A     -1.481258    11A     -1.373980    12A     -1.080968
      13A     -1.040067    14A     -0.993347    15A     -0.926139
      16A     -0.852170    17A     -0.793335    18A     -0.770613
      19A     -0.705631    20A     -0.692409    21A     -0.663608
      22A     -0.630265    23A     -0.603247    24A     -0.588651
      25A     -0.575043    26A     -0.562033    27A     -0.555268
      28A     -0.532586    29A     -0.529890    30A     -0.524132
      31A     -0.497938    32A     -0.469117    33A     -0.459128
      34A     -0.442329    35A     -0.435417    36A     -0.369973

  @DF-RHF Final Energy:  -422.90105604085903

   => Energetics <=

    Nuclear Repulsion Energy =            473.2794685648350992
    One-Electron Energy =               -1514.3824337715650472
    Two-Electron Energy =                 618.2019091658685284
    DFT Exchange-Correlation Energy =       0.0000000000000000
    Empirical Dispersion Energy =           0.0000000000000000
    PCM Polarization Energy =               0.0000000000000000
    EFP Energy =                            0.0000000000000000
    Total Energy =                       -422.9010560408614765

  Mulliken Charges: (a.u.)
   Center  Symbol    Alpha    Beta     Spin     Total
       1     O     4.28997  4.28997  0.00000 -0.57994
       2     C     2.60456  2.60456  0.00000  0.79089
       3     C     3.28693  3.28693  0.00000 -0.57386
       4     O     4.31549  4.31549  0.00000 -0.63099
       5     H     0.39687  0.39687  0.00000  0.20627
       6     H     0.39831  0.39831  0.00000  0.20338
       7     H     0.39698  0.39698  0.00000  0.20604
       8     C     2.98999  2.98999  0.00000  0.02003
       9     C     3.19789  3.19789  0.00000 -0.39577
      10     H     0.41140  0.41140  0.00000  0.17719
      11     H     0.41529  0.41529  0.00000  0.16942
      12     C     3.14991  3.14991  0.00000 -0.29982
      13     H     0.42135  0.42135  0.00000  0.15729
      14     H     0.36140  0.36140  0.00000  0.27720
      15     C     3.14853  3.14853  0.00000 -0.29705
      16     H     0.43432  0.43432  0.00000  0.13136
      17     H     0.42974  0.42974  0.00000  0.14052
      18     C     3.23869  3.23869  0.00000 -0.47739
      19     H     0.42372  0.42372  0.00000  0.15255
      20     H     0.42162  0.42162  0.00000  0.15676
      21     H     0.42314  0.42314  0.00000  0.15373
      22     H     0.42070  0.42070  0.00000  0.15860
      23     H     0.42322  0.42322  0.00000  0.15357

   Total alpha = 36.00000, Total beta = 36.00000, Total charge = -0.00000
