                              Psi4 1.0.54 Driver

  ==> Input File <==

--------------------------------------------------------------------------
set {
	reference rhf
	basis cc-pvtz
}

set_num_threads( 4 )
memory 2 gb

molecule MOL {
0 1

H	 1.316084	 -1.399760	 0.315416
C	 0.736191	 -0.478154	 0.391684
N	 -0.537714	 -0.645117	 0.000000
O	 1.220104	 0.536381	 0.783173
C	 -1.522613	 0.412524	 0.000000
H	 -0.805621	 -1.548363	 -0.303900
H	 -2.150256	 0.356137	 -0.880771
H	 -1.005621	 1.357208	 0.000000
H	 -2.150256	 0.356137	 0.880771

	symmetry c1
}
set optking {
	frozen_dihedral = ("
		6 3 5 7
	")
}

ee,wfn = optimize('scf', return_wfn=True)
oeprop( wfn, 'DIPOLE', 'QUADRUPOLE', 'MULLIKEN_CHARGES')
f=open( 'psi4out.xyz', 'w' )
f.write( "9  " )
f.write( str(ee) + "\n" )
f.write( MOL.save_string_xyz() )
f.close()
--------------------------------------------------------------------------

    Molecular point group: c1
  Charge       = 0
  Multiplicity = 1
  Basis Set: CC-PVTZ
  Basis Set:
  @DF-RHF Final Energy:  -208.04348404437764
    Total Energy =                       -208.0434840443775784
    Molecular point group: c1
  Basis Set: CC-PVTZ
  Basis Set:
  Basis Set: CC-PVTZ
  Basis Set:
  @DF-RHF Final Energy:  -208.04357010368904
    Total Energy =                       -208.0435701036889498
  Basis Set: CC-PVTZ
  Basis Set:
  Basis Set: CC-PVTZ
  Basis Set:
  @DF-RHF Final Energy:  -208.04357978629488
    Total Energy =                       -208.0435797862949130
  Basis Set: CC-PVTZ
  Basis Set:
  Basis Set: CC-PVTZ
  Basis Set:
  @DF-RHF Final Energy:  -208.04361955326826
    Total Energy =                       -208.0436195532682859
  Basis Set: CC-PVTZ
  Basis Set:
  @DF-RHF Final Energy:  -208.04363089245436
    Total Energy =                       -208.0436308924543596
  Basis Set: CC-PVTZ
  Basis Set:
  @DF-RHF Final Energy:  -208.04363663985808
    Total Energy =                       -208.0436366398581072
  Basis Set: CC-PVTZ
  Basis Set:
  Basis Set: CC-PVTZ
  Basis Set:
  @DF-RHF Final Energy:  -208.04364030600851
    Total Energy =                       -208.0436403060084558
  Basis Set: CC-PVTZ
  Basis Set:
  Basis Set: CC-PVTZ
  Basis Set:
  @DF-RHF Final Energy:  -208.04364257832100
    Total Energy =                       -208.0436425783210836
  Basis Set: CC-PVTZ
  Basis Set:
  Charge       = 0
  Multiplicity = 1
  Basis Set: CC-PVTZ
  Basis Set:

    Orbital Energies (a.u.)
    -----------------------

    Doubly Occupied:

       1A    -20.516573     2A    -15.584811     3A    -11.337093
       4A    -11.259636     5A     -1.393959     6A     -1.239728
       7A     -0.970099     8A     -0.808454     9A     -0.748787
      10A     -0.646309    11A     -0.629668    12A     -0.596539
      13A     -0.556723    14A     -0.540363    15A     -0.428546
      16A     -0.396372

  @DF-RHF Final Energy:  -208.04364293359663

   => Energetics <=

    Nuclear Repulsion Energy =            122.7813863274477484
    One-Electron Energy =                -526.3427367959809544
    Two-Electron Energy =                 195.5177075349363918
    DFT Exchange-Correlation Energy =       0.0000000000000000
    Empirical Dispersion Energy =           0.0000000000000000
    PCM Polarization Energy =               0.0000000000000000
    EFP Energy =                            0.0000000000000000
    Total Energy =                       -208.0436429335968000
    Molecular point group: c1
  Basis Set: CC-PVTZ
  Basis Set:

  -Total Gradient:
     Atom            X                  Y                   Z
    ------   -----------------  -----------------  -----------------
       1       -0.000000085251     0.000000508530     0.000002879190
       2        0.000001387014     0.000002894731    -0.000039143755
       3        0.000030147700     0.000033029541    -0.000096906104
       4        0.000002460941     0.000005009099     0.000000327365
       5       -0.000073540233    -0.000076608861     0.000086690755
       6       -0.000017951128    -0.000021805731     0.000100085272
       7        0.000064783327     0.000064918468    -0.000058851298
       8        0.000001262025    -0.000002354812     0.000010574633
       9       -0.000008464391    -0.000005590965    -0.000005656059

  **** Optimization is complete! (in 9 steps) ****
    Final optimized geometry and variables:
    Molecular point group: c1

    Geometry (in Angstrom), charge = 0, multiplicity = 1:

    H            1.370978240016    -1.351710945921     0.039516301967
    C            0.775670925009    -0.439559555913     0.112898885148
    N           -0.474584941566    -0.603385916621    -0.350249402054
    O            1.224970069535     0.572210969216     0.549724664149
    C           -1.472420658349     0.441726506044    -0.311095364836
    H           -0.748178866984    -1.517460770139    -0.613936101043
    H           -2.140986316197     0.334432491143    -1.154162917918
    H           -0.979782561755     1.398329093223    -0.373410769386
    H           -2.053065317003     0.412860575499     0.603843543741

  Mulliken Charges: (a.u.)
   Center  Symbol    Alpha    Beta     Spin     Total
       1     H     0.46343  0.46343  0.00000  0.07314
       2     C     2.88081  2.88081  0.00000  0.23838
       3     N     3.60695  3.60695  0.00000 -0.21390
       4     O     4.21427  4.21427  0.00000 -0.42853
       5     C     3.07909  3.07909  0.00000 -0.15818
       6     H     0.41023  0.41023  0.00000  0.17955
       7     H     0.45382  0.45382  0.00000  0.09236
       8     H     0.43604  0.43604  0.00000  0.12792
       9     H     0.45537  0.45537  0.00000  0.08927

   Total alpha = 16.00000, Total beta = 16.00000, Total charge =  0.00000

*** Psi4 exiting successfully. Buy a developer a beer!
