  ==> Input File <==

--------------------------------------------------------------------------
set {
	reference rhf
	basis 6-31G*
}

set_num_threads( 4 )
memory 2 gb

molecule MOL {
0 1

H	 0.702690	 3.240294	 -2.138485
O	 0.157070	 2.756540	 -1.535186
C	 0.933123	 1.800208	 -0.858179
C	 0.031547	 1.023609	 0.088541
H	 1.721039	 2.285737	 -0.285170
H	 1.414783	 1.129275	 -1.565958
C	 -1.134819	 0.293262	 -0.585751
H	 -0.364656	 1.721166	 0.821156
H	 0.648061	 0.310390	 0.633012
C	 -1.917817	 -0.639439	 0.339494
H	 -0.758119	 -0.268455	 -1.433105
H	 -1.813832	 1.041889	 -0.986690
H	 -2.777680	 -1.057197	 -0.174994
H	 -1.310268	 -1.471279	 0.680599
H	 -2.283753	 -0.111424	 1.216626

	symmetry c1
}
set optking {
	frozen_dihedral = ("
		8 4 7 11
	")
}

ee = optimize('scf')
oeprop('DIPOLE', 'QUADRUPOLE', 'MULLIKEN_CHARGES')
f=open( 'psi4out.xyz', 'w' )
f.write( "15  " )
f.write( str(ee) + "\n" )
f.write( MOL.save_string_xyz() )
f.close()
--------------------------------------------------------------------------

    Molecular point group: c1
  Charge       = 0
  Multiplicity = 1
  Basis Set: 6-31G*
  Basis Set:
  @DF-RHF Final Energy:  -232.14448990573550
    Total Energy =                       -232.1444899057355542
    Molecular point group: c1
  Basis Set: 6-31G*
  Basis Set:
  Basis Set: 6-31G*
  Basis Set:
  @DF-RHF Final Energy:  -232.14490727881119
    Total Energy =                       -232.1449072788113881
  Basis Set: 6-31G*
  Basis Set:
  Basis Set: 6-31G*
  Basis Set:
  @DF-RHF Final Energy:  -232.14494382678492
    Total Energy =                       -232.1449438267850951
  Basis Set: 6-31G*
  Basis Set:
  Basis Set: 6-31G*
  Basis Set:
  @DF-RHF Final Energy:  -232.14494568076435
    Total Energy =                       -232.1449456807641809
  Basis Set: 6-31G*
  Basis Set:
  Charge       = 0
  Multiplicity = 1
  Basis Set: 6-31G*
  Basis Set:

    Orbital Energies (a.u.)
    -----------------------

    Doubly Occupied:

       1A    -20.553137     2A    -11.268020     3A    -11.212122
       4A    -11.208597     5A    -11.204920     6A     -1.359859
       7A     -1.064410     8A     -0.973627     9A     -0.856144
      10A     -0.786245    11A     -0.704673    12A     -0.640107
      13A     -0.607814    14A     -0.590291    15A     -0.546020
      16A     -0.531271    17A     -0.510885    18A     -0.475166
      19A     -0.465130    20A     -0.456201    21A     -0.430235

  @DF-RHF Final Energy:  -232.14494603636277

   => Energetics <=

    Nuclear Repulsion Energy =            188.6762656889160610
    One-Electron Energy =                -688.7526702198465500
    Two-Electron Energy =                 267.9314584945678348
    DFT Exchange-Correlation Energy =       0.0000000000000000
    Empirical Dispersion Energy =           0.0000000000000000
    PCM Polarization Energy =               0.0000000000000000
    EFP Energy =                            0.0000000000000000
    Total Energy =                       -232.1449460363626827
    Molecular point group: c1
  Basis Set: 6-31G*
  Basis Set:

  -Total Gradient:
     Atom            X                  Y                   Z
    ------   -----------------  -----------------  -----------------
       1       -0.000003819327     0.000002276520    -0.000000438207
       2       -0.000027589451     0.000016612450    -0.000004285611
       3        0.000009727676     0.000004039072    -0.000032454114
       4       -0.000015064657    -0.001241979083     0.001330338039
       5       -0.000012705523    -0.000026776960     0.000012696405
       6        0.000017715450    -0.000014705187     0.000006454782
       7        0.000297542280    -0.001445538558     0.001006745043
       8       -0.000037129033     0.001271017137    -0.001248929195
       9       -0.000009774317     0.000004768066    -0.000006949712
      10        0.000009243066    -0.000001871954    -0.000005833495
      11       -0.000231945426     0.001403293577    -0.001051787731
      12       -0.000010856657     0.000016493296    -0.000006784530
      13        0.000015915850     0.000016010280     0.000005088154
      14       -0.000002143222    -0.000013822856    -0.000008245649
      15        0.000000883288     0.000010184196     0.000004385823

  **** Optimization is complete! (in 5 steps) ****
    Final optimized geometry and variables:
    Molecular point group: c1

    Geometry (in Angstrom), charge = 0, multiplicity = 1:

    H            1.066374118656     2.162060636332    -1.573297054326
    O            0.528952440322     1.692976874548    -0.951239711995
    C            1.291694870560     0.691185233332    -0.327069567801
    C            0.394326686457    -0.078237441977     0.627515592959
    H            2.120902199693     1.132381139930     0.223243832561
    H            1.713204573757     0.013766642001    -1.068763859530
    C           -0.761517927932    -0.798245770473    -0.070506119309
    H            0.000190800649     0.626169386241     1.355421471869
    H            1.008877948221    -0.794832009729     1.169058158908
    C           -1.536500694742    -1.721846485069     0.867644634738
    H           -0.376003607730    -1.367070372437    -0.914597616844
    H           -1.432438838267    -0.057650674639    -0.491988275721
    H           -2.363111312291    -2.201140334838     0.352327825796
    H           -0.898002046103    -2.504520006042     1.268409940239
    H           -1.947908700130    -1.169893558811     1.708299013410

  Mulliken Charges: (a.u.)
   Center  Symbol    Alpha    Beta     Spin     Total
       1     H     0.28056  0.28056  0.00000  0.43888
       2     O     4.36971  4.36971  0.00000 -0.73942
       3     C     2.99793  2.99793  0.00000  0.00414
       4     C     3.15894  3.15894  0.00000 -0.31789
       5     H     0.42935  0.42935  0.00000  0.14129
       6     H     0.43257  0.43257  0.00000  0.13487
       7     C     3.15242  3.15242  0.00000 -0.30483
       8     H     0.41511  0.41511  0.00000  0.16979
       9     H     0.42435  0.42435  0.00000  0.15130
      10     C     3.23999  3.23999  0.00000 -0.47999
      11     H     0.42615  0.42615  0.00000  0.14770
      12     H     0.40813  0.40813  0.00000  0.18373
      13     H     0.41941  0.41941  0.00000  0.16118
      14     H     0.42387  0.42387  0.00000  0.15225
      15     H     0.42150  0.42150  0.00000  0.15700

   Total alpha = 21.00000, Total beta = 21.00000, Total charge = -0.00000
