  ==> Input File <==

--------------------------------------------------------------------------
set {
	reference rhf
	basis 6-31G*
}

set_num_threads( 4 )
memory 2 gb

molecule MOL {
0 1

H	 -3.420663	 1.227371	 -1.044276
O	 -3.452007	 0.283848	 -0.965577
C	 -3.181085	 -0.079926	 0.364119
C	 -1.765924	 0.277073	 0.805136
H	 -3.327791	 -1.152017	 0.410903
H	 -3.905698	 0.375695	 1.036898
C	 -0.677594	 -0.417312	 -0.014550
H	 -1.637766	 1.358238	 0.744969
H	 -1.659588	 0.017670	 1.857098
C	 0.738335	 -0.034840	 0.421385
H	 -0.814977	 -0.178223	 -1.064632
H	 -0.802730	 -1.495410	 0.071702
C	 1.822265	 -0.738362	 -0.399735
H	 0.853533	 1.043532	 0.342250
H	 0.871597	 -0.279636	 1.474438
C	 2.871604	 -1.486703	 0.430341
H	 2.321811	 -0.009098	 -1.035600
H	 1.343957	 -1.448014	 -1.071622
C	 3.757094	 -0.587998	 1.295582
H	 3.506613	 -2.052648	 -0.246977
H	 2.374224	 -2.219785	 1.062328
H	 4.258054	 0.163837	 0.691493
H	 4.523084	 -1.170537	 1.798318
H	 3.187386	 -0.071609	 2.061048

	symmetry c1
}
set optking {
	frozen_dihedral = ("
		17 13 10 7
	")
}

ee = optimize('scf')
oeprop('DIPOLE', 'QUADRUPOLE', 'MULLIKEN_CHARGES')
f=open( 'psi4out.xyz', 'w' )
f.write( "24  " )
f.write( str(ee) + "\n" )
f.write( MOL.save_string_xyz() )
f.close()
--------------------------------------------------------------------------

    Molecular point group: c1
  Charge       = 0
  Multiplicity = 1
  Basis Set: 6-31G*
  Basis Set:
  @DF-RHF Final Energy:  -349.24260110062067
    Total Energy =                       -349.2426011006206181
    Molecular point group: c1
  Basis Set: 6-31G*
  Basis Set:
  Basis Set: 6-31G*
  Basis Set:
  @DF-RHF Final Energy:  -349.24288115037410
    Total Energy =                       -349.2428811503741031
  Basis Set: 6-31G*
  Basis Set:
  Basis Set: 6-31G*
  Basis Set:
  @DF-RHF Final Energy:  -349.24273066798531
    Total Energy =                       -349.2427306679855974
  Basis Set: 6-31G*
  Basis Set:
  Basis Set: 6-31G*
  Basis Set:
  @DF-RHF Final Energy:  -349.24300342478233
    Total Energy =                       -349.2430034247825006
  Basis Set: 6-31G*
  Basis Set:
  Basis Set: 6-31G*
  Basis Set:
  @DF-RHF Final Energy:  -349.24300771792883
    Total Energy =                       -349.2430077179288332
  Basis Set: 6-31G*
  Basis Set:
  Basis Set: 6-31G*
  Basis Set:
  @DF-RHF Final Energy:  -349.24300938050118
    Total Energy =                       -349.2430093805013485
  Basis Set: 6-31G*
  Basis Set:
  Charge       = 0
  Multiplicity = 1
  Basis Set: 6-31G*
  Basis Set:

    Orbital Energies (a.u.)
    -----------------------

    Doubly Occupied:

       1A    -20.553569     2A    -11.267782     3A    -11.217329
       4A    -11.213968     5A    -11.212544     6A    -11.211543
       7A    -11.211225     8A    -11.207202     9A     -1.360187
      10A     -1.087304    11A     -1.048257    12A     -0.984149
      13A     -0.914307    14A     -0.850672    15A     -0.802815
      16A     -0.775184    17A     -0.679811    18A     -0.650541
      19A     -0.626532    20A     -0.617634    21A     -0.597150
      22A     -0.587232    23A     -0.552058    24A     -0.544907
      25A     -0.516805    26A     -0.504004    27A     -0.500307
      28A     -0.475600    29A     -0.467626    30A     -0.459276
      31A     -0.452189    32A     -0.448710    33A     -0.419130

  @DF-RHF Final Energy:  -349.24300933510608

   => Energetics <=

    Nuclear Repulsion Energy =            384.6379396416278951
    One-Electron Energy =               -1235.7268044521679258
    Two-Electron Energy =                 501.8458554754338934
    DFT Exchange-Correlation Energy =       0.0000000000000000
    Empirical Dispersion Energy =           0.0000000000000000
    PCM Polarization Energy =               0.0000000000000000
    EFP Energy =                            0.0000000000000000
    Total Energy =                       -349.2430093351061373
    Molecular point group: c1
  Basis Set: 6-31G*
  Basis Set:

  -Total Gradient:
     Atom            X                  Y                   Z
    ------   -----------------  -----------------  -----------------
       1        0.000000715535    -0.000002002748     0.000002082756
       2        0.000005020652    -0.000008224618    -0.000006261125
       3       -0.000006121416     0.000024028901     0.000000557227
       4        0.000003087103     0.000003977681    -0.000009464296
       5        0.000003758688     0.000001541625    -0.000000514355
       6       -0.000002258608    -0.000000297259     0.000002919031
       7        0.000003676461    -0.001285793221     0.001047640599
       8       -0.000004031035     0.000000417291     0.000004227037
       9        0.000001361799    -0.000005538672    -0.000003479776
      10        0.000365248749     0.001840497075    -0.001067089523
      11       -0.000001326246    -0.000011636784    -0.000003444380
      12        0.000000930126     0.000002155960     0.000012987959
      13       -0.001865393444    -0.000896108242    -0.001677414948
      14        0.000004176136    -0.000002595386    -0.000008592277
      15        0.000014130869    -0.000024055004    -0.000001941336
      16       -0.000006925861    -0.000020613580     0.000021199097
      17        0.001487878939     0.000363029545     0.001673261681
      18       -0.000020406907     0.000015948636     0.000011351172
      19        0.000005872427     0.000007667947     0.000001254766
      20       -0.000003473375     0.000000788150     0.000001693620
      21        0.000006978929    -0.000007687983    -0.000001891262
      22        0.000010950646     0.000001215293     0.000001492226
      23       -0.000004753837     0.000006828948     0.000004121711
      24        0.000000903679    -0.000003543554    -0.000004695604

  **** Optimization is complete! (in 7 steps) ****
    Final optimized geometry and variables:
    Molecular point group: c1

    Geometry (in Angstrom), charge = 0, multiplicity = 1:

    H           -3.371744002304     1.580482972208    -1.263655648694
    O           -3.411423264909     0.636497540095    -1.195349971479
    C           -3.148830848280     0.256039425663     0.131320017476
    C           -1.733015960824     0.597918134305     0.582405038497
    H           -3.303131355460    -0.815382045246     0.165270442471
    H           -3.873134779381     0.708959834466     0.806171488752
    C           -0.646080810748    -0.091361338748    -0.242454002657
    H           -1.597654900629     1.678976822444     0.537814811506
    H           -1.632330534366     0.323392449174     1.631209728486
    C            0.771528872640     0.269501122450     0.208823132358
    H           -0.775947900728     0.164205331392    -1.289755238710
    H           -0.776772166812    -1.170156950470    -0.173689147508
    C            1.871159292207    -0.422876794062    -0.627789868626
    H            0.896582122848     1.348759518668     0.175182967357
    H            0.878210563687    -0.008482078324     1.255331299267
    C            2.924217626307    -1.163714381631     0.205348156141
    H            2.384419493045     0.311911923282    -1.243571737697
    H            1.412430895972    -1.130401693760    -1.313033189220
    C            3.807597436287    -0.240001227272     1.045290435983
    H            3.557885331508    -1.742208917615    -0.462646202329
    H            2.428487607240    -1.883059927991     0.854394155149
    H            4.348294133947     0.459150713286     0.413033861568
    H            4.540024623990    -0.808262851900     1.610533331952
    H            3.225626911974     0.340353605271     1.754562564962

  Mulliken Charges: (a.u.)
   Center  Symbol    Alpha    Beta     Spin     Total
       1     H     0.28337  0.28337  0.00000  0.43325
       2     O     4.36827  4.36827  0.00000 -0.73654
       3     C     2.99604  2.99604  0.00000  0.00791
       4     C     3.16978  3.16978  0.00000 -0.33956
       5     H     0.41637  0.41637  0.00000  0.16725
       6     H     0.42818  0.42818  0.00000  0.14364
       7     C     3.15402  3.15402  0.00000 -0.30805
       8     H     0.42818  0.42818  0.00000  0.14364
       9     H     0.42242  0.42242  0.00000  0.15516
      10     C     3.15496  3.15496  0.00000 -0.30991
      11     H     0.41173  0.41173  0.00000  0.17655
      12     H     0.42340  0.42340  0.00000  0.15320
      13     C     3.15606  3.15606  0.00000 -0.31211
      14     H     0.42199  0.42199  0.00000  0.15602
      15     H     0.42289  0.42289  0.00000  0.15421
      16     C     3.15371  3.15371  0.00000 -0.30742
      17     H     0.42205  0.42205  0.00000  0.15591
      18     H     0.41781  0.41781  0.00000  0.16439
      19     C     3.24054  3.24054  0.00000 -0.48107
      20     H     0.42183  0.42183  0.00000  0.15634
      21     H     0.42404  0.42404  0.00000  0.15191
      22     H     0.42241  0.42241  0.00000  0.15518
      23     H     0.41970  0.41970  0.00000  0.16061
      24     H     0.42025  0.42025  0.00000  0.15950

   Total alpha = 33.00000, Total beta = 33.00000, Total charge =  0.00000
