                              Psi4 1.0.54 Driver

  ==> Input File <==

--------------------------------------------------------------------------
set {
	reference rhf
	basis cc-pvtz
}

set_num_threads( 4 )
memory 2 gb

molecule MOL {
0 1

H	 -3.401682	 -1.036167	 0.000000
O	 -3.113760	 -0.140926	 0.000000
C	 -1.775087	 -0.058754	 0.000000
C	 -1.084806	 0.741718	 -0.901771
C	 -1.087855	 -0.807533	 0.940863
H	 -1.624990	 1.319733	 -1.628770
C	 0.288338	 0.789257	 -0.858058
H	 -1.639353	 -1.418264	 1.627068
C	 0.287152	 -0.748793	 0.971389
H	 0.832559	 1.402900	 -1.548258
C	 0.991481	 0.044776	 0.078855
H	 0.821337	 -1.329289	 1.700901
C	 2.464567	 0.091658	 0.130646
O	 3.150055	 0.738618	 -0.588871
H	 2.915851	 -0.534221	 0.908090

	symmetry c1
}
set optking {
	frozen_dihedral = ("
		5 3 2 1
	")
}

ee,wfn = optimize('scf', return_wfn=True)
oeprop( wfn, 'DIPOLE', 'QUADRUPOLE', 'MULLIKEN_CHARGES')
f=open( 'psi4out.xyz', 'w' )
f.write( "15  " )
f.write( str(ee) + "\n" )
f.write( MOL.save_string_xyz() )
f.close()
--------------------------------------------------------------------------

    Molecular point group: c1
  Charge       = 0
  Multiplicity = 1
  Basis Set: CC-PVTZ
  Basis Set:
  @DF-RHF Final Energy:  -418.43743261992580
    Total Energy =                       -418.4374326199258576
    Molecular point group: c1
  Basis Set: CC-PVTZ
  Basis Set:
  Basis Set: CC-PVTZ
  Basis Set:
  @DF-RHF Final Energy:  -418.17053424930089
    Total Energy =                       -418.1705342493009994
  Basis Set: CC-PVTZ
  Basis Set:
  Basis Set: CC-PVTZ
  Basis Set:
  @DF-RHF Final Energy:  -418.33578078996590
    Total Energy =                       -418.3357807899659520
  Basis Set: CC-PVTZ
  Basis Set:
  Basis Set: CC-PVTZ
  Basis Set:
  @DF-RHF Final Energy:  -418.43030627675955
    Total Energy =                       -418.4303062767596657
  Basis Set: CC-PVTZ
  Basis Set:
  @DF-RHF Final Energy:  -418.43569970176918
    Total Energy =                       -418.4356997017690674
  @DF-RHF Final Energy:  -418.43873819501266
    Total Energy =                       -418.4387381950125473
  @DF-RHF Final Energy:  -418.43836209578018
    Total Energy =                       -418.4383620957803487
  Basis Set: CC-PVTZ
  Basis Set:
  @DF-RHF Final Energy:  -418.43906261074261
    Total Energy =                       -418.4390626107424396
  Basis Set: CC-PVTZ
  Basis Set:
  Basis Set: CC-PVTZ
  Basis Set:
  @DF-RHF Final Energy:  -418.43910686120159
    Total Energy =                       -418.4391068612018216
  Basis Set: CC-PVTZ
  Basis Set:
  Basis Set: CC-PVTZ
  Basis Set:
  @DF-RHF Final Energy:  -418.43911224996401
    Total Energy =                       -418.4391122499637277
  Basis Set: CC-PVTZ
  Basis Set:
  Charge       = 0
  Multiplicity = 1
  Basis Set: CC-PVTZ
  Basis Set:

    Orbital Energies (a.u.)
    -----------------------

    Doubly Occupied:

       1A    -20.595016     2A    -20.548456     3A    -11.324747
       4A    -11.316866     5A    -11.259273     6A    -11.251608
       7A    -11.242326     8A    -11.240590     9A    -11.237906
      10A     -1.425804    11A     -1.404660    12A     -1.175488
      13A     -1.045921    14A     -1.040406    15A     -0.894007
      16A     -0.860329    17A     -0.803696    18A     -0.758940
      19A     -0.702947    20A     -0.686065    21A     -0.646091
      22A     -0.633164    23A     -0.623552    24A     -0.610041
      25A     -0.568099    26A     -0.558591    27A     -0.549969
      28A     -0.506306    29A     -0.489578    30A     -0.423577
      31A     -0.360579    32A     -0.339559

  @DF-RHF Final Energy:  -418.43911262744325

   => Energetics <=

    Nuclear Repulsion Energy =            401.9461209722315971
    One-Electron Energy =               -1366.5221518403307073
    Two-Electron Energy =                 546.1369182406557456
    DFT Exchange-Correlation Energy =       0.0000000000000000
    Empirical Dispersion Energy =           0.0000000000000000
    PCM Polarization Energy =               0.0000000000000000
    EFP Energy =                            0.0000000000000000
    Total Energy =                       -418.4391126274433645
    Molecular point group: c1
  Basis Set: CC-PVTZ
  Basis Set:

  -Total Gradient:
     Atom            X                  Y                   Z
    ------   -----------------  -----------------  -----------------
       1       -0.000052533347    -0.001852595081    -0.002876571167
       2        0.000166770922     0.003637345372     0.003756114366
       3       -0.000184737011    -0.004240702954    -0.001268633289
       4       -0.000048205723    -0.000028769822     0.000020799821
       5        0.000185476712     0.002501264405     0.000351723973
       6        0.000003799356     0.000003796980    -0.000011756952
       7        0.000010501656    -0.000026480376     0.000028975479
       8        0.000004234624    -0.000000547981     0.000002873536
       9       -0.000061361961    -0.000032674500     0.000029137951
      10       -0.000008259331     0.000007428964    -0.000009412043
      11       -0.000000435510     0.000041260985    -0.000045123690
      12        0.000002474472     0.000003869743     0.000006110746
      13        0.000007004023    -0.000044181855     0.000033320374
      14       -0.000013342904     0.000017191717    -0.000022256382
      15       -0.000011385974     0.000013794402     0.000004697277

  **** Optimization is complete! (in 11 steps) ****
    Final optimized geometry and variables:
    Molecular point group: c1

    Geometry (in Angstrom), charge = 0, multiplicity = 1:

    H           -3.494254273433    -0.689059448598     0.606620199305
    O           -3.118734435312     0.034808156416     0.137031126744
    C           -1.766799860002    -0.024593350381     0.146062624159
    C           -1.097736283063     0.179982704598    -1.052788962346
    C           -1.061516292647    -0.208958536184     1.320457352710
    H           -1.669763557695     0.334437245037    -1.945879882885
    C            0.275577227731     0.181514977799    -1.072813986596
    H           -1.588848862385    -0.336736830307     2.246406453406
    C            0.318924615992    -0.217243714420     1.285791015579
    H            0.807061742586     0.335482404885    -1.990897499157
    C            0.998573417183    -0.022631909567     0.097434110147
    H            0.868911106119    -0.365719990238     2.196763549390
    C            2.475873961060    -0.028069939498     0.084153620523
    O            3.146057029120     0.127791012134    -0.880485121389
    H            2.941816900181    -0.192016931780     1.061902277359

  Mulliken Charges: (a.u.)
   Center  Symbol    Alpha    Beta     Spin     Total
       1     H     0.38378  0.38378  0.00000  0.23244
       2     O     4.17882  4.17882  0.00000 -0.35764
       3     C     2.85930  2.85930  0.00000  0.28139
       4     C     3.10641  3.10641  0.00000 -0.21282
       5     C     3.12288  3.12288  0.00000 -0.24576
       6     H     0.41308  0.41308  0.00000  0.17384
       7     C     3.06422  3.06422  0.00000 -0.12845
       8     H     0.42182  0.42182  0.00000  0.15635
       9     C     3.07627  3.07627  0.00000 -0.15253
      10     H     0.40710  0.40710  0.00000  0.18579
      11     C     2.99805  2.99805  0.00000  0.00389
      12     H     0.42121  0.42121  0.00000  0.15759
      13     C     2.91072  2.91072  0.00000  0.17856
      14     O     4.17631  4.17631  0.00000 -0.35263
      15     H     0.46002  0.46002  0.00000  0.07997

   Total alpha = 32.00000, Total beta = 32.00000, Total charge = -0.00000

*** Psi4 exiting successfully. Buy a developer a beer!
