  ==> Input File <==

--------------------------------------------------------------------------
set {
	reference rhf
	basis 6-31G*
}

set_num_threads( 4 )
memory 2 gb

molecule MOL {
0 1

O	 3.073450	 1.010759	 -0.808943
C	 2.843464	 0.164689	 -0.000222
C	 1.546494	 -0.624492	 -0.000609
C	 3.840143	 -0.178504	 1.087898
C	 0.291004	 0.242674	 0.000989
H	 1.557904	 -1.283758	 -0.867573
H	 1.558622	 -1.285963	 0.864672
C	 -0.994322	 -0.586602	 0.000262
H	 0.309117	 0.896430	 -0.865270
H	 0.309661	 0.894078	 0.869017
C	 -2.259874	 0.272531	 0.000494
H	 -1.004862	 -1.240012	 -0.870939
H	 -1.005220	 -1.241071	 0.870675
C	 -3.549786	 -0.549746	 -0.000374
H	 -2.250389	 0.926680	 -0.869574
H	 -2.250838	 0.925513	 0.871430
C	 -4.809590	 0.315458	 -0.000369
H	 -3.560515	 -1.202009	 -0.871156
H	 -3.561123	 -1.202955	 0.869711
H	 -4.844746	 0.956611	 -0.876632
H	 -5.706986	 -0.295590	 -0.001609
H	 -4.845960	 0.954827	 0.877144
H	 4.125749	 -1.224437	 1.024088
H	 4.719249	 0.442559	 0.986479
H	 3.398597	 -0.024359	 2.068159

	symmetry c1
}
set optking {
	frozen_dihedral = ("
		1 2 3 6
	")
}

ee = optimize('scf')
oeprop('DIPOLE', 'QUADRUPOLE', 'MULLIKEN_CHARGES')
f=open( 'psi4out.xyz', 'w' )
f.write( "25  " )
f.write( str(ee) + "\n" )
f.write( MOL.save_string_xyz() )
f.close()
--------------------------------------------------------------------------

    Molecular point group: c1
  Charge       = 0
  Multiplicity = 1
  Basis Set: 6-31G*
  Basis Set:
  @DF-RHF Final Energy:  -387.13414023479646
    Total Energy =                       -387.1341402347959502
    Molecular point group: c1
  Basis Set: 6-31G*
  Basis Set:
  Basis Set: 6-31G*
  Basis Set:
  @DF-RHF Final Energy:  -387.13471404196923
    Total Energy =                       -387.1347140419688913
  Basis Set: 6-31G*
  Basis Set:
  Basis Set: 6-31G*
  Basis Set:
  @DF-RHF Final Energy:  -387.13315304642049
    Total Energy =                       -387.1331530464209436
  Basis Set: 6-31G*
  Basis Set:
  Basis Set: 6-31G*
  Basis Set:
  @DF-RHF Final Energy:  -387.13483429680747
    Total Energy =                       -387.1348342968078668
  Basis Set: 6-31G*
  Basis Set:
  Basis Set: 6-31G*
  Basis Set:
  @DF-RHF Final Energy:  -387.13484625035460
    Total Energy =                       -387.1348462503548262
  Basis Set: 6-31G*
  Basis Set:
  Charge       = 0
  Multiplicity = 1
  Basis Set: 6-31G*
  Basis Set:

    Orbital Energies (a.u.)
    -----------------------

    Doubly Occupied:

       1A    -20.548072     2A    -11.325691     3A    -11.230210
       4A    -11.228608     5A    -11.222644     6A    -11.218830
       7A    -11.216615     8A    -11.215340     9A    -11.209325
      10A     -1.394143    11A     -1.095311    12A     -1.056635
      13A     -1.014054    14A     -0.970181    15A     -0.891608
      16A     -0.815227    17A     -0.792647    18A     -0.731091
      19A     -0.664848    20A     -0.648596    21A     -0.635558
      22A     -0.614570    23A     -0.599764    24A     -0.585510
      25A     -0.567932    26A     -0.560299    27A     -0.540425
      28A     -0.533455    29A     -0.511447    30A     -0.493479
      31A     -0.487401    32A     -0.473406    33A     -0.465351
      34A     -0.464273    35A     -0.450863    36A     -0.396673

  @DF-RHF Final Energy:  -387.13484664919650

   => Energetics <=

    Nuclear Repulsion Energy =            438.4358561378181207
    One-Electron Energy =               -1393.4012330061336797
    Two-Electron Energy =                 567.8305302191183728
    DFT Exchange-Correlation Energy =       0.0000000000000000
    Empirical Dispersion Energy =           0.0000000000000000
    PCM Polarization Energy =               0.0000000000000000
    EFP Energy =                            0.0000000000000000
    Total Energy =                       -387.1348466491972431
    Molecular point group: c1
  Basis Set: 6-31G*
  Basis Set:

  -Total Gradient:
     Atom            X                  Y                   Z
    ------   -----------------  -----------------  -----------------
       1        0.000398909373    -0.000655140670    -0.000624979155
       2       -0.000669607704     0.001074456845     0.000754629099
       3        0.000715921255    -0.001117078831     0.000325864330
       4       -0.000025499819     0.000012415093     0.000021565742
       5        0.000024746194     0.000010753592     0.000062122784
       6       -0.000454283920     0.000671014177    -0.000491528001
       7       -0.000003986923     0.000009427409     0.000014372051
       8        0.000004018683    -0.000017064554    -0.000021018966
       9       -0.000008209255     0.000018145098     0.000026056044
      10        0.000007805389     0.000002336610    -0.000006330584
      11        0.000009721074     0.000007886259    -0.000024962059
      12        0.000001743766    -0.000021664462     0.000002185267
      13        0.000001873050     0.000014315761     0.000004151769
      14        0.000001781941    -0.000003180360    -0.000008222278
      15       -0.000010534989     0.000007420025    -0.000003251977
      16        0.000003991375    -0.000002550231    -0.000004082761
      17        0.000002054062     0.000002183014     0.000005195800
      18       -0.000000337493     0.000001974559     0.000000050515
      19        0.000001574256    -0.000001865983     0.000000200373
      20        0.000000222029    -0.000001203281    -0.000000558296
      21        0.000001466329    -0.000000911581     0.000001784730
      22       -0.000000581422     0.000001666938    -0.000000475193
      23       -0.000006382626    -0.000002205867    -0.000016970731
      24       -0.000006975705    -0.000002250057    -0.000011576164
      25        0.000010571074    -0.000008879506    -0.000004222339

  **** Optimization is complete! (in 6 steps) ****
    Final optimized geometry and variables:
    Molecular point group: c1

    Geometry (in Angstrom), charge = 0, multiplicity = 1:

    O            2.986410021481     1.007787661081    -0.838737802215
    C            2.842326075873     0.153410773219    -0.018185190645
    C            1.562359054134    -0.667105791219     0.039932174316
    C            3.925525666364    -0.174121034501     0.984059424376
    C            0.305416479893     0.209611244319     0.024084710957
    H            1.563016533382    -1.308063231738    -0.839315513591
    H            1.565707805516    -1.317145395653     0.909693043873
    C           -0.984595063096    -0.610817392625    -0.010570167532
    H            0.353233086076     0.866084362125    -0.837262515525
    H            0.302799022635     0.851240204259     0.903050808609
    C           -2.244322081877     0.256747616784    -0.028194763062
    H           -0.977899557126    -1.253101073741    -0.889613533033
    H           -1.017278406793    -1.274726567980     0.851865193339
    C           -3.538686438494    -0.557553722860    -0.069094377725
    H           -2.210703776854     0.921527677886    -0.889418099758
    H           -2.252029212149     0.898501445055     0.851280484725
    C           -4.792940672108     0.315488694611    -0.085115252308
    H           -3.533596427668    -1.197449414420    -0.948928471345
    H           -3.573228712828    -1.222623828604     0.791330367950
    H           -4.804962424397     0.968320861057    -0.953286956989
    H           -5.693563976213    -0.289996406048    -0.114294648025
    H           -4.845016139289     0.943316067165     0.799948716134
    H            4.201624812910    -1.222345669479     0.908978939448
    H            4.793435318142     0.445973502351     0.808360232222
    H            3.558453216087    -0.011856335654     1.993967447012

  Mulliken Charges: (a.u.)
   Center  Symbol    Alpha    Beta     Spin     Total
       1     O     4.26366  4.26366  0.00000 -0.52732
       2     C     2.73449  2.73449  0.00000  0.53102
       3     C     3.20578  3.20578  0.00000 -0.41155
       4     C     3.28884  3.28884  0.00000 -0.57769
       5     C     3.15635  3.15635  0.00000 -0.31270
       6     H     0.40286  0.40286  0.00000  0.19427
       7     H     0.41563  0.41563  0.00000  0.16873
       8     C     3.15301  3.15301  0.00000 -0.30602
       9     H     0.40258  0.40258  0.00000  0.19485
      10     H     0.42071  0.42071  0.00000  0.15858
      11     C     3.15126  3.15126  0.00000 -0.30253
      12     H     0.42231  0.42231  0.00000  0.15538
      13     H     0.42446  0.42446  0.00000  0.15108
      14     C     3.15169  3.15169  0.00000 -0.30338
      15     H     0.42141  0.42141  0.00000  0.15719
      16     H     0.42355  0.42355  0.00000  0.15290
      17     C     3.23942  3.23942  0.00000 -0.47884
      18     H     0.42274  0.42274  0.00000  0.15453
      19     H     0.42354  0.42354  0.00000  0.15293
      20     H     0.42100  0.42100  0.00000  0.15799
      21     H     0.41921  0.41921  0.00000  0.16157
      22     H     0.42169  0.42169  0.00000  0.15661
      23     H     0.40839  0.40839  0.00000  0.18321
      24     H     0.39724  0.39724  0.00000  0.20553
      25     H     0.40818  0.40818  0.00000  0.18364

   Total alpha = 36.00000, Total beta = 36.00000, Total charge =  0.00000
