                              Psi4 1.0.54 Driver

  ==> Input File <==

--------------------------------------------------------------------------
set {
	reference rhf
	basis cc-pvtz
}

set_num_threads( 4 )
memory 2 gb

molecule MOL {
0 1

O	 -2.817697	 1.304178	 0.001046
C	 -2.664672	 0.129869	 0.003507
C	 -3.797908	 -0.860100	 -0.001145
O	 -1.481217	 -0.452708	 0.001092
H	 -4.408836	 -0.679689	 -0.875387
H	 -3.443486	 -1.878443	 -0.002770
H	 -4.412123	 -0.683688	 0.871605
C	 -0.332055	 0.384012	 -0.000250
C	 0.892252	 -0.506059	 -0.000295
H	 -0.360822	 1.020205	 -0.874146
H	 -0.359817	 1.021310	 0.872861
C	 2.188199	 0.299473	 -0.001416
H	 0.857046	 -1.152781	 -0.871031
H	 0.857910	 -1.151798	 0.871202
C	 3.437151	 -0.577593	 -0.000991
H	 2.209565	 0.950707	 -0.871712
H	 2.210062	 0.952234	 0.867721
C	 4.593309	 0.029299	 0.786403
H	 3.751612	 -0.753163	 -1.025855
H	 3.190662	 -1.551225	 0.412978
H	 4.885920	 0.989395	 0.374772
H	 5.462871	 -0.617226	 0.767025
H	 4.320503	 0.185450	 1.824693

	symmetry c1
}
set optking {
	frozen_dihedral = ("
		19 15 12 16
	")
}

ee,wfn = optimize('scf', return_wfn=True)
oeprop( wfn, 'DIPOLE', 'QUADRUPOLE', 'MULLIKEN_CHARGES')
f=open( 'psi4out.xyz', 'w' )
f.write( "23  " )
f.write( str(ee) + "\n" )
f.write( MOL.save_string_xyz() )
f.close()
--------------------------------------------------------------------------

    Molecular point group: c1
  Charge       = 0
  Multiplicity = 1
  Basis Set: CC-PVTZ
  Basis Set:
  @DF-RHF Final Energy:  -423.13125101058591
    Total Energy =                       -423.1312510105857427
    Molecular point group: c1
  Basis Set: CC-PVTZ
  Basis Set:
  Basis Set: CC-PVTZ
  Basis Set:
  @DF-RHF Final Energy:  -423.13135273918982
    Total Energy =                       -423.1313527391896514
  Basis Set: CC-PVTZ
  Basis Set:
  Basis Set: CC-PVTZ
  Basis Set:
  @DF-RHF Final Energy:  -423.13148936305481
    Total Energy =                       -423.1314893630548113
  Basis Set: CC-PVTZ
  Basis Set:
  Basis Set: CC-PVTZ
  Basis Set:
  @DF-RHF Final Energy:  -423.13159442406726
    Total Energy =                       -423.1315944240678846
  Basis Set: CC-PVTZ
  Basis Set:
  Basis Set: CC-PVTZ
  Basis Set:
  @DF-RHF Final Energy:  -423.13161791219022
    Total Energy =                       -423.1316179121904497
  Basis Set: CC-PVTZ
  Basis Set:
  Charge       = 0
  Multiplicity = 1
  Basis Set: CC-PVTZ
  Basis Set:

    Orbital Energies (a.u.)
    -----------------------

    Doubly Occupied:

       1A    -20.595887     2A    -20.529490     3A    -11.366360
       4A    -11.279222     5A    -11.230651     6A    -11.222311
       7A    -11.221345     8A    -11.219471     9A    -11.210897
      10A     -1.471129    11A     -1.363963    12A     -1.094281
      13A     -1.042624    14A     -1.004109    15A     -0.931288
      16A     -0.842352    17A     -0.802738    18A     -0.775984
      19A     -0.694530    20A     -0.688299    21A     -0.671731
      22A     -0.645300    23A     -0.609219    24A     -0.590660
      25A     -0.584013    26A     -0.570795    27A     -0.555328
      28A     -0.536621    29A     -0.525495    30A     -0.504521
      31A     -0.495527    32A     -0.476143    33A     -0.468771
      34A     -0.465697    35A     -0.455275    36A     -0.438650

  @DF-RHF Final Energy:  -423.13161921749213

   => Energetics <=

    Nuclear Repulsion Energy =            450.5707305330932968
    One-Electron Energy =               -1469.0433475617480781
    Two-Electron Energy =                 595.3409978111620831
    DFT Exchange-Correlation Energy =       0.0000000000000000
    Empirical Dispersion Energy =           0.0000000000000000
    PCM Polarization Energy =               0.0000000000000000
    EFP Energy =                            0.0000000000000000
    Total Energy =                       -423.1316192174926982
    Molecular point group: c1
  Basis Set: CC-PVTZ
  Basis Set:

  -Total Gradient:
     Atom            X                  Y                   Z
    ------   -----------------  -----------------  -----------------
       1        0.000015858347    -0.000010916137    -0.000020061061
       2        0.000010904996     0.000003174405     0.000050977835
       3       -0.000001239514    -0.000000253375    -0.000011421916
       4       -0.000008962006     0.000003550627    -0.000034209447
       5        0.000008865312     0.000004557967     0.000003130719
       6       -0.000001572874    -0.000004702981     0.000002004384
       7        0.000005176512    -0.000003286396    -0.000004599281
       8       -0.000007540265     0.000014458318    -0.000035314173
       9       -0.000011772435     0.000000487485    -0.000047180058
      10        0.000006295189     0.000013765045     0.000005276640
      11       -0.000010260004    -0.000010288915     0.000011689145
      12        0.003422291486     0.004587842178     0.002860621966
      13        0.000005569351    -0.000047540037     0.000029853200
      14       -0.000004090642     0.000036802818     0.000031049496
      15       -0.003755507598    -0.005155560232    -0.000733206442
      16       -0.002273231585    -0.002992156084    -0.002293394001
      17        0.000000553985    -0.000036141014     0.000031582501
      18        0.000012403483     0.000008812286    -0.000025034178
      19        0.002589168074     0.003568974318     0.000134677769
      20       -0.000008581110     0.000012647336     0.000041518657
      21       -0.000019366031     0.000026988212     0.000017284383
      22        0.000018091307     0.000009308954    -0.000030616672
      23        0.000006946025    -0.000030524775     0.000015370534

  **** Optimization is complete! (in 6 steps) ****
    Final optimized geometry and variables:
    Molecular point group: c1

    Geometry (in Angstrom), charge = 0, multiplicity = 1:

    O           -2.805174996701     1.329969782548    -0.137120540561
    C           -2.653908057215     0.155600329668    -0.115023132454
    C           -3.788505365669    -0.833021563730    -0.119544725865
    O           -1.471471672154    -0.427980682194    -0.084167400598
    H           -4.385122991088    -0.667602722464    -1.006595418006
    H           -3.435613577566    -1.851692804350    -0.097158015108
    H           -4.416244530732    -0.640100874596     0.740057428590
    C           -0.321702243227     0.407490572220    -0.077088857411
    C            0.901550501363    -0.482889197477    -0.039949330001
    H           -0.333179915928     1.030205117115    -0.961133535479
    H           -0.364663810928     1.058906588867     0.785204505520
    C            2.200305007923     0.322141202346    -0.020534020896
    H            0.886272445294    -1.139578703402    -0.904297102266
    H            0.848017911473    -1.119379753958     0.837360739887
    C            3.450119403857    -0.567617557302    -0.071547755869
    H            2.197265976361     0.984087870431    -0.881567565218
    H            2.222935503826     0.946613845565     0.867143971913
    C            4.648552192091     0.050914503170     0.644694390714
    H            3.729851832643    -0.731463403399    -1.107126438891
    H            3.235192641385    -1.538204687519     0.362644869642
    H            4.887633505603     1.026399415663     0.233735618424
    H            5.529489177317    -0.573218753789     0.547380010726
    H            4.448060977039     0.180119018028     1.703000369086

  Mulliken Charges: (a.u.)
   Center  Symbol    Alpha    Beta     Spin     Total
       1     O     4.20244  4.20244  0.00000 -0.40488
       2     C     2.81506  2.81506  0.00000  0.36988
       3     C     3.13999  3.13999  0.00000 -0.27999
       4     O     4.14480  4.14480  0.00000 -0.28959
       5     H     0.44212  0.44212  0.00000  0.11577
       6     H     0.44187  0.44187  0.00000  0.11625
       7     H     0.44213  0.44213  0.00000  0.11574
       8     C     2.97918  2.97918  0.00000  0.04165
       9     C     3.08260  3.08260  0.00000 -0.16519
      10     H     0.45411  0.45411  0.00000  0.09179
      11     H     0.45419  0.45419  0.00000  0.09163
      12     C     3.09904  3.09904  0.00000 -0.19809
      13     H     0.45016  0.45016  0.00000  0.09968
      14     H     0.45112  0.45112  0.00000  0.09775
      15     C     3.08564  3.08564  0.00000 -0.17129
      16     H     0.45176  0.45176  0.00000  0.09649
      17     H     0.45221  0.45221  0.00000  0.09559
      18     C     3.14846  3.14846  0.00000 -0.29692
      19     H     0.45196  0.45196  0.00000  0.09607
      20     H     0.45329  0.45329  0.00000  0.09341
      21     H     0.45386  0.45386  0.00000  0.09229
      22     H     0.44863  0.44863  0.00000  0.10273
      23     H     0.45538  0.45538  0.00000  0.08924

   Total alpha = 36.00000, Total beta = 36.00000, Total charge = -0.00000

*** Psi4 exiting successfully. Buy a developer a beer!
