                              Psi4 1.0.54 Driver

  ==> Input File <==

--------------------------------------------------------------------------
set {
	reference rhf
	basis cc-pvtz
}

set_num_threads( 4 )
memory 2 gb

molecule MOL {
0 1

O	 -2.081319	 -0.951530	 -0.502732
N	 -1.613558	 0.006676	 0.014756
C	 -0.329345	 -0.171618	 0.743966
O	 -2.068523	 1.100482	 -0.024385
C	 0.835904	 0.041968	 -0.213982
H	 -0.346048	 -1.174374	 1.137184
H	 -0.333613	 0.555559	 1.538590
C	 2.116917	 0.393488	 0.538085
H	 0.983287	 -0.860551	 -0.795613
H	 0.581880	 0.837244	 -0.905174
C	 3.298239	 0.619755	 -0.398806
H	 2.356278	 -0.403706	 1.235670
H	 1.952141	 1.286257	 1.134087
H	 3.508136	 -0.268288	 -0.984486
H	 3.100021	 1.432778	 -1.088312
H	 4.192691	 0.868410	 0.159125

	symmetry c1
}
set optking {
	frozen_dihedral = ("
		9 5 3 2
	")
}

ee,wfn = optimize('scf', return_wfn=True)
oeprop( wfn, 'DIPOLE', 'QUADRUPOLE', 'MULLIKEN_CHARGES')
f=open( 'psi4out.xyz', 'w' )
f.write( "16  " )
f.write( str(ee) + "\n" )
f.write( MOL.save_string_xyz() )
f.close()
--------------------------------------------------------------------------

    Molecular point group: c1
  Charge       = 0
  Multiplicity = 1
  Basis Set: CC-PVTZ
  Basis Set:
  @DF-RHF Final Energy:  -360.90794275946308
    Total Energy =                       -360.9079427594628555
    Molecular point group: c1
  Basis Set: CC-PVTZ
  Basis Set:
  Basis Set: CC-PVTZ
  Basis Set:
  @DF-RHF Final Energy:  -360.90493810420014
    Total Energy =                       -360.9049381042006530
  Basis Set: CC-PVTZ
  Basis Set:
  Basis Set: CC-PVTZ
  Basis Set:
  @DF-RHF Final Energy:  -360.90806990745017
    Total Energy =                       -360.9080699074501126
  Basis Set: CC-PVTZ
  Basis Set:
  Basis Set: CC-PVTZ
  Basis Set:
  @DF-RHF Final Energy:  -360.90746587473086
    Total Energy =                       -360.9074658747310309
  Basis Set: CC-PVTZ
  Basis Set:
  Basis Set: CC-PVTZ
  Basis Set:
  @DF-RHF Final Energy:  -360.90808862974546
    Total Energy =                       -360.9080886297453503
  Basis Set: CC-PVTZ
  Basis Set:
  Basis Set: CC-PVTZ
  Basis Set:
  @DF-RHF Final Energy:  -360.90811260572633
    Total Energy =                       -360.9081126057267284
  Basis Set: CC-PVTZ
  Basis Set:
  Charge       = 0
  Multiplicity = 1
  Basis Set: CC-PVTZ
  Basis Set:

    Orbital Energies (a.u.)
    -----------------------

    Doubly Occupied:

       1A    -20.589708     2A    -20.589410     3A    -15.836088
       4A    -11.296359     5A    -11.251186     6A    -11.241418
       7A    -11.225678     8A     -1.635141     9A     -1.419354
      10A     -1.136069    11A     -1.060032    12A     -0.948730
      13A     -0.843473    14A     -0.828943    15A     -0.758434
      16A     -0.737571    17A     -0.728108    18A     -0.677150
      19A     -0.617979    20A     -0.607277    21A     -0.566345
      22A     -0.545014    23A     -0.515862    24A     -0.503459
      25A     -0.496510    26A     -0.485476    27A     -0.469810
      28A     -0.452460

  @DF-RHF Final Energy:  -360.90811306577041

   => Energetics <=

    Nuclear Repulsion Energy =            313.1132383819279994
    One-Electron Energy =               -1111.9166175954578648
    Two-Electron Energy =                 437.8952661477594006
    DFT Exchange-Correlation Energy =       0.0000000000000000
    Empirical Dispersion Energy =           0.0000000000000000
    PCM Polarization Energy =               0.0000000000000000
    EFP Energy =                            0.0000000000000000
    Total Energy =                       -360.9081130657704648
    Molecular point group: c1
  Basis Set: CC-PVTZ
  Basis Set:

  -Total Gradient:
     Atom            X                  Y                   Z
    ------   -----------------  -----------------  -----------------
       1       -0.000066073663     0.000159907634     0.000014169441
       2        0.000248345748     0.002347986073     0.001025793733
       3        0.000265964614    -0.003730342338    -0.000692054746
       4       -0.000098999488    -0.000031142463    -0.000104616412
       5       -0.002399494062     0.003013836679    -0.002664604248
       6        0.000013990688     0.000001080557     0.000020766305
       7        0.000007529112    -0.000004384659    -0.000005135946
       8       -0.000003303616    -0.000053446454    -0.000033962075
       9        0.002020688034    -0.001718438362     0.002465641973
      10        0.000011312487     0.000005474274    -0.000017078801
      11        0.000008327589     0.000020108811    -0.000003208046
      12        0.000001808661    -0.000002761515     0.000008288250
      13       -0.000002938603    -0.000001514328    -0.000023246785
      14       -0.000004807404    -0.000004459301     0.000006519143
      15       -0.000003901485    -0.000003081878    -0.000001615988
      16        0.000001551382     0.000001177273     0.000004344203

  **** Optimization is complete! (in 7 steps) ****
    Final optimized geometry and variables:
    Molecular point group: c1

    Geometry (in Angstrom), charge = 0, multiplicity = 1:

    O           -2.075110266100    -0.851730014352    -0.816397888328
    N           -1.603146281771    -0.013242450170    -0.124116899950
    C           -0.388284725083    -0.374567959086     0.653937403411
    O           -2.000892729303     1.098825469323    -0.023540368304
    C            0.860453085283    -0.110470968838    -0.185467407656
    H           -0.490268266262    -1.413046226042     0.919339138207
    H           -0.413457788188     0.250967667558     1.530430205528
    C            2.101408584632     0.013896827010     0.697349650039
    H            1.002177447737    -0.930926184765    -0.878138689463
    H            0.725189336223     0.798887740059    -0.758034535298
    C            3.377395338792     0.204107116072    -0.114750812070
    H            2.196122504684    -0.874475737463     1.315875121444
    H            1.975533892446     0.851021449483     1.376851849534
    H            3.550342650508    -0.637788889173    -0.775908294237
    H            3.321720198663     1.098855627738    -0.724859239896
    H            4.239233931519     0.298455427588     0.534501249300

  Mulliken Charges: (a.u.)
   Center  Symbol    Alpha    Beta     Spin     Total
       1     O     4.17397  4.17397  0.00000 -0.34795
       2     N     3.27796  3.27796  0.00000  0.44407
       3     C     3.03902  3.03902  0.00000 -0.07804
       4     O     4.17294  4.17294  0.00000 -0.34587
       5     C     3.09871  3.09871  0.00000 -0.19742
       6     H     0.43252  0.43252  0.00000  0.13496
       7     H     0.43596  0.43596  0.00000  0.12808
       8     C     3.09313  3.09313  0.00000 -0.18626
       9     H     0.44075  0.44075  0.00000  0.11849
      10     H     0.43706  0.43706  0.00000  0.12587
      11     C     3.14873  3.14873  0.00000 -0.29746
      12     H     0.45133  0.45133  0.00000  0.09733
      13     H     0.44899  0.44899  0.00000  0.10203
      14     H     0.45232  0.45232  0.00000  0.09537
      15     H     0.45142  0.45142  0.00000  0.09715
      16     H     0.44518  0.44518  0.00000  0.10965

   Total alpha = 28.00000, Total beta = 28.00000, Total charge = -0.00000

*** Psi4 exiting successfully. Buy a developer a beer!
