  ==> Input File <==

--------------------------------------------------------------------------
set {
	reference rhf
	basis 6-31G*
}

set_num_threads( 4 )
memory 2 gb

molecule MOL {
0 1

H	 -2.698709	 -0.000305	 0.034435
C	 -1.693833	 0.000034	 0.434417
O	 -0.828952	 -0.000968	 -0.659236
H	 -1.574200	 0.882896	 1.055746
H	 -1.574147	 -0.881698	 1.057355
C	 -0.579194	 1.216551	 -1.322389
C	 -1.832045	 1.793239	 -1.978676
C	 0.129920	 2.234073	 -0.430893
H	 0.106986	 0.931248	 -2.110926
H	 -2.336127	 1.030380	 -2.562197
H	 -1.561334	 2.607275	 -2.643730
H	 -2.533500	 2.187142	 -1.250002
H	 0.983337	 1.776173	 0.057436
H	 0.486352	 3.066848	 -1.029145
H	 -0.526071	 2.638823	 0.333105

	symmetry c1
}
set optking {
	frozen_dihedral = ("
		6 3 2 1
	")
}

ee = optimize('scf')
oeprop('DIPOLE', 'QUADRUPOLE', 'MULLIKEN_CHARGES')
f=open( 'psi4out.xyz', 'w' )
f.write( "15  " )
f.write( str(ee) + "\n" )
f.write( MOL.save_string_xyz() )
f.close()
--------------------------------------------------------------------------

    Molecular point group: c1
  Charge       = 0
  Multiplicity = 1
  Basis Set: 6-31G*
  Basis Set:
  @DF-RHF Final Energy:  -232.13500433548057
    Total Energy =                       -232.1350043354806871
    Molecular point group: c1
  Basis Set: 6-31G*
  Basis Set:
  Basis Set: 6-31G*
  Basis Set:
  @DF-RHF Final Energy:  -232.13691465647528
    Total Energy =                       -232.1369146564754828
  Basis Set: 6-31G*
  Basis Set:
  Basis Set: 6-31G*
  Basis Set:
  @DF-RHF Final Energy:  -232.13738051812382
    Total Energy =                       -232.1373805181239049
  Basis Set: 6-31G*
  Basis Set:
  Basis Set: 6-31G*
  Basis Set:
  @DF-RHF Final Energy:  -232.13738904496512
    Total Energy =                       -232.1373890449652890
  Basis Set: 6-31G*
  Basis Set:
  Basis Set: 6-31G*
  Basis Set:
  @DF-RHF Final Energy:  -232.13739681169480
    Total Energy =                       -232.1373968116946003
  Basis Set: 6-31G*
  Basis Set:
  Charge       = 0
  Multiplicity = 1
  Basis Set: 6-31G*
  Basis Set:

    Orbital Energies (a.u.)
    -----------------------

    Doubly Occupied:

       1A    -20.547829     2A    -11.274400     3A    -11.261270
       4A    -11.211448     5A    -11.209637     6A     -1.370050
       7A     -1.050282     8A     -0.940236     9A     -0.930739
      10A     -0.781301    11A     -0.674874    12A     -0.640277
      13A     -0.632801    14A     -0.571870    15A     -0.564081
      16A     -0.552813    17A     -0.535277    18A     -0.499272
      19A     -0.496725    20A     -0.443042    21A     -0.405530

  @DF-RHF Final Energy:  -232.13739729011175

   => Energetics <=

    Nuclear Repulsion Energy =            198.8183719028242820
    One-Electron Energy =                -708.7240370575298130
    Two-Electron Energy =                 277.7682678645937813
    DFT Exchange-Correlation Energy =       0.0000000000000000
    Empirical Dispersion Energy =           0.0000000000000000
    PCM Polarization Energy =               0.0000000000000000
    EFP Energy =                            0.0000000000000000
    Total Energy =                       -232.1373972901117213
    Molecular point group: c1
  Basis Set: 6-31G*
  Basis Set:

  -Total Gradient:
     Atom            X                  Y                   Z
    ------   -----------------  -----------------  -----------------
       1        0.000149767812    -0.001314668104    -0.000024597377
       2        0.000331952346     0.001759257354     0.000386011222
       3       -0.001262023532    -0.000648416537    -0.001131421286
       4        0.000000059035    -0.000055906512    -0.000098380680
       5       -0.000061143567    -0.000013148357     0.000069131158
       6        0.000814948093     0.000323424726     0.000724266479
       7       -0.000031804580    -0.000053834178     0.000090033199
       8        0.000042199684     0.000064508979    -0.000076386116
       9        0.000007696252    -0.000041212732     0.000011140538
      10       -0.000007044975    -0.000002724243    -0.000000388747
      11        0.000039192001    -0.000041433551     0.000037411182
      12       -0.000046065856     0.000009407809     0.000005825032
      13       -0.000025442592    -0.000008845685     0.000021366134
      14        0.000026091899     0.000026050538     0.000033460206
      15        0.000021617981    -0.000002459509    -0.000047470943

  **** Optimization is complete! (in 6 steps) ****
    Final optimized geometry and variables:
    Molecular point group: c1

    Geometry (in Angstrom), charge = 0, multiplicity = 1:

    H           -1.789907632024    -1.124159793796     0.763577140101
    C           -0.783873948418    -1.039454050586     1.165281036419
    O            0.176769666335    -1.031405756106     0.153536848694
    H           -0.733198569758    -0.161972092900     1.801708510396
    H           -0.591200891195    -1.912103237093     1.775597298265
    C            0.407162246917     0.170155507043    -0.544835878860
    C           -0.861320822056     0.731805254696    -1.182684910914
    C            1.136159286690     1.201964729149     0.313855392352
    H            1.077381022669    -0.129261642133    -1.341839412236
    H           -1.364786415073    -0.034795893309    -1.762008854198
    H           -0.611903608600     1.551885783828    -1.848526794701
    H           -1.556724613743     1.111837851244    -0.440551802087
    H            2.008090019778     0.752619729867     0.776018328351
    H            1.465663901074     2.034007461712    -0.300936872073
    H            0.504111082379     1.606620576342     1.097691284627

  Mulliken Charges: (a.u.)
   Center  Symbol    Alpha    Beta     Spin     Total
       1     H     0.42736  0.42736  0.00000  0.14528
       2     C     3.08128  3.08128  0.00000 -0.16255
       3     O     4.31247  4.31247  0.00000 -0.62495
       4     H     0.43047  0.43047  0.00000  0.13907
       5     H     0.41333  0.41333  0.00000  0.17334
       6     C     2.90964  2.90964  0.00000  0.18073
       7     C     3.25471  3.25471  0.00000 -0.50942
       8     C     3.25016  3.25016  0.00000 -0.50031
       9     H     0.41543  0.41543  0.00000  0.16914
      10     H     0.41176  0.41176  0.00000  0.17647
      11     H     0.41854  0.41854  0.00000  0.16292
      12     H     0.42105  0.42105  0.00000  0.15789
      13     H     0.41127  0.41127  0.00000  0.17746
      14     H     0.42057  0.42057  0.00000  0.15885
      15     H     0.42196  0.42196  0.00000  0.15608

   Total alpha = 21.00000, Total beta = 21.00000, Total charge = -0.00000
