                              Psi4 1.0.54 Driver

  ==> Input File <==

--------------------------------------------------------------------------
set {
	reference rhf
	basis cc-pvtz
}

set_num_threads( 4 )
memory 2 gb

molecule MOL {
0 1

H	 3.042960	 -0.068326	 0.305133
O	 2.346458	 0.482891	 0.000011
C	 1.135873	 0.113391	 0.608264
C	 0.027642	 1.012027	 0.090274
H	 1.206017	 0.222916	 1.687547
H	 0.910674	 -0.929307	 0.402041
C	 -1.138737	 0.285728	 -0.581921
H	 0.464661	 1.708096	 -0.618252
H	 -0.340737	 1.603071	 0.925246
C	 -1.933983	 -0.631436	 0.343653
H	 -0.763151	 -0.285569	 -1.422081
H	 -1.808359	 1.035291	 -0.992333
H	 -2.789188	 -1.049673	 -0.174718
H	 -1.335629	 -1.461368	 0.700418
H	 -2.305435	 -0.092167	 1.209725

	symmetry c1
}
set optking {
	frozen_dihedral = ("
		2 3 4 8
	")
}

ee,wfn = optimize('scf', return_wfn=True)
oeprop( wfn, 'DIPOLE', 'QUADRUPOLE', 'MULLIKEN_CHARGES')
f=open( 'psi4out.xyz', 'w' )
f.write( "15  " )
f.write( str(ee) + "\n" )
f.write( MOL.save_string_xyz() )
f.close()
--------------------------------------------------------------------------

    Molecular point group: c1
  Charge       = 0
  Multiplicity = 1
  Basis Set: CC-PVTZ
  Basis Set:
  @DF-RHF Final Energy:  -232.23153041383472
    Total Energy =                       -232.2315304138347187
    Molecular point group: c1
  Basis Set: CC-PVTZ
  Basis Set:
  Basis Set: CC-PVTZ
  Basis Set:
  @DF-RHF Final Energy:  -232.23200774324752
    Total Energy =                       -232.2320077432475500
  Basis Set: CC-PVTZ
  Basis Set:
  Basis Set: CC-PVTZ
  Basis Set:
  @DF-RHF Final Energy:  -232.23218633111202
    Total Energy =                       -232.2321863311120183
  Basis Set: CC-PVTZ
  Basis Set:
  Basis Set: CC-PVTZ
  Basis Set:
  @DF-RHF Final Energy:  -232.23218240373177
    Total Energy =                       -232.2321824037320539
  Basis Set: CC-PVTZ
  Basis Set:
  Basis Set: CC-PVTZ
  Basis Set:
  @DF-RHF Final Energy:  -232.23219567026371
    Total Energy =                       -232.2321956702636498
  Basis Set: CC-PVTZ
  Basis Set:
  Basis Set: CC-PVTZ
  Basis Set:
  @DF-RHF Final Energy:  -232.23219809317604
    Total Energy =                       -232.2321980931760663
  Basis Set: CC-PVTZ
  Basis Set:
  Charge       = 0
  Multiplicity = 1
  Basis Set: CC-PVTZ
  Basis Set:

    Orbital Energies (a.u.)
    -----------------------

    Doubly Occupied:

       1A    -20.545297     2A    -11.265663     3A    -11.214455
       4A    -11.209463     5A    -11.208332     6A     -1.362361
       7A     -1.068714     8A     -0.969813     9A     -0.870332
      10A     -0.784035    11A     -0.704716    12A     -0.648022
      13A     -0.605832    14A     -0.591024    15A     -0.558451
      16A     -0.537358    17A     -0.510497    18A     -0.476394
      19A     -0.472396    20A     -0.455892    21A     -0.432078

  @DF-RHF Final Energy:  -232.23219814929053

   => Energetics <=

    Nuclear Repulsion Energy =            188.4297004740996044
    One-Electron Energy =                -688.3415462433260927
    Two-Electron Energy =                 267.6796476199361337
    DFT Exchange-Correlation Energy =       0.0000000000000000
    Empirical Dispersion Energy =           0.0000000000000000
    PCM Polarization Energy =               0.0000000000000000
    EFP Energy =                            0.0000000000000000
    Total Energy =                       -232.2321981492903546
    Molecular point group: c1
  Basis Set: CC-PVTZ
  Basis Set:

  -Total Gradient:
     Atom            X                  Y                   Z
    ------   -----------------  -----------------  -----------------
       1       -0.000004881097    -0.000001199421    -0.000000501589
       2       -0.000108013184    -0.000372021777    -0.000495100760
       3        0.000182023999     0.000580720274     0.000767922252
       4       -0.000193343777    -0.000694275577    -0.000907093777
       5       -0.000000656768    -0.000002783594     0.000001918196
       6        0.000000726138    -0.000000467326     0.000003147263
       7       -0.000015923326     0.000012774988     0.000005207358
       8        0.000137107502     0.000484583526     0.000634083836
       9       -0.000002724910    -0.000001685617    -0.000005918813
      10        0.000009084760    -0.000005728455    -0.000004949330
      11       -0.000000876496    -0.000002982162     0.000006790523
      12        0.000000152048     0.000003190931    -0.000004708635
      13       -0.000000230165    -0.000001294422    -0.000002889531
      14        0.000000661065    -0.000002901549     0.000003632641
      15       -0.000003105785     0.000004070183    -0.000001539633

  **** Optimization is complete! (in 7 steps) ****
    Final optimized geometry and variables:
    Molecular point group: c1

    Geometry (in Angstrom), charge = 0, multiplicity = 1:

    H            2.916119664575    -0.295232131341     0.172207879165
    O            2.208205978213     0.256983834034    -0.104704081662
    C            1.006973399454    -0.170165969704     0.489068516438
    C           -0.123523587657     0.759588982255     0.032352621418
    H            1.101805284955    -0.159312093925     1.570777133665
    H            0.796631148926    -1.194104283775     0.192764691434
    C           -1.276714653185     0.057094173584    -0.683551022963
    H            0.320663962085     1.494115410605    -0.626892871607
    H           -0.515794854785     1.309293589210     0.882314898820
    C           -2.114669416327    -0.840345939339     0.223661506271
    H           -0.880989835287    -0.526173215696    -1.510378622133
    H           -1.922935488575     0.809919061924    -1.123592385760
    H           -2.917525580929    -1.313315515448    -0.330044806638
    H           -1.520614205634    -1.628974219194     0.672680326017
    H           -2.561647868574    -0.266850778676     1.029247043058

  Mulliken Charges: (a.u.)
   Center  Symbol    Alpha    Beta     Spin     Total
       1     H     0.39553  0.39553  0.00000  0.20894
       2     O     4.19847  4.19847  0.00000 -0.39693
       3     C     2.96483  2.96483  0.00000  0.07033
       4     C     3.09508  3.09508  0.00000 -0.19015
       5     H     0.47144  0.47144  0.00000  0.05712
       6     H     0.47490  0.47490  0.00000  0.05021
       7     C     3.09645  3.09645  0.00000 -0.19290
       8     H     0.44028  0.44028  0.00000  0.11944
       9     H     0.45386  0.45386  0.00000  0.09228
      10     C     3.14918  3.14918  0.00000 -0.29836
      11     H     0.45173  0.45173  0.00000  0.09654
      12     H     0.44916  0.44916  0.00000  0.10168
      13     H     0.44757  0.44757  0.00000  0.10485
      14     H     0.45684  0.45684  0.00000  0.08632
      15     H     0.45468  0.45468  0.00000  0.09064

   Total alpha = 21.00000, Total beta = 21.00000, Total charge = -0.00000

*** Psi4 exiting successfully. Buy a developer a beer!
