                              Psi4 1.0.54 Driver

  ==> Input File <==

--------------------------------------------------------------------------
set {
	reference rhf
	basis cc-pvtz
}

set_num_threads( 4 )
memory 2 gb

molecule MOL {
0 1

H	 -2.699217	 0.541629	 0.611657
C	 -2.518149	 0.133756	 -0.373774
C	 -1.256349	 -0.715020	 -0.389712
H	 -2.435175	 0.965544	 -1.060402
H	 -3.375951	 -0.462803	 -0.660473
C	 0.000000	 0.039916	 0.000014
H	 -1.091074	 -1.142968	 -1.374823
H	 -1.352809	 -1.563239	 0.282681
C	 1.286532	 -0.763243	 0.000268
O	 -0.022310	 1.191867	 0.287918
C	 2.547023	 0.087626	 -0.000114
H	 1.264245	 -1.421103	 -0.864380
H	 1.264290	 -1.420353	 0.865489
H	 2.584452	 0.725630	 -0.872909
H	 3.427035	 -0.544422	 0.000125
H	 2.584484	 0.726356	 0.872143

	symmetry c1
}
set optking {
	frozen_dihedral = ("
		3 6 9 12
	")
}

ee,wfn = optimize('scf', return_wfn=True)
oeprop( wfn, 'DIPOLE', 'QUADRUPOLE', 'MULLIKEN_CHARGES')
f=open( 'psi4out.xyz', 'w' )
f.write( "16  " )
f.write( str(ee) + "\n" )
f.write( MOL.save_string_xyz() )
f.close()
--------------------------------------------------------------------------

    Molecular point group: c1
  Charge       = 0
  Multiplicity = 1
  Basis Set: CC-PVTZ
  Basis Set:
  @DF-RHF Final Energy:  -270.13148627031802
    Total Energy =                       -270.1314862703179642
    Molecular point group: c1
  Basis Set: CC-PVTZ
  Basis Set:
  Basis Set: CC-PVTZ
  Basis Set:
  @DF-RHF Final Energy:  -270.13115267719206
    Total Energy =                       -270.1311526771918352
  Basis Set: CC-PVTZ
  Basis Set:
  Basis Set: CC-PVTZ
  Basis Set:
  @DF-RHF Final Energy:  -270.13166852154791
    Total Energy =                       -270.1316685215480788
  Basis Set: CC-PVTZ
  Basis Set:
  Basis Set: CC-PVTZ
  Basis Set:
  @DF-RHF Final Energy:  -270.13129530254923
    Total Energy =                       -270.1312953025490060
  Basis Set: CC-PVTZ
  Basis Set:
  Basis Set: CC-PVTZ
  Basis Set:
  @DF-RHF Final Energy:  -270.13170958388332
    Total Energy =                       -270.1317095838836622
  Basis Set: CC-PVTZ
  Basis Set:
  Basis Set: CC-PVTZ
  Basis Set:
  @DF-RHF Final Energy:  -270.13172211968589
    Total Energy =                       -270.1317221196861169
  Basis Set: CC-PVTZ
  Basis Set:
  Charge       = 0
  Multiplicity = 1
  Basis Set: CC-PVTZ
  Basis Set:

    Orbital Energies (a.u.)
    -----------------------

    Doubly Occupied:

       1A    -20.538707     2A    -11.317944     3A    -11.232409
       4A    -11.232207     5A    -11.212443     6A    -11.211977
       7A     -1.399125     8A     -1.069693     9A     -1.037330
      10A     -0.917179    11A     -0.846763    12A     -0.725961
      13A     -0.669412    14A     -0.647525    15A     -0.621285
      16A     -0.607582    17A     -0.561407    18A     -0.529997
      19A     -0.526189    20A     -0.511392    21A     -0.504514
      22A     -0.493573    23A     -0.486368    24A     -0.400678

  @DF-RHF Final Energy:  -270.13172260306413

   => Energetics <=

    Nuclear Repulsion Energy =            240.3264910060995021
    One-Electron Energy =                -842.3131039892624585
    Two-Electron Energy =                 331.8548903800988228
    DFT Exchange-Correlation Energy =       0.0000000000000000
    Empirical Dispersion Energy =           0.0000000000000000
    PCM Polarization Energy =               0.0000000000000000
    EFP Energy =                            0.0000000000000000
    Total Energy =                       -270.1317226030641905
    Molecular point group: c1
  Basis Set: CC-PVTZ
  Basis Set:

  -Total Gradient:
     Atom            X                  Y                   Z
    ------   -----------------  -----------------  -----------------
       1       -0.000004352811     0.000002843765    -0.000004638343
       2       -0.000024142924    -0.000008073546     0.000017525294
       3        0.000068573118     0.000077769390    -0.000529095636
       4        0.000008818572    -0.000008122771     0.000003694084
       5       -0.000002101091     0.000001680412     0.000001569281
       6       -0.000129513855    -0.000199659703     0.000854879769
       7        0.000002924016    -0.000017125819    -0.000006820187
       8       -0.000005463413     0.000007503188    -0.000006572379
       9        0.000308904078     0.000564529378    -0.000820594328
      10       -0.000000701413     0.000022205160     0.000002631361
      11        0.000005675948    -0.000006698554    -0.000005073597
      12       -0.000228360479    -0.000405295734     0.000491740902
      13        0.000004365379    -0.000009592356     0.000011615452
      14        0.000000998785    -0.000001960615     0.000001915039
      15        0.000005318130    -0.000002737662    -0.000004955234
      16       -0.000010942043    -0.000017264530    -0.000007821476

  **** Optimization is complete! (in 7 steps) ****
    Final optimized geometry and variables:
    Molecular point group: c1

    Geometry (in Angstrom), charge = 0, multiplicity = 1:

    H           -2.636263875632     0.309842878134     1.005623977537
    C           -2.544780067704    -0.139150241380     0.025052529181
    C           -1.211545229214    -0.855016423935    -0.125302160234
    H           -2.644202825152     0.651365875717    -0.705908679733
    H           -3.363475744204    -0.836120478631    -0.108443384424
    C           -0.003797532172     0.047819473741     0.028840396469
    H           -1.134001997597    -1.320540333564    -1.104955347493
    H           -1.121116886624    -1.667774100917     0.589958947450
    C            1.342961423602    -0.646682350165     0.090472860393
    O           -0.105149515710     1.229036904716     0.099391943092
    C            2.529272509299     0.282127934129    -0.118118695560
    H            1.347982258978    -1.461942195825    -0.626158091149
    H            1.399567056495    -1.121025073113     1.068095077271
    H            2.492613793468     0.745580986833    -1.096016530703
    H            3.458250851460    -0.269615296014    -0.038560133412
    H            2.534558781644     1.073201032408     0.618373646614

  Mulliken Charges: (a.u.)
   Center  Symbol    Alpha    Beta     Spin     Total
       1     H     0.44979  0.44979  0.00000  0.10042
       2     C     3.14096  3.14096  0.00000 -0.28191
       3     C     3.09938  3.09938  0.00000 -0.19877
       4     H     0.44576  0.44576  0.00000  0.10848
       5     H     0.45067  0.45067  0.00000  0.09866
       6     C     2.87289  2.87289  0.00000  0.25422
       7     H     0.44549  0.44549  0.00000  0.10902
       8     H     0.44578  0.44578  0.00000  0.10843
       9     C     3.09845  3.09845  0.00000 -0.19690
      10     O     4.17250  4.17250  0.00000 -0.34500
      11     C     3.14125  3.14125  0.00000 -0.28251
      12     H     0.44558  0.44558  0.00000  0.10884
      13     H     0.44572  0.44572  0.00000  0.10857
      14     H     0.45116  0.45116  0.00000  0.09768
      15     H     0.45051  0.45051  0.00000  0.09899
      16     H     0.44411  0.44411  0.00000  0.11178

   Total alpha = 24.00000, Total beta = 24.00000, Total charge = -0.00000

*** Psi4 exiting successfully. Buy a developer a beer!
