  ==> Input File <==

--------------------------------------------------------------------------
set {
	reference rhf
	basis 6-31G*
}

set_num_threads( 4 )
memory 2 gb

molecule MOL {
0 1

H	 2.591676	 2.013956	 0.335017
O	 3.341076	 1.666752	 -0.126416
C	 3.569581	 0.339145	 0.272707
C	 2.539767	 -0.640285	 -0.279495
H	 4.553106	 0.084646	 -0.100901
H	 3.608576	 0.269204	 1.359154
C	 1.115811	 -0.397273	 0.226630
H	 2.556196	 -0.582511	 -1.364741
H	 2.852081	 -1.648031	 -0.010655
C	 0.115918	 -1.429151	 -0.302766
H	 0.797950	 0.599468	 -0.066350
H	 1.109961	 -0.420744	 1.316472
C	 0.004651	 -2.707384	 0.536330
H	 -0.865886	 -0.966506	 -0.385635
H	 0.406593	 -1.705511	 -1.314118
C	 -0.583109	 -2.510115	 1.936366
H	 -0.617716	 -3.417711	 -0.003958
H	 0.987219	 -3.169442	 0.619393
C	 -0.772051	 -3.825849	 2.694378
H	 -1.543335	 -2.002811	 1.854393
H	 0.057898	 -1.856152	 2.522664
C	 -1.352636	 -3.631229	 4.094631
H	 -1.424781	 -4.480833	 2.121292
H	 0.184629	 -4.338792	 2.768789
H	 -2.325414	 -3.149433	 4.052222
H	 -1.476406	 -4.581340	 4.605126
H	 -0.703807	 -3.009929	 4.705672

	symmetry c1
}
set optking {
	frozen_dihedral = ("
		14 10 7 4
	")
}

ee = optimize('scf')
oeprop('DIPOLE', 'QUADRUPOLE', 'MULLIKEN_CHARGES')
f=open( 'psi4out.xyz', 'w' )
f.write( "27  " )
f.write( str(ee) + "\n" )
f.write( MOL.save_string_xyz() )
f.close()
--------------------------------------------------------------------------

    Molecular point group: c1
  Charge       = 0
  Multiplicity = 1
  Basis Set: 6-31G*
  Basis Set:
  @DF-RHF Final Energy:  -388.27831838894832
    Total Energy =                       -388.2783183889487191
    Molecular point group: c1
  Basis Set: 6-31G*
  Basis Set:
  Basis Set: 6-31G*
  Basis Set:
  @DF-RHF Final Energy:  -388.27855218735101
    Total Energy =                       -388.2785521873512380
  Basis Set: 6-31G*
  Basis Set:
  Basis Set: 6-31G*
  Basis Set:
  @DF-RHF Final Energy:  -388.27883331832055
    Total Energy =                       -388.2788333183201530
  Basis Set: 6-31G*
  Basis Set:
  Basis Set: 6-31G*
  Basis Set:
  @DF-RHF Final Energy:  -388.27885760357793
    Total Energy =                       -388.2788576035791266
  Basis Set: 6-31G*
  Basis Set:
  Basis Set: 6-31G*
  Basis Set:
  @DF-RHF Final Energy:  -388.27885980888504
    Total Energy =                       -388.2788598088853860
  Basis Set: 6-31G*
  Basis Set:
  Basis Set: 6-31G*
  Basis Set:
  @DF-RHF Final Energy:  -388.27886308496426
    Total Energy =                       -388.2788630849639731
  Basis Set: 6-31G*
  Basis Set:
  Charge       = 0
  Multiplicity = 1
  Basis Set: 6-31G*
  Basis Set:

    Orbital Energies (a.u.)
    -----------------------

    Doubly Occupied:

       1A    -20.552229     2A    -11.267041     3A    -11.219975
       4A    -11.217344     5A    -11.216589     6A    -11.216101
       7A    -11.215244     8A    -11.214736     9A    -11.209965
      10A     -1.358998    11A     -1.095044    12A     -1.061074
      13A     -1.010337    14A     -0.949548    15A     -0.887563
      16A     -0.826674    17A     -0.802009    18A     -0.772164
      19A     -0.693564    20A     -0.656117    21A     -0.629533
      22A     -0.616997    23A     -0.603653    24A     -0.582880
      25A     -0.579031    26A     -0.553518    27A     -0.543020
      28A     -0.527455    29A     -0.509684    30A     -0.503162
      31A     -0.481708    32A     -0.476475    33A     -0.463829
      34A     -0.456982    35A     -0.450116    36A     -0.442387
      37A     -0.425144

  @DF-RHF Final Energy:  -388.27886331872185

   => Energetics <=

    Nuclear Repulsion Energy =            461.7367640631547374
    One-Electron Energy =               -1441.4554713476368306
    Two-Electron Energy =                 591.4398439657602466
    DFT Exchange-Correlation Energy =       0.0000000000000000
    Empirical Dispersion Energy =           0.0000000000000000
    PCM Polarization Energy =               0.0000000000000000
    EFP Energy =                            0.0000000000000000
    Total Energy =                       -388.2788633187218466
    Molecular point group: c1
  Basis Set: 6-31G*
  Basis Set:

  -Total Gradient:
     Atom            X                  Y                   Z
    ------   -----------------  -----------------  -----------------
       1       -0.000012972396     0.000006721781    -0.000000440309
       2       -0.000021391359     0.000008830071     0.000012123550
       3        0.000010266488    -0.000009415467    -0.000040360794
       4       -0.000414097591     0.001154819857    -0.001545664876
       5       -0.000001831626    -0.000008255396    -0.000002513265
       6       -0.000004794824    -0.000006648219    -0.000003141894
       7        0.000678176544    -0.001450400203     0.001584187083
       8        0.000019452868    -0.000011681242    -0.000005918875
       9        0.000001897735    -0.000001126984     0.000008843557
      10       -0.000722548881    -0.000449775616     0.002552366153
      11        0.000000044454     0.000001110908     0.000004496058
      12       -0.000011618742    -0.000000621903     0.000035305004
      13       -0.000041928695    -0.000008275206    -0.000008536486
      14        0.000473745671     0.000751876018    -0.002576208369
      15       -0.000010318032    -0.000001909903    -0.000009232840
      16        0.000040839729     0.000012727097     0.000017776011
      17        0.000005620701    -0.000018465194    -0.000010144601
      18       -0.000012701276     0.000016771181     0.000014822713
      19        0.000012361512    -0.000010045220    -0.000001695323
      20        0.000015937503     0.000011010772    -0.000033767018
      21       -0.000000905473     0.000017765188     0.000017180849
      22       -0.000004271162     0.000005157577    -0.000010506216
      23       -0.000001496875    -0.000008355693     0.000001593343
      24       -0.000000351562    -0.000003324950     0.000001970999
      25        0.000001176411     0.000003348838     0.000001871300
      26       -0.000000941282    -0.000000372740    -0.000006147921
      27        0.000002650156    -0.000001465360     0.000001742167

  **** Optimization is complete! (in 7 steps) ****
    Final optimized geometry and variables:
    Molecular point group: c1

    Geometry (in Angstrom), charge = 0, multiplicity = 1:

    H            1.729529784978     3.406440311849    -0.638009374727
    O            2.457218196645     3.072454184202    -1.142132329451
    C            2.690517529871     1.728996916032    -0.803521614468
    C            1.624434224227     0.780599784512    -1.340521124909
    H            3.652148175126     1.480096489699    -1.233627977514
    H            2.781236517145     1.618424788974     0.276490797210
    C            0.224831358660     1.034606844719    -0.771721757350
    H            1.593543232135     0.871719255926    -2.422873751050
    H            1.936741324013    -0.238009085358    -1.117075140065
    C           -0.822758513815     0.017311505754    -1.256846646765
    H           -0.093240764514     2.029117753268    -1.074371604304
    H            0.265755321418     1.044673424551     0.315480358010
    C           -0.907517980869    -1.274978172511    -0.434517702337
    H           -1.801735487047     0.489125149835    -1.293050743868
    H           -0.592490557197    -0.239909728946    -2.288440448645
    C           -1.577034922614    -1.111506849718     0.932772489585
    H           -1.466429864688    -2.013094329446    -1.005635189003
    H            0.089500825683    -1.691346672035    -0.302179069434
    C           -1.663744746582    -2.422426729765     1.717196117818
    H           -2.579902044012    -0.711500918981     0.791546322024
    H           -1.039531395856    -0.378512538589     1.530029428235
    C           -2.344259255209    -2.262087992285     3.076189066445
    H           -2.204960860997    -3.159535404595     1.127846233631
    H           -0.662402853828    -2.823148494666     1.860518118549
    H           -3.360423072782    -1.894346903541     2.964853483966
    H           -2.391484184794    -3.207962618757     3.606927865850
    H           -1.805902357318    -1.557474996816     3.703955037187

  Mulliken Charges: (a.u.)
   Center  Symbol    Alpha    Beta     Spin     Total
       1     H     0.27983  0.27983  0.00000  0.44035
       2     O     4.37105  4.37105  0.00000 -0.74210
       3     C     2.99717  2.99717  0.00000  0.00566
       4     C     3.16223  3.16223  0.00000 -0.32447
       5     H     0.41449  0.41449  0.00000  0.17102
       6     H     0.43217  0.43217  0.00000  0.13565
       7     C     3.16580  3.16580  0.00000 -0.33160
       8     H     0.41473  0.41473  0.00000  0.17055
       9     H     0.42365  0.42365  0.00000  0.15271
      10     C     3.15639  3.15639  0.00000 -0.31277
      11     H     0.42208  0.42208  0.00000  0.15584
      12     H     0.42299  0.42299  0.00000  0.15403
      13     C     3.15494  3.15494  0.00000 -0.30988
      14     H     0.42023  0.42023  0.00000  0.15954
      15     H     0.41921  0.41921  0.00000  0.16157
      16     C     3.15160  3.15160  0.00000 -0.30321
      17     H     0.42076  0.42076  0.00000  0.15847
      18     H     0.42342  0.42342  0.00000  0.15316
      19     C     3.15124  3.15124  0.00000 -0.30248
      20     H     0.42392  0.42392  0.00000  0.15216
      21     H     0.42384  0.42384  0.00000  0.15231
      22     C     3.23921  3.23921  0.00000 -0.47841
      23     H     0.42275  0.42275  0.00000  0.15449
      24     H     0.42331  0.42331  0.00000  0.15337
      25     H     0.42163  0.42163  0.00000  0.15674
      26     H     0.41911  0.41911  0.00000  0.16177
      27     H     0.42224  0.42224  0.00000  0.15551

   Total alpha = 37.00000, Total beta = 37.00000, Total charge =  0.00000
