  ==> Input File <==

--------------------------------------------------------------------------
set {
	reference rhf
	basis 6-31G*
}

set_num_threads( 4 )
memory 2 gb

molecule MOL {
0 1

H	 -3.161837	 0.500524	 -0.000234
C	 -2.367097	 -0.232926	 -0.000000
O	 -1.158440	 0.455814	 -0.000122
H	 -2.468853	 -0.861886	 -0.882833
H	 -2.468942	 -0.861421	 0.883154
C	 -1.137227	 1.578435	 0.828821
C	 0.230621	 2.231695	 0.734450
H	 -1.348062	 1.288408	 1.859030
H	 -1.914464	 2.282116	 0.527751
C	 0.346118	 3.475658	 1.614279
H	 0.981495	 1.500733	 1.018253
H	 0.419091	 2.487563	 -0.303678
H	 0.184756	 3.236720	 2.661797
H	 1.331300	 3.921394	 1.527206
H	 -0.382205	 4.230416	 1.330924

	symmetry c1
}
set optking {
	frozen_dihedral = ("
		6 3 2 4
	")
}

ee = optimize('scf')
oeprop('DIPOLE', 'QUADRUPOLE', 'MULLIKEN_CHARGES')
f=open( 'psi4out.xyz', 'w' )
f.write( "15  " )
f.write( str(ee) + "\n" )
f.write( MOL.save_string_xyz() )
f.close()
--------------------------------------------------------------------------

    Molecular point group: c1
  Charge       = 0
  Multiplicity = 1
  Basis Set: 6-31G*
  Basis Set:
  @DF-RHF Final Energy:  -232.13733023988806
    Total Energy =                       -232.1373302398878877
    Molecular point group: c1
  Basis Set: 6-31G*
  Basis Set:
  Basis Set: 6-31G*
  Basis Set:
  @DF-RHF Final Energy:  -232.13822913702015
    Total Energy =                       -232.1382291370202324
  Basis Set: 6-31G*
  Basis Set:
  Basis Set: 6-31G*
  Basis Set:
  @DF-RHF Final Energy:  -232.13848140391732
    Total Energy =                       -232.1384814039172397
  Basis Set: 6-31G*
  Basis Set:
  Charge       = 0
  Multiplicity = 1
  Basis Set: 6-31G*
  Basis Set:

    Orbital Energies (a.u.)
    -----------------------

    Doubly Occupied:

       1A    -20.552475     2A    -11.266384     3A    -11.263801
       4A    -11.214116     5A    -11.212859     6A     -1.377138
       7A     -1.057198     8A     -0.955308     9A     -0.877275
      10A     -0.809046    11A     -0.674138    12A     -0.653374
      13A     -0.629804    14A     -0.607946    15A     -0.564923
      16A     -0.542709    17A     -0.502556    18A     -0.488345
      19A     -0.478269    20A     -0.461198    21A     -0.412669

  @DF-RHF Final Energy:  -232.13848259015955

   => Energetics <=

    Nuclear Repulsion Energy =            189.6656520871488567
    One-Electron Energy =                -690.4052124249383269
    Two-Electron Energy =                 268.6010777476298585
    DFT Exchange-Correlation Energy =       0.0000000000000000
    Empirical Dispersion Energy =           0.0000000000000000
    PCM Polarization Energy =               0.0000000000000000
    EFP Energy =                            0.0000000000000000
    Total Energy =                       -232.1384825901596400
    Molecular point group: c1
  Basis Set: 6-31G*
  Basis Set:

  -Total Gradient:
     Atom            X                  Y                   Z
    ------   -----------------  -----------------  -----------------
       1        0.000000335942     0.000049519313     0.000010893045
       2        0.001097370158    -0.001866295503     0.000945499232
       3        0.000727076905    -0.001278928898     0.001963452229
       4       -0.001055030730     0.002019972431    -0.001273353748
       5        0.000072855839     0.000039003154     0.000000889281
       6       -0.000820374948     0.001177765259    -0.001509396235
       7        0.000025728536    -0.000068985172    -0.000077944028
       8       -0.000002754782    -0.000014787566    -0.000005244791
       9       -0.000013394760    -0.000023996099    -0.000030627953
      10       -0.000057957304    -0.000024422493     0.000002300002
      11        0.000010219657     0.000000313836    -0.000001903333
      12        0.000023032776     0.000009090188    -0.000011016557
      13       -0.000001145379     0.000000214841     0.000002422410
      14       -0.000005345418    -0.000025699679    -0.000016487107
      15       -0.000000616489     0.000007236391     0.000000517556

  **** Optimization is complete! (in 4 steps) ****
    Final optimized geometry and variables:
    Molecular point group: c1

    Geometry (in Angstrom), charge = 0, multiplicity = 1:

    H           -2.379101224240    -1.034626518537    -0.642335613819
    C           -1.529496628967    -1.714870023393    -0.629727934118
    O           -0.322007320113    -1.021545314643    -0.629810448592
    H           -1.568085377964    -2.313260876447    -1.530229254439
    H           -1.619113021127    -2.360483294440     0.241166814655
    C           -0.292783980688     0.099422528125     0.201769025709
    C            1.078375523959     0.744718097805     0.102262577191
    H           -0.500693836193    -0.187857055298     1.233479714187
    H           -1.067197333525     0.805934715488    -0.098170878029
    C            1.201365172827     1.992391385125     0.975822370780
    H            1.826202080118     0.011496829059     0.388237072288
    H            1.266128379642     0.994505578209    -0.937514291051
    H            1.039716580601     1.759473965495     2.024655130810
    H            2.188902032752     2.432308654138     0.885750623430
    H            0.476832677987     2.749736334783     0.689570167430

  Mulliken Charges: (a.u.)
   Center  Symbol    Alpha    Beta     Spin     Total
       1     H     0.43170  0.43170  0.00000  0.13660
       2     C     3.07819  3.07819  0.00000 -0.15637
       3     O     4.30696  4.30696  0.00000 -0.61391
       4     H     0.41340  0.41340  0.00000  0.17320
       5     H     0.42791  0.42791  0.00000  0.14419
       6     C     2.98156  2.98156  0.00000  0.03688
       7     C     3.15989  3.15989  0.00000 -0.31978
       8     H     0.43377  0.43377  0.00000  0.13246
       9     H     0.43283  0.43283  0.00000  0.13434
      10     C     3.24792  3.24792  0.00000 -0.49585
      11     H     0.41435  0.41435  0.00000  0.17131
      12     H     0.41432  0.41432  0.00000  0.17135
      13     H     0.42086  0.42086  0.00000  0.15828
      14     H     0.41543  0.41543  0.00000  0.16915
      15     H     0.42091  0.42091  0.00000  0.15818

   Total alpha = 21.00000, Total beta = 21.00000, Total charge = -0.00000
