                              Psi4 1.0.54 Driver

  ==> Input File <==

--------------------------------------------------------------------------
set {
	reference rhf
	basis cc-pvtz
}

set_num_threads( 4 )
memory 2 gb

molecule MOL {
0 1

H	 -2.989258	 2.087378	 0.425204
C	 -2.324435	 2.083571	 1.285947
O	 -0.997564	 1.941636	 0.902790
H	 -2.420143	 3.027059	 1.803207
H	 -2.634850	 1.284346	 1.956594
C	 -0.718530	 0.758693	 0.228682
C	 0.718529	 0.758687	 -0.228709
H	 -0.880083	 -0.096588	 0.884704
H	 -1.368957	 0.645732	 -0.635966
O	 1.401606	 -0.295166	 0.366636
H	 0.748705	 0.673477	 -1.312803
H	 1.176496	 1.708671	 0.046552
C	 2.714315	 -0.441627	 -0.061017
H	 2.765292	 -0.641548	 -1.128869
H	 3.305661	 0.447341	 0.150952
H	 3.143725	 -1.278506	 0.470147

	symmetry c1
}
set optking {
	frozen_dihedral = ("
		3 6 7 11
	")
}

ee,wfn = optimize('scf', return_wfn=True)
oeprop( wfn, 'DIPOLE', 'QUADRUPOLE', 'MULLIKEN_CHARGES')
f=open( 'psi4out.xyz', 'w' )
f.write( "16  " )
f.write( str(ee) + "\n" )
f.write( MOL.save_string_xyz() )
f.close()
--------------------------------------------------------------------------

    Molecular point group: c1
  Charge       = 0
  Multiplicity = 1
  Basis Set: CC-PVTZ
  Basis Set:
  @DF-RHF Final Energy:  -307.09357882627052
    Total Energy =                       -307.0935788262706865
    Molecular point group: c1
  Basis Set: CC-PVTZ
  Basis Set:
  Basis Set: CC-PVTZ
  Basis Set:
  @DF-RHF Final Energy:  -307.09410271033903
    Total Energy =                       -307.0941027103389160
  Basis Set: CC-PVTZ
  Basis Set:
  Basis Set: CC-PVTZ
  Basis Set:
  @DF-RHF Final Energy:  -307.09416714476060
    Total Energy =                       -307.0941671447605472
  Basis Set: CC-PVTZ
  Basis Set:
  Charge       = 0
  Multiplicity = 1
  Basis Set: CC-PVTZ
  Basis Set:

    Orbital Energies (a.u.)
    -----------------------

    Doubly Occupied:

       1A    -20.550760     2A    -20.550716     3A    -11.266623
       4A    -11.265992     5A    -11.263145     6A    -11.263128
       7A     -1.390639     8A     -1.378273     9A     -1.028653
      10A     -0.940064    11A     -0.886377    12A     -0.831451
      13A     -0.688106    14A     -0.679841    15A     -0.659164
      16A     -0.644363    17A     -0.629792    18A     -0.600203
      19A     -0.556141    20A     -0.529684    21A     -0.509016
      22A     -0.482891    23A     -0.467196    24A     -0.424577
      25A     -0.414012

  @DF-RHF Final Energy:  -307.09417082132984

   => Energetics <=

    Nuclear Repulsion Energy =            255.6642906414631398
    One-Electron Energy =                -925.7153098006026539
    Two-Electron Energy =                 362.9568483378097881
    DFT Exchange-Correlation Energy =       0.0000000000000000
    Empirical Dispersion Energy =           0.0000000000000000
    PCM Polarization Energy =               0.0000000000000000
    EFP Energy =                            0.0000000000000000
    Total Energy =                       -307.0941708213297261
    Molecular point group: c1
  Basis Set: CC-PVTZ
  Basis Set:

  -Total Gradient:
     Atom            X                  Y                   Z
    ------   -----------------  -----------------  -----------------
       1        0.000001379192    -0.000004659353     0.000007586509
       2       -0.000082016679     0.000055165287     0.000020576869
       3       -0.000006619883    -0.000032537737    -0.000306562537
       4        0.000001698596    -0.000015828519     0.000002472939
       5        0.000010362542     0.000000352811    -0.000000892908
       6        0.000050267552     0.000112181425     0.000363882146
       7        0.000038037526    -0.000555757440     0.000054578587
       8        0.000004761056    -0.000006430426     0.000001239290
       9       -0.000017606425    -0.000015618539    -0.000024954545
      10       -0.000032214368     0.000138037056    -0.000074142533
      11       -0.000010641667     0.000368337431    -0.000063192176
      12        0.000003803852     0.000012535441    -0.000002500180
      13        0.000019668011    -0.000081720574     0.000020122344
      14        0.000001091488     0.000014102114     0.000001454789
      15       -0.000010061865     0.000007620250     0.000000094453
      16        0.000028091072     0.000004220773     0.000000236953

  **** Optimization is complete! (in 4 steps) ****
    Final optimized geometry and variables:
    Molecular point group: c1

    Geometry (in Angstrom), charge = 0, multiplicity = 1:

    H           -3.162033054743     1.219445929724     0.080432542663
    C           -2.433146663430     1.290392072763     0.885220223934
    O           -1.134363132812     1.168511695502     0.408304058602
    H           -2.524523538605     2.260183264840     1.352241587358
    H           -2.660137257792     0.523463631162     1.622283265168
    C           -0.870078286172    -0.045736015377    -0.224120060183
    C            0.584528311294    -0.072796832913    -0.679294829044
    H           -1.033413548118    -0.875743590670     0.456220312536
    H           -1.541715771305    -0.170566993537    -1.070907320743
    O            1.249098644832    -1.121760602239    -0.045433261544
    H            0.649465921743    -0.194661182500    -1.758464308738
    H            1.041313658198     0.878639272437    -0.424829623064
    C            2.595108700829    -1.222632707988    -0.372640281498
    H            2.734963477568    -1.394497812793    -1.437955306076
    H            3.140430475368    -0.323192575233    -0.095818709687
    H            3.006254199362    -2.060492550063     0.171379437463

  Mulliken Charges: (a.u.)
   Center  Symbol    Alpha    Beta     Spin     Total
       1     H     0.47242  0.47242  0.00000  0.05515
       2     C     3.02905  3.02905  0.00000 -0.05809
       3     O     4.17342  4.17342  0.00000 -0.34684
       4     H     0.44651  0.44651  0.00000  0.10697
       5     H     0.47071  0.47071  0.00000  0.05858
       6     C     2.96759  2.96759  0.00000  0.06481
       7     C     2.96758  2.96758  0.00000  0.06483
       8     H     0.46503  0.46503  0.00000  0.06993
       9     H     0.47526  0.47526  0.00000  0.04947
      10     O     4.17338  4.17338  0.00000 -0.34677
      11     H     0.47524  0.47524  0.00000  0.04952
      12     H     0.46511  0.46511  0.00000  0.06979
      13     C     3.02905  3.02905  0.00000 -0.05810
      14     H     0.47240  0.47240  0.00000  0.05521
      15     H     0.47072  0.47072  0.00000  0.05857
      16     H     0.44652  0.44652  0.00000  0.10696

   Total alpha = 25.00000, Total beta = 25.00000, Total charge = -0.00000

*** Psi4 exiting successfully. Buy a developer a beer!
