                              Psi4 1.0.54 Driver

  ==> Input File <==

--------------------------------------------------------------------------
set {
	reference rhf
	basis cc-pvtz
}

set_num_threads( 4 )
memory 2 gb

molecule MOL {
0 1

H	 3.019418	 -0.268345	 0.722490
N	 2.433987	 -0.362316	 -0.080024
C	 1.263552	 0.494993	 0.021953
H	 2.167917	 -1.323036	 -0.139685
C	 -0.016533	 -0.325589	 -0.026925
H	 1.280915	 1.180773	 -0.818522
H	 1.263064	 1.106893	 0.925038
C	 -1.280353	 0.525521	 0.047747
H	 -0.016686	 -0.912532	 -0.939714
H	 -0.014099	 -1.037598	 0.796369
C	 -2.560681	 -0.301323	 -0.007747
H	 -1.279957	 1.241025	 -0.770189
H	 -1.270445	 1.110526	 0.963468
H	 -2.617064	 -0.872870	 -0.928010
H	 -3.439525	 0.331102	 0.043462
H	 -2.609427	 -1.002736	 0.818585

	symmetry c1
}
set optking {
	frozen_dihedral = ("
		1 2 3 6
	")
}

ee,wfn = optimize('scf', return_wfn=True)
oeprop( wfn, 'DIPOLE', 'QUADRUPOLE', 'MULLIKEN_CHARGES')
f=open( 'psi4out.xyz', 'w' )
f.write( "16  " )
f.write( str(ee) + "\n" )
f.write( MOL.save_string_xyz() )
f.close()
--------------------------------------------------------------------------

    Molecular point group: c1
  Charge       = 0
  Multiplicity = 1
  Basis Set: CC-PVTZ
  Basis Set:
  @DF-RHF Final Energy:  -212.39575628712666
    Total Energy =                       -212.3957562871266873
    Molecular point group: c1
  Basis Set: CC-PVTZ
  Basis Set:
  Basis Set: CC-PVTZ
  Basis Set:
  @DF-RHF Final Energy:  -212.39642085947892
    Total Energy =                       -212.3964208594789511
  Basis Set: CC-PVTZ
  Basis Set:
  Basis Set: CC-PVTZ
  Basis Set:
  @DF-RHF Final Energy:  -212.39653654095949
    Total Energy =                       -212.3965365409593460
  Basis Set: CC-PVTZ
  Basis Set:
  Basis Set: CC-PVTZ
  Basis Set:
  @DF-RHF Final Energy:  -212.39654561432161
    Total Energy =                       -212.3965456143214396
  Basis Set: CC-PVTZ
  Basis Set:
  Basis Set: CC-PVTZ
  Basis Set:
  @DF-RHF Final Energy:  -212.39654750647802
    Total Energy =                       -212.3965475064779298
  Basis Set: CC-PVTZ
  Basis Set:
  Charge       = 0
  Multiplicity = 1
  Basis Set: CC-PVTZ
  Basis Set:

    Orbital Energies (a.u.)
    -----------------------

    Doubly Occupied:

       1A    -15.522876     2A    -11.237807     3A    -11.215902
       4A    -11.213657     5A    -11.208599     6A     -1.175019
       7A     -1.063476     8A     -0.961179     9A     -0.847568
      10A     -0.798121    11A     -0.667457    12A     -0.637250
      13A     -0.597442    14A     -0.585372    15A     -0.566848
      16A     -0.520708    17A     -0.511489    18A     -0.474528
      19A     -0.472684    20A     -0.465155    21A     -0.376373

  @DF-RHF Final Energy:  -212.39654776364179

   => Energetics <=

    Nuclear Repulsion Energy =            186.5044800695536935
    One-Electron Energy =                -655.5630386903520730
    Two-Electron Energy =                 256.6620108571564742
    DFT Exchange-Correlation Energy =       0.0000000000000000
    Empirical Dispersion Energy =           0.0000000000000000
    PCM Polarization Energy =               0.0000000000000000
    EFP Energy =                            0.0000000000000000
    Total Energy =                       -212.3965477636419337
    Molecular point group: c1
  Basis Set: CC-PVTZ
  Basis Set:

  -Total Gradient:
     Atom            X                  Y                   Z
    ------   -----------------  -----------------  -----------------
       1        0.000296561719     0.000469822234    -0.000267509647
       2       -0.000284447771    -0.000533885635     0.000405050156
       3       -0.000335669130    -0.000324057438    -0.000449704762
       4       -0.000010340602     0.000031613403    -0.000004262317
       5        0.000053489837    -0.000005579617     0.000000975237
       6        0.000293740189     0.000348393235     0.000312526748
       7        0.000007124899     0.000012703300     0.000012638221
       8       -0.000015419960     0.000011409415    -0.000022810177
       9       -0.000015676473     0.000002681511     0.000014078846
      10        0.000000151071    -0.000004067877    -0.000003844566
      11       -0.000000813965    -0.000002337471     0.000010581107
      12        0.000005079359     0.000002262328    -0.000004752846
      13        0.000003748868    -0.000009710026    -0.000002388062
      14       -0.000001100649     0.000003302405    -0.000004205367
      15        0.000003276487     0.000000954050     0.000004280540
      16        0.000000296122    -0.000003503817    -0.000000653110

  **** Optimization is complete! (in 6 steps) ****
    Final optimized geometry and variables:
    Molecular point group: c1

    Geometry (in Angstrom), charge = 0, multiplicity = 1:

    H            3.052291649583    -0.294698971660     0.701209939652
    N            2.464821844994    -0.367451152716    -0.098691616862
    C            1.274508379707     0.470160916451     0.014147435964
    H            2.233832496316    -1.328541694780    -0.222688969470
    C           -0.024639845400    -0.324745653200    -0.005700510403
    H            1.263464113977     1.187232433258    -0.801513805614
    H            1.320278308534     1.053029076364     0.929225308297
    C           -1.270792447301     0.553978306155     0.037566617531
    H           -0.048018899724    -0.936381778996    -0.905372600179
    H           -0.033684075198    -1.012565972837     0.836764069366
    C           -2.568429323214    -0.246872663585     0.011863166201
    H           -1.255084090402     1.240606617885    -0.803934345195
    H           -1.245761843710     1.168868922866     0.933131902631
    H           -2.640649676012    -0.845511066216    -0.890023414943
    H           -3.433053356576     0.405863353168     0.045201140046
    H           -2.629727305063    -0.920494798117     0.860128606315

  Mulliken Charges: (a.u.)
   Center  Symbol    Alpha    Beta     Spin     Total
       1     H     0.42698  0.42698  0.00000  0.14605
       2     N     3.69808  3.69808  0.00000 -0.39617
       3     C     3.01600  3.01600  0.00000 -0.03200
       4     H     0.42783  0.42783  0.00000  0.14433
       5     C     3.08844  3.08844  0.00000 -0.17688
       6     H     0.46258  0.46258  0.00000  0.07485
       7     H     0.46303  0.46303  0.00000  0.07393
       8     C     3.08950  3.08950  0.00000 -0.17900
       9     H     0.45480  0.45480  0.00000  0.09039
      10     H     0.45731  0.45731  0.00000  0.08538
      11     C     3.14908  3.14908  0.00000 -0.29817
      12     H     0.45336  0.45336  0.00000  0.09328
      13     H     0.45489  0.45489  0.00000  0.09021
      14     H     0.45468  0.45468  0.00000  0.09065
      15     H     0.44819  0.44819  0.00000  0.10361
      16     H     0.45523  0.45523  0.00000  0.08954

   Total alpha = 21.00000, Total beta = 21.00000, Total charge =  0.00000

*** Psi4 exiting successfully. Buy a developer a beer!
