                              Psi4 1.0.54 Driver

  ==> Input File <==

--------------------------------------------------------------------------
set {
	reference rhf
	basis cc-pvtz
}

set_num_threads( 4 )
memory 2 gb

molecule MOL {
0 1

H	 -2.005236	 0.883630	 4.195621
C	 -1.348268	 0.772010	 3.354128
C	 -1.313376	 1.745617	 2.372031
C	 -0.539544	 -0.344293	 3.255052
H	 -1.941383	 2.611810	 2.449600
C	 -0.468913	 1.601482	 1.291013
H	 -0.567348	 -1.098762	 4.017204
C	 0.306560	 -0.490055	 2.173221
H	 -0.429226	 2.345531	 0.521679
C	 0.344078	 0.483350	 1.187529
H	 0.934164	 -1.353353	 2.093463
C	 1.238974	 0.374429	 0.000004
O	 1.968286	 -0.725612	 -0.000027
O	 1.295285	 1.188196	 -0.860108
C	 3.373556	 -0.568203	 0.000011
H	 3.695416	 -0.031588	 -0.879663
H	 3.782700	 -1.565294	 -0.000152
H	 3.695405	 -0.031851	 0.879862

	symmetry c1
}
set optking {
	frozen_dihedral = ("
		10 12 13 15
	")
}

ee,wfn = optimize('scf', return_wfn=True)
oeprop( wfn, 'DIPOLE', 'QUADRUPOLE', 'MULLIKEN_CHARGES')
f=open( 'psi4out.xyz', 'w' )
f.write( "18  " )
f.write( str(ee) + "\n" )
f.write( MOL.save_string_xyz() )
f.close()
--------------------------------------------------------------------------

    Molecular point group: c1
  Charge       = 0
  Multiplicity = 1
  Basis Set: CC-PVTZ
  Basis Set:
  @DF-RHF Final Energy:  -457.49625031307482
    Total Energy =                       -457.4962503130750520
    Molecular point group: c1
  Basis Set: CC-PVTZ
  Basis Set:
  Basis Set: CC-PVTZ
  Basis Set:
  @DF-RHF Final Energy:  -457.49144630302618
    Total Energy =                       -457.4914463030263505
  Basis Set: CC-PVTZ
  Basis Set:
  Basis Set: CC-PVTZ
  Basis Set:
  @DF-RHF Final Energy:  -457.49662656433668
    Total Energy =                       -457.4966265643362249
  Basis Set: CC-PVTZ
  Basis Set:
  Basis Set: CC-PVTZ
  Basis Set:
  @DF-RHF Final Energy:  -457.49663639111765
    Total Energy =                       -457.4966363911172493
  Basis Set: CC-PVTZ
  Basis Set:
  Basis Set: CC-PVTZ
  Basis Set:
  @DF-RHF Final Energy:  -457.49694354919973
    Total Energy =                       -457.4969435491998411
  Basis Set: CC-PVTZ
  Basis Set:
  Basis Set: CC-PVTZ
  Basis Set:
  @DF-RHF Final Energy:  -457.49695340185303
    Total Energy =                       -457.4969534018534887
  Basis Set: CC-PVTZ
  Basis Set:
  Charge       = 0
  Multiplicity = 1
  Basis Set: CC-PVTZ
  Basis Set:

    Orbital Energies (a.u.)
    -----------------------

    Doubly Occupied:

       1A    -20.585094     2A    -20.541815     3A    -11.373506
       4A    -11.285545     5A    -11.247004     6A    -11.246556
       7A    -11.245522     8A    -11.242778     9A    -11.238529
      10A    -11.237819    11A     -1.467419    12A     -1.369545
      13A     -1.172961    14A     -1.050443    15A     -1.031629
      16A     -0.976187    17A     -0.869609    18A     -0.841360
      19A     -0.780657    20A     -0.743055    21A     -0.688445
      22A     -0.678831    23A     -0.668036    24A     -0.638644
      25A     -0.632333    26A     -0.607191    27A     -0.599190
      28A     -0.560865    29A     -0.530855    30A     -0.523080
      31A     -0.507257    32A     -0.502686    33A     -0.462635
      34A     -0.447431    35A     -0.352919    36A     -0.348798

  @DF-RHF Final Energy:  -457.49695392500865

   => Energetics <=

    Nuclear Repulsion Energy =            495.1088505153443862
    One-Electron Energy =               -1604.6191520124984891
    Two-Electron Energy =                 652.0133475721448804
    DFT Exchange-Correlation Energy =       0.0000000000000000
    Empirical Dispersion Energy =           0.0000000000000000
    PCM Polarization Energy =               0.0000000000000000
    EFP Energy =                            0.0000000000000000
    Total Energy =                       -457.4969539250092794
    Molecular point group: c1
  Basis Set: CC-PVTZ
  Basis Set:

  -Total Gradient:
     Atom            X                  Y                   Z
    ------   -----------------  -----------------  -----------------
       1       -0.000005919271    -0.000000766979    -0.000002340021
       2        0.000010435432     0.000047986741    -0.000012385334
       3       -0.000034981285    -0.000036223055     0.000038838566
       4        0.000032856857    -0.000004051654    -0.000019226031
       5        0.000001713048    -0.000004745165     0.000002383428
       6        0.000042898784    -0.000046022905    -0.000010192667
       7       -0.000005453320     0.000008976801    -0.000005233633
       8       -0.000024727517    -0.000015866674     0.000017071279
       9       -0.000002921562    -0.000002006662    -0.000001972082
      10        0.004522793157     0.002045989206     0.003246420364
      11       -0.000003182348     0.000013848054    -0.000005325061
      12       -0.006669124714    -0.003278595542    -0.001773036764
      13        0.002277321078     0.001795396639    -0.007816631329
      14       -0.000010662517     0.000057582052     0.000019898010
      15       -0.000090827118    -0.000571242409     0.006310876812
      16       -0.000010606096    -0.000011131624     0.000005545432
      17       -0.000015091478     0.000010289946     0.000004699981
      18       -0.000014521125    -0.000009416772     0.000000609051

  **** Optimization is complete! (in 7 steps) ****
    Final optimized geometry and variables:
    Molecular point group: c1

    Geometry (in Angstrom), charge = 0, multiplicity = 1:

    H           -2.547810172004     0.630287775550     3.006660995732
    C           -1.901497000252     0.490177857044     2.161149350021
    C           -1.698298995579     1.529184662205     1.268588296566
    C           -1.277038619174    -0.726028938145     1.966097678331
    H           -2.185535709748     2.472655290278     1.420945449250
    C           -0.869438369133     1.349295017719     0.182565718661
    H           -1.438062001731    -1.531368349047     2.656252067710
    C           -0.444230538365    -0.907373267051     0.877905186983
    H           -0.701758512300     2.142253947490    -0.517686904814
    C           -0.234375447972     0.130713646107    -0.015047005184
    H            0.037135013100    -1.850016241660     0.719218822286
    C            0.674028008632    -0.013242251167    -1.187936689243
    O            1.261295794154    -1.212462941574    -1.284052331995
    O            0.904570262024     0.863815160870    -1.944309646190
    C            2.674859506597    -1.229509155366    -1.249918411865
    H            3.086079007819    -0.610763857700    -2.033445785048
    H            2.972364353449    -2.254821345434    -1.397683719994
    H            3.029025269714    -0.885478786936    -0.285660626040

  Mulliken Charges: (a.u.)
   Center  Symbol    Alpha    Beta     Spin     Total
       1     H     0.41982  0.41982  0.00000  0.16036
       2     C     3.06899  3.06899  0.00000 -0.13799
       3     C     3.07569  3.07569  0.00000 -0.15138
       4     C     3.07587  3.07587  0.00000 -0.15174
       5     H     0.42015  0.42015  0.00000  0.15971
       6     C     3.07650  3.07650  0.00000 -0.15300
       7     H     0.42120  0.42120  0.00000  0.15759
       8     C     3.09013  3.09013  0.00000 -0.18026
       9     H     0.40653  0.40653  0.00000  0.18695
      10     C     3.01815  3.01815  0.00000 -0.03631
      11     H     0.40884  0.40884  0.00000  0.18232
      12     C     2.76918  2.76918  0.00000  0.46164
      13     O     4.16854  4.16854  0.00000 -0.33708
      14     O     4.19132  4.19132  0.00000 -0.38264
      15     C     3.04196  3.04196  0.00000 -0.08392
      16     H     0.44218  0.44218  0.00000  0.11565
      17     H     0.44327  0.44327  0.00000  0.11346
      18     H     0.46168  0.46168  0.00000  0.07663

   Total alpha = 36.00000, Total beta = 36.00000, Total charge = -0.00000

*** Psi4 exiting successfully. Buy a developer a beer!
