                              Psi4 1.0.54 Driver

  ==> Input File <==

--------------------------------------------------------------------------
set {
	reference rhf
	basis cc-pvtz
}

set_num_threads( 4 )
memory 2 gb

molecule MOL {
0 1

H	 2.828711	 -0.346904	 0.001083
C	 1.876752	 0.015931	 -0.363450
C	 0.776285	 -0.474665	 0.563092
H	 1.728113	 -0.357244	 -1.367440
H	 1.906171	 1.096574	 -0.386153
N	 -0.540022	 0.017605	 0.071630
H	 0.707111	 -1.548969	 0.573035
H	 0.886169	 -0.084184	 1.560432
O	 -0.656290	 0.180914	 -1.096277
O	 -1.373057	 0.239913	 0.884666

	symmetry c1
}
set optking {
	frozen_dihedral = ("
		9 6 3 2
	")
}

ee,wfn = optimize('scf', return_wfn=True)
oeprop( wfn, 'DIPOLE', 'QUADRUPOLE', 'MULLIKEN_CHARGES')
f=open( 'psi4out.xyz', 'w' )
f.write( "10  " )
f.write( str(ee) + "\n" )
f.write( MOL.save_string_xyz() )
f.close()
--------------------------------------------------------------------------

    Molecular point group: c1
  Charge       = 0
  Multiplicity = 1
  Basis Set: CC-PVTZ
  Basis Set:
  @DF-RHF Final Energy:  -282.81169387235110
    Total Energy =                       -282.8116938723510998
    Molecular point group: c1
  Basis Set: CC-PVTZ
  Basis Set:
  Basis Set: CC-PVTZ
  Basis Set:
  @DF-RHF Final Energy:  -282.80742338082246
    Total Energy =                       -282.8074233808222857
  Basis Set: CC-PVTZ
  Basis Set:
  Basis Set: CC-PVTZ
  Basis Set:
  @DF-RHF Final Energy:  -282.81048859500714
    Total Energy =                       -282.8104885950072003
  Basis Set: CC-PVTZ
  Basis Set:
  Basis Set: CC-PVTZ
  Basis Set:
  @DF-RHF Final Energy:  -282.81293096399327
    Total Energy =                       -282.8129309639933808
  Basis Set: CC-PVTZ
  Basis Set:
  Basis Set: CC-PVTZ
  Basis Set:
  @DF-RHF Final Energy:  -282.81296391528940
    Total Energy =                       -282.8129639152894015
  Basis Set: CC-PVTZ
  Basis Set:
  Charge       = 0
  Multiplicity = 1
  Basis Set: CC-PVTZ
  Basis Set:

    Orbital Energies (a.u.)
    -----------------------

    Doubly Occupied:

       1A    -20.593078     2A    -20.591193     3A    -15.839427
       4A    -11.302977     5A    -11.244747     6A     -1.638485
       7A     -1.422789     8A     -1.124290     9A     -0.966969
      10A     -0.835902    11A     -0.764331    12A     -0.748935
      13A     -0.732013    14A     -0.644193    15A     -0.593118
      16A     -0.564067    17A     -0.539358    18A     -0.489992
      19A     -0.479654    20A     -0.455857

  @DF-RHF Final Energy:  -282.81296605778812

   => Energetics <=

    Nuclear Repulsion Energy =            186.5744458963145007
    One-Electron Energy =                -755.6320762347450000
    Two-Electron Energy =                 286.2446642806424961
    DFT Exchange-Correlation Energy =       0.0000000000000000
    Empirical Dispersion Energy =           0.0000000000000000
    PCM Polarization Energy =               0.0000000000000000
    EFP Energy =                            0.0000000000000000
    Total Energy =                       -282.8129660577880031
    Molecular point group: c1
  Basis Set: CC-PVTZ
  Basis Set:

  -Total Gradient:
     Atom            X                  Y                   Z
    ------   -----------------  -----------------  -----------------
       1       -0.000021086878    -0.000009502192     0.000028499664
       2       -0.000027168184    -0.000007176433    -0.000053968440
       3        0.000069554977     0.000107497919     0.000078336910
       4       -0.000049094592    -0.000021831994     0.000024996271
       5        0.000026587476     0.000030784914    -0.000018894565
       6       -0.000063265746    -0.000158053516    -0.000468380843
       7       -0.000047756204    -0.000040966971     0.000012248235
       8        0.000008534505     0.000035615039    -0.000022982939
       9        0.000190383346     0.000087973194     0.000134584933
      10       -0.000086688706    -0.000024339960     0.000285560770

  **** Optimization is complete! (in 6 steps) ****
    Final optimized geometry and variables:
    Molecular point group: c1

    Geometry (in Angstrom), charge = 0, multiplicity = 1:

    H            2.824676850545    -0.543604267197    -0.000644697871
    C            1.916456621135    -0.099659836953    -0.389061409637
    C            0.766067871290    -0.518095087255     0.499552532459
    H            1.771438201550    -0.433535244673    -1.404497163181
    H            2.036901608652     0.975456005578    -0.392169428134
    N           -0.541626849635     0.063790460368     0.071288945121
    H            0.602369187695    -1.586619705521     0.474934284379
    H            0.887156311834    -0.211861391968     1.524284402732
    O           -0.701955312712     0.286288378075    -1.080423680835
    O           -1.348193446678     0.234755197394     0.922395630168

  Mulliken Charges: (a.u.)
   Center  Symbol    Alpha    Beta     Spin     Total
       1     H     0.44933  0.44933  0.00000  0.10134
       2     C     3.13984  3.13984  0.00000 -0.27969
       3     C     3.04184  3.04184  0.00000 -0.08369
       4     H     0.43750  0.43750  0.00000  0.12501
       5     H     0.44482  0.44482  0.00000  0.11036
       6     N     3.27684  3.27684  0.00000  0.44632
       7     H     0.43618  0.43618  0.00000  0.12763
       8     H     0.43130  0.43130  0.00000  0.13741
       9     O     4.17096  4.17096  0.00000 -0.34192
      10     O     4.17139  4.17139  0.00000 -0.34279

   Total alpha = 20.00000, Total beta = 20.00000, Total charge = -0.00000

*** Psi4 exiting successfully. Buy a developer a beer!
