  ==> Input File <==

--------------------------------------------------------------------------
set {
	reference rhf
	basis cc-pvtz
}

set_num_threads( 4 )
memory 2 gb

molecule MOL {
0 1

H	 3.459101	 0.139266	 -0.762951
C	 2.749156	 -0.051729	 0.031265
C	 1.322304	 0.099773	 -0.484271
H	 2.929445	 -1.053887	 0.403481
H	 2.954281	 0.646699	 0.834672
C	 0.308557	 -0.162619	 0.622645
H	 1.143368	 -0.594400	 -1.295960
H	 1.169532	 1.100095	 -0.870217
N	 -1.069352	 -0.004081	 0.085342
H	 0.371632	 -1.172932	 0.991288
H	 0.400391	 0.548875	 1.426218
O	 -1.965264	 -0.352756	 0.778410
O	 -1.177416	 0.433195	 -1.011040

	symmetry c1
}
set optking {
	frozen_dihedral = ("
		12 9 6 3
	")
}

ee = optimize('scf')
oeprop('DIPOLE', 'QUADRUPOLE', 'MULLIKEN_CHARGES')
f=open( 'psi4out.xyz', 'w' )
f.write( "13  " )
f.write( str(ee) + "\n" )
f.write( MOL.save_string_xyz() )
f.close()
--------------------------------------------------------------------------

    Molecular point group: c1
  Charge       = 0
  Multiplicity = 1
  Basis Set: CC-PVTZ
  Basis Set:
  @DF-RHF Final Energy:  -321.85844708974264
    Total Energy =                       -321.8584470897422420
    Molecular point group: c1
  Basis Set: CC-PVTZ
  Basis Set:
  Basis Set: CC-PVTZ
  Basis Set:
  @DF-RHF Final Energy:  -321.85766567960286
    Total Energy =                       -321.8576656796028601
  Basis Set: CC-PVTZ
  Basis Set:
  Basis Set: CC-PVTZ
  Basis Set:
  @DF-RHF Final Energy:  -321.85732423414726
    Total Energy =                       -321.8573242341471428
  Basis Set: CC-PVTZ
  Basis Set:
  Basis Set: CC-PVTZ
  Basis Set:
  @DF-RHF Final Energy:  -321.86038331422856
    Total Energy =                       -321.8603833142288977
  Basis Set: CC-PVTZ
  Basis Set:
  Basis Set: CC-PVTZ
  Basis Set:
  @DF-RHF Final Energy:  -321.86047894129251
    Total Energy =                       -321.8604789412927403
  Basis Set: CC-PVTZ
  Basis Set:
  Basis Set: CC-PVTZ
  Basis Set:
  @DF-RHF Final Energy:  -321.86052942032597
    Total Energy =                       -321.8605294203262588
  Basis Set: CC-PVTZ
  Basis Set:
  Basis Set: CC-PVTZ
  Basis Set:
  @DF-RHF Final Energy:  -321.86053289639949
    Total Energy =                       -321.8605328963995476
  Basis Set: CC-PVTZ
  Basis Set:
  Charge       = 0
  Multiplicity = 1
  Basis Set: CC-PVTZ
  Basis Set:

    Orbital Energies (a.u.)
    -----------------------

    Doubly Occupied:

       1A    -20.593590     2A    -20.587643     3A    -15.838525
       4A    -11.299124     5A    -11.246989     6A    -11.234924
       7A     -1.637245     8A     -1.421369     9A     -1.131603
      10A     -1.026643    11A     -0.884911    12A     -0.826502
      13A     -0.762897    14A     -0.753127    15A     -0.730937
      16A     -0.657151    17A     -0.607530    18A     -0.575690
      19A     -0.554429    20A     -0.522270    21A     -0.509627
      22A     -0.488547    23A     -0.474496    24A     -0.453517

  @DF-RHF Final Energy:  -321.86053320205798

   => Energetics <=

    Nuclear Repulsion Energy =            247.6283082192503002
    One-Electron Energy =                -929.3391099044226848
    Two-Electron Energy =                 359.8502684831145189
    DFT Exchange-Correlation Energy =       0.0000000000000000
    Empirical Dispersion Energy =           0.0000000000000000
    PCM Polarization Energy =               0.0000000000000000
    EFP Energy =                            0.0000000000000000
    Total Energy =                       -321.8605332020578089
    Molecular point group: c1
  Basis Set: CC-PVTZ
  Basis Set:

  -Total Gradient:
     Atom            X                  Y                   Z
    ------   -----------------  -----------------  -----------------
       1       -0.000011582501    -0.000003219674    -0.000002590784
       2       -0.000005954262    -0.000023219382     0.000004650749
       3        0.000007723603     0.000155898226     0.000027009819
       4        0.000004605278    -0.000001799845     0.000006799321
       5        0.000000793169     0.000005145311    -0.000002007911
       6        0.000007049855    -0.000129814820    -0.000014520677
       7        0.000001374558     0.000000596890     0.000004688330
       8       -0.000004191788     0.000005093368    -0.000003118710
       9        0.000012265175    -0.000161048186    -0.000082119060
      10       -0.000008860220    -0.000002683864     0.000009186947
      11        0.000002616553     0.000000879973    -0.000007512742
      12        0.000003392408     0.000145488617     0.000069467541
      13       -0.000009231829     0.000008683387    -0.000009932823

  **** Optimization is complete! (in 8 steps) ****
    Final optimized geometry and variables:
    Molecular point group: c1

    Geometry (in Angstrom), charge = 0, multiplicity = 1:

    H            3.510876560879     0.127036212196    -0.735836007426
    C            2.773804126017    -0.054218537164     0.035478204828
    C            1.364938392635     0.118199449757    -0.526142248682
    H            2.931310420726    -1.058145471841     0.414039067595
    H            2.965595918071     0.640982776829     0.845500770358
    C            0.330350919102    -0.136589585324     0.550223696093
    H            1.205856565098    -0.566933673113    -1.348864214941
    H            1.239269272344     1.116359762126    -0.921410476719
    N           -1.082244060804    -0.008381140147     0.079556575183
    H            0.391139873599    -1.130876855504     0.964107733866
    H            0.403988988276     0.568018473130     1.366590723388
    O           -1.916121083072    -0.377480157464     0.837236858453
    O           -1.286233396180     0.458418378307    -0.988375573945

  Mulliken Charges: (a.u.)
   Center  Symbol    Alpha    Beta     Spin     Total
       1     H     0.44125  0.44125  0.00000  0.11749
       2     C     3.15269  3.15269  0.00000 -0.30537
       3     C     3.09083  3.09083  0.00000 -0.18166
       4     H     0.45307  0.45307  0.00000  0.09385
       5     H     0.45313  0.45313  0.00000  0.09373
       6     C     3.04685  3.04685  0.00000 -0.09370
       7     H     0.44102  0.44102  0.00000  0.11795
       8     H     0.43783  0.43783  0.00000  0.12433
       9     N     3.27306  3.27306  0.00000  0.45388
      10     H     0.43255  0.43255  0.00000  0.13490
      11     H     0.43423  0.43423  0.00000  0.13154
      12     O     4.17431  4.17431  0.00000 -0.34862
      13     O     4.16916  4.16916  0.00000 -0.33833

   Total alpha = 24.00000, Total beta = 24.00000, Total charge = -0.00000
