                              Psi4 1.0.54 Driver

  ==> Input File <==

--------------------------------------------------------------------------
set {
	reference rhf
	basis cc-pvtz
}

set_num_threads( 4 )
memory 2 gb

molecule MOL {
0 1

O	 -2.081319	 -0.951530	 -0.502732
N	 -1.613558	 0.006676	 0.014756
C	 -0.329345	 -0.171618	 0.743966
O	 -2.068523	 1.100482	 -0.024385
C	 0.835904	 0.041968	 -0.213982
H	 -0.346048	 -1.174374	 1.137184
H	 -0.333613	 0.555559	 1.538590
C	 1.561192	 1.353439	 0.076133
H	 1.523968	 -0.790327	 -0.122272
H	 0.459908	 0.043452	 -1.230527
C	 2.728630	 1.595297	 -0.874170
H	 1.923764	 1.346630	 1.099819
H	 0.858624	 2.178322	 0.002829
H	 3.464652	 0.802671	 -0.798597
H	 2.391828	 1.638265	 -1.903943
H	 3.224471	 2.531292	 -0.647859

	symmetry c1
}
set optking {
	frozen_dihedral = ("
		9 5 3 2
	")
}

ee,wfn = optimize('scf', return_wfn=True)
oeprop( wfn, 'DIPOLE', 'QUADRUPOLE', 'MULLIKEN_CHARGES')
f=open( 'psi4out.xyz', 'w' )
f.write( "16  " )
f.write( str(ee) + "\n" )
f.write( MOL.save_string_xyz() )
f.close()
--------------------------------------------------------------------------

    Molecular point group: c1
  Charge       = 0
  Multiplicity = 1
  Basis Set: CC-PVTZ
  Basis Set:
  @DF-RHF Final Energy:  -360.90432231683667
    Total Energy =                       -360.9043223168368968
    Molecular point group: c1
  Basis Set: CC-PVTZ
  Basis Set:
  Basis Set: CC-PVTZ
  Basis Set:
  @DF-RHF Final Energy:  -360.90274249257538
    Total Energy =                       -360.9027424925755554
  Basis Set: CC-PVTZ
  Basis Set:
  Basis Set: CC-PVTZ
  Basis Set:
  @DF-RHF Final Energy:  -360.89765418037058
    Total Energy =                       -360.8976541803705231
  Basis Set: CC-PVTZ
  Basis Set:
  Basis Set: CC-PVTZ
  Basis Set:
  @DF-RHF Final Energy:  -360.90296549702424
    Total Energy =                       -360.9029654970241268
  Basis Set: CC-PVTZ
  Basis Set:
  @DF-RHF Final Energy:  -360.90469957340991
    Total Energy =                       -360.9046995734098005
  @DF-RHF Final Energy:  -360.90487866350509
    Total Energy =                       -360.9048786635050305
  @DF-RHF Final Energy:  -360.90490659585629
    Total Energy =                       -360.9049065958565734
  Basis Set: CC-PVTZ
  Basis Set:
  @DF-RHF Final Energy:  -360.90491180344748
    Total Energy =                       -360.9049118034471348
  Basis Set: CC-PVTZ
  Basis Set:
  Basis Set: CC-PVTZ
  Basis Set:
  @DF-RHF Final Energy:  -360.90490838547316
    Total Energy =                       -360.9049083854732203
  Basis Set: CC-PVTZ
  Basis Set:
  Basis Set: CC-PVTZ
  Basis Set:
  @DF-RHF Final Energy:  -360.90491999531480
    Total Energy =                       -360.9049199953145717
  Basis Set: CC-PVTZ
  Basis Set:
  Charge       = 0
  Multiplicity = 1
  Basis Set: CC-PVTZ
  Basis Set:

    Orbital Energies (a.u.)
    -----------------------

    Doubly Occupied:

       1A    -20.591433     2A    -20.588818     3A    -15.836488
       4A    -11.296758     5A    -11.251809     6A    -11.235462
       7A    -11.222313     8A     -1.635552     9A     -1.419757
      10A     -1.133690    11A     -1.057306    12A     -0.947426
      13A     -0.846721    14A     -0.825922    15A     -0.762503
      16A     -0.736456    17A     -0.727567    18A     -0.654980
      19A     -0.632652    20A     -0.603832    21A     -0.558684
      22A     -0.554614    23A     -0.508496    24A     -0.500222
      25A     -0.497086    26A     -0.478804    27A     -0.470851
      28A     -0.453816

  @DF-RHF Final Energy:  -360.90492084151936

   => Energetics <=

    Nuclear Repulsion Energy =            316.1402941541629161
    One-Electron Energy =               -1118.0303899606842606
    Two-Electron Energy =                 440.9851749650017609
    DFT Exchange-Correlation Energy =       0.0000000000000000
    Empirical Dispersion Energy =           0.0000000000000000
    PCM Polarization Energy =               0.0000000000000000
    EFP Energy =                            0.0000000000000000
    Total Energy =                       -360.9049208415195835
    Molecular point group: c1
  Basis Set: CC-PVTZ
  Basis Set:

  -Total Gradient:
     Atom            X                  Y                   Z
    ------   -----------------  -----------------  -----------------
       1       -0.000108824092    -0.000245437519    -0.000115119765
       2        0.000065897033    -0.001485827490    -0.000711681944
       3       -0.000233134313     0.002026061177     0.000571605398
       4        0.000037337989     0.000052518963     0.000045916937
       5        0.001407663920     0.000481420098     0.002271542348
       6        0.000003748929    -0.000007894253    -0.000001251916
       7        0.000016246426     0.000024263882     0.000025253759
       8       -0.000026369711     0.000012016896    -0.000032096449
       9       -0.001156066099    -0.000853989490    -0.002041995790
      10       -0.000016715469     0.000009529901    -0.000038957721
      11        0.000007326978    -0.000030113618     0.000016403670
      12        0.000005327709    -0.000005528406     0.000026118469
      13       -0.000009643726     0.000009115513    -0.000004970348
      14        0.000010644299    -0.000009679006    -0.000007605274
      15       -0.000008422983     0.000005012766    -0.000017470630
      16        0.000004983109     0.000018530583     0.000014309257

  **** Optimization is complete! (in 11 steps) ****
    Final optimized geometry and variables:
    Molecular point group: c1

    Geometry (in Angstrom), charge = 0, multiplicity = 1:

    O           -2.024405506067    -1.280417157303    -0.531110984148
    N           -1.457378540478    -0.400488832814     0.023438504158
    C           -0.207117216080    -0.740829597137     0.753315433374
    O           -1.788004809429     0.739029637943     0.021388162656
    C            1.017616482652    -0.375995700946    -0.102593992302
    H           -0.268833952585    -1.796204451617     0.949871587569
    H           -0.240794025211    -0.181404870607     1.673620156686
    C            1.762720333847     0.859892623554     0.391872809511
    H            1.678134543085    -1.234118353866    -0.131760881291
    H            0.697238236097    -0.222589239338    -1.126817668629
    C            2.962362658800     1.206864336753    -0.481578411779
    H            2.094092195518     0.692208921466     1.412956495914
    H            1.075450686426     1.698212410717     0.421873877151
    H            3.676817480359     0.390974524788    -0.511020718704
    H            2.656051562161     1.416234900055    -1.500613491311
    H            3.475659869012     2.082757524261    -0.104020551574

  Mulliken Charges: (a.u.)
   Center  Symbol    Alpha    Beta     Spin     Total
       1     O     4.17028  4.17028  0.00000 -0.34055
       2     N     3.27718  3.27718  0.00000  0.44565
       3     C     3.04907  3.04907  0.00000 -0.09813
       4     O     4.17563  4.17563  0.00000 -0.35125
       5     C     3.09762  3.09762  0.00000 -0.19524
       6     H     0.42662  0.42662  0.00000  0.14676
       7     H     0.43549  0.43549  0.00000  0.12902
       8     C     3.08792  3.08792  0.00000 -0.17585
       9     H     0.44262  0.44262  0.00000  0.11475
      10     H     0.44134  0.44134  0.00000  0.11732
      11     C     3.15049  3.15049  0.00000 -0.30098
      12     H     0.45348  0.45348  0.00000  0.09305
      13     H     0.44106  0.44106  0.00000  0.11787
      14     H     0.45486  0.45486  0.00000  0.09027
      15     H     0.45135  0.45135  0.00000  0.09731
      16     H     0.44500  0.44500  0.00000  0.11000

   Total alpha = 28.00000, Total beta = 28.00000, Total charge = -0.00000

*** Psi4 exiting successfully. Buy a developer a beer!
