  ==> Input File <==

--------------------------------------------------------------------------
set {
	reference rhf
	basis cc-pvtz
}

set_num_threads( 4 )
memory 2 gb

molecule MOL {
0 1

H	 2.837865	 -0.433055	 -0.259618
O	 2.006197	 -0.870411	 -0.155764
C	 1.044096	 0.047713	 -0.161265
C	 -0.318151	 -0.570512	 0.000144
O	 1.275405	 1.201000	 -0.281243
C	 -1.454884	 0.441630	 -0.000560
H	 -0.436679	 -1.296675	 -0.797684
H	 -0.302079	 -1.144282	 0.921247
C	 -2.822577	 -0.232186	 0.000063
H	 -1.359760	 1.084704	 -0.867077
H	 -1.359641	 1.085996	 0.864983
H	 -2.954352	 -0.858985	 -0.875745
H	 -3.615886	 0.505352	 0.000019
H	 -2.953878	 -0.858359	 0.876394

	symmetry c1
}
set optking {
	frozen_dihedral = ("
		7 4 6 10
	")
}

ee = optimize('scf')
oeprop('DIPOLE', 'QUADRUPOLE', 'MULLIKEN_CHARGES')
f=open( 'psi4out.xyz', 'w' )
f.write( "14  " )
f.write( str(ee) + "\n" )
f.write( MOL.save_string_xyz() )
f.close()
--------------------------------------------------------------------------

    Molecular point group: c1
  Charge       = 0
  Multiplicity = 1
  Basis Set: CC-PVTZ
  Basis Set:
  @DF-RHF Final Energy:  -306.00089660770504
    Total Energy =                       -306.0008966077050445
    Molecular point group: c1
  Basis Set: CC-PVTZ
  Basis Set:
  Basis Set: CC-PVTZ
  Basis Set:
  @DF-RHF Final Energy:  -306.00091642225487
    Total Energy =                       -306.0009164222549316
  Basis Set: CC-PVTZ
  Basis Set:
  Basis Set: CC-PVTZ
  Basis Set:
  @DF-RHF Final Energy:  -306.00091057033274
    Total Energy =                       -306.0009105703322803
  Basis Set: CC-PVTZ
  Basis Set:
  Basis Set: CC-PVTZ
  Basis Set:
  @DF-RHF Final Energy:  -306.00091987251375
    Total Energy =                       -306.0009198725139754
  Basis Set: CC-PVTZ
  Basis Set:
  Charge       = 0
  Multiplicity = 1
  Basis Set: CC-PVTZ
  Basis Set:

    Orbital Energies (a.u.)
    -----------------------

    Doubly Occupied:

       1A    -20.604526     2A    -20.541149     3A    -11.374156
       4A    -11.239808     5A    -11.223807     6A    -11.215508
       7A     -1.478156     8A     -1.369701     9A     -1.084391
      10A     -0.981099    11A     -0.859426    12A     -0.793097
      13A     -0.704288    14A     -0.692351    15A     -0.669588
      16A     -0.617697    17A     -0.597054    18A     -0.574762
      19A     -0.545917    20A     -0.507431    21A     -0.492385
      22A     -0.485144    23A     -0.481520    24A     -0.448020

  @DF-RHF Final Energy:  -306.00092019378224

   => Energetics <=

    Nuclear Repulsion Energy =            240.4396093542997335
    One-Electron Energy =                -893.7190983396869797
    Two-Electron Energy =                 347.2785687916050392
    DFT Exchange-Correlation Energy =       0.0000000000000000
    Empirical Dispersion Energy =           0.0000000000000000
    PCM Polarization Energy =               0.0000000000000000
    EFP Energy =                            0.0000000000000000
    Total Energy =                       -306.0009201937822354
    Molecular point group: c1
  Basis Set: CC-PVTZ
  Basis Set:

  -Total Gradient:
     Atom            X                  Y                   Z
    ------   -----------------  -----------------  -----------------
       1        0.000012092988    -0.000006021103    -0.000003656181
       2        0.000007015868     0.000017968355     0.000007422989
       3       -0.000027180469     0.000006062229    -0.000029434963
       4        0.000921839744     0.001057510036    -0.000732778895
       5        0.000000826326    -0.000026540327     0.000000437327
       6       -0.000963097320    -0.001105606323    -0.000560674746
       7       -0.000616022998    -0.000684110479     0.000723041594
       8        0.000004314629    -0.000007825335     0.000010645632
       9        0.000000444238    -0.000000037785    -0.000025029863
      10        0.000649626860     0.000750219675     0.000608220267
      11        0.000002335812    -0.000007363240     0.000007080788
      12       -0.000007677438    -0.000000203561    -0.000000791928
      13        0.000001575465     0.000000480131     0.000000375181
      14        0.000013906298     0.000005467730    -0.000004857202

  **** Optimization is complete! (in 5 steps) ****
    Final optimized geometry and variables:
    Molecular point group: c1

    Geometry (in Angstrom), charge = 0, multiplicity = 1:

    H            2.843325676268    -0.428051178730    -0.141849293915
    O            2.010753183565    -0.865756632797    -0.046936172790
    C            1.048997305796     0.052685765629    -0.056854034136
    C           -0.314302806111    -0.565442227456     0.091194079554
    O            1.281695876977     1.206404319046    -0.169561970660
    C           -1.452952087432     0.444958632195     0.089907896975
    H           -0.430885468944    -1.293223155431    -0.705446330129
    H           -0.304294903946    -1.142813477489     1.010336036957
    C           -2.820311320062    -0.228212499910     0.107664260308
    H           -1.360434307306     1.087742766037    -0.776692386429
    H           -1.351074134971     1.094329948130     0.951683187830
    H           -2.964058203403    -0.852122786472    -0.768245233988
    H           -3.613298134452     0.509528670612     0.121096764074
    H           -2.939702614716    -0.857172486910     0.983761033753

  Mulliken Charges: (a.u.)
   Center  Symbol    Alpha    Beta     Spin     Total
       1     H     0.38232  0.38232  0.00000  0.23537
       2     O     4.16001  4.16001  0.00000 -0.32002
       3     C     2.80501  2.80501  0.00000  0.38999
       4     C     3.10567  3.10567  0.00000 -0.21134
       5     O     4.19090  4.19090  0.00000 -0.38179
       6     C     3.07963  3.07963  0.00000 -0.15927
       7     H     0.43942  0.43942  0.00000  0.12115
       8     H     0.43843  0.43843  0.00000  0.12313
       9     C     3.15015  3.15015  0.00000 -0.30031
      10     H     0.44476  0.44476  0.00000  0.11049
      11     H     0.44770  0.44770  0.00000  0.10460
      12     H     0.45528  0.45528  0.00000  0.08944
      13     H     0.44512  0.44512  0.00000  0.10977
      14     H     0.45560  0.45560  0.00000  0.08880

   Total alpha = 24.00000, Total beta = 24.00000, Total charge =  0.00000
