  ==> Input File <==

--------------------------------------------------------------------------
set {
	reference rhf
	basis 6-31G*
}

set_num_threads( 4 )
memory 2 gb

molecule MOL {
0 1

H	 -3.058441	 0.541952	 -2.140778
C	 -2.366000	 -0.135001	 -1.679346
C	 -2.076860	 -0.007332	 -0.404944
H	 -1.924307	 -0.906849	 -2.281068
O	 -1.180634	 -0.819263	 0.215062
H	 -2.513689	 0.754266	 0.216622
C	 0.051604	 -1.018856	 -0.387932
C	 1.043764	 0.054862	 -0.001873
H	 -0.017620	 -1.041351	 -1.469781
H	 0.437898	 -1.966374	 -0.042284
F	 2.212596	 -0.199467	 -0.571921
F	 0.652529	 1.252447	 -0.405055
F	 1.230877	 0.110694	 1.300533

	symmetry c1
}
set optking {
	frozen_dihedral = ("
		6 3 5 7
	")
}

ee = optimize('scf')
oeprop('DIPOLE', 'QUADRUPOLE', 'MULLIKEN_CHARGES')
f=open( 'psi4out.xyz', 'w' )
f.write( "13  " )
f.write( str(ee) + "\n" )
f.write( MOL.save_string_xyz() )
f.close()
--------------------------------------------------------------------------

    Molecular point group: c1
  Charge       = 0
  Multiplicity = 1
  Basis Set: 6-31G*
  Basis Set:
  @DF-RHF Final Energy:  -527.53037730852202
    Total Energy =                       -527.5303773085220200
    Molecular point group: c1
  Basis Set: 6-31G*
  Basis Set:
  Basis Set: 6-31G*
  Basis Set:
  @DF-RHF Final Energy:  -527.53142315283549
    Total Energy =                       -527.5314231528353730
  Basis Set: 6-31G*
  Basis Set:
  Basis Set: 6-31G*
  Basis Set:
  @DF-RHF Final Energy:  -527.53257012865299
    Total Energy =                       -527.5325701286540152
  Basis Set: 6-31G*
  Basis Set:
  Basis Set: 6-31G*
  Basis Set:
  @DF-RHF Final Energy:  -527.53274913458608
    Total Energy =                       -527.5327491345860835
  Basis Set: 6-31G*
  Basis Set:
  @DF-RHF Final Energy:  -527.53279210209325
    Total Energy =                       -527.5327921020930262
  Basis Set: 6-31G*
  Basis Set:
  @DF-RHF Final Energy:  -527.53281702101594
    Total Energy =                       -527.5328170210161716
  Basis Set: 6-31G*
  Basis Set:
  Basis Set: 6-31G*
  Basis Set:
  @DF-RHF Final Energy:  -527.53283135492302
    Total Energy =                       -527.5328313549232462
  Basis Set: 6-31G*
  Basis Set:
  Basis Set: 6-31G*
  Basis Set:
  @DF-RHF Final Energy:  -527.53283422331242
    Total Energy =                       -527.5328342233126477
  Basis Set: 6-31G*
  Basis Set:
  Charge       = 0
  Multiplicity = 1
  Basis Set: 6-31G*
  Basis Set:

    Orbital Energies (a.u.)
    -----------------------

    Doubly Occupied:

       1A    -26.341412     2A    -26.339433     3A    -26.337287
       4A    -20.602768     5A    -11.499492     6A    -11.314863
       7A    -11.301735     8A    -11.226964     9A     -1.738092
      10A     -1.636412    11A     -1.634450    12A     -1.431209
      13A     -1.079787    14A     -1.021693    15A     -0.928115
      16A     -0.835673    17A     -0.827858    18A     -0.824436
      19A     -0.765652    20A     -0.720599    21A     -0.710502
      22A     -0.699639    23A     -0.672363    24A     -0.659566
      25A     -0.654695    26A     -0.644516    27A     -0.639663
      28A     -0.587887    29A     -0.556517    30A     -0.534236
      31A     -0.485811    32A     -0.366982

  @DF-RHF Final Energy:  -527.53283464595631

   => Energetics <=

    Nuclear Repulsion Energy =            414.2070091432606205
    One-Electron Energy =               -1552.2390726818043731
    Two-Electron Energy =                 610.4992288925875528
    DFT Exchange-Correlation Energy =       0.0000000000000000
    Empirical Dispersion Energy =           0.0000000000000000
    PCM Polarization Energy =               0.0000000000000000
    EFP Energy =                            0.0000000000000000
    Total Energy =                       -527.5328346459561999
    Molecular point group: c1
  Basis Set: 6-31G*
  Basis Set:

  -Total Gradient:
     Atom            X                  Y                   Z
    ------   -----------------  -----------------  -----------------
       1        0.000006601197     0.000000704305     0.000002736230
       2       -0.000017489306     0.000002400705    -0.000001268010
       3       -0.000621846465    -0.000391009167     0.000565564312
       4        0.000006822304    -0.000001601104     0.000002054996
       5       -0.000260157599    -0.000757750662    -0.000502797782
       6        0.000622699393     0.000533066002    -0.000317465074
       7        0.000309724906     0.000617459073     0.000240221737
       8        0.000049531717     0.000013273769     0.000042775212
       9       -0.000000045511    -0.000000417528     0.000002822937
      10       -0.000014912696    -0.000000940503     0.000002687092
      11       -0.000024576671    -0.000027931046     0.000004043072
      12       -0.000050803614     0.000044051300    -0.000034588553
      13       -0.000005547647    -0.000031305143    -0.000006786171

  **** Optimization is complete! (in 9 steps) ****
    Final optimized geometry and variables:
    Molecular point group: c1

    Geometry (in Angstrom), charge = 0, multiplicity = 1:

    H           -3.413085426969     0.455904415888    -1.979722299206
    C           -2.655323745590    -0.166467422999    -1.544174676580
    C           -2.215104583510     0.097539747029    -0.333676959694
    H           -2.290145525241    -0.988789419147    -2.132182238139
    O           -1.274113604585    -0.613872152517     0.347984320972
    H           -2.601532209939     0.907932250367     0.255283390260
    C           -0.046513344518    -0.890146410464    -0.246774451312
    C            0.992004892584     0.091130614208     0.244354524847
    H           -0.084134688413    -0.830226933974    -1.324764742512
    H            0.263276689378    -1.883112559655     0.045806959779
    F            2.158293260172    -0.171650568439    -0.327423810119
    F            0.665808138771     1.336364793503    -0.055895533696
    F            1.158748275768     0.024372222125     1.550419756844

  Mulliken Charges: (a.u.)
   Center  Symbol    Alpha    Beta     Spin     Total
       1     H     0.40321  0.40321  0.00000  0.19357
       2     C     3.23008  3.23008  0.00000 -0.46016
       3     C     2.90242  2.90242  0.00000  0.19516
       4     H     0.40766  0.40766  0.00000  0.18469
       5     O     4.31066  4.31066  0.00000 -0.62131
       6     H     0.39872  0.39872  0.00000  0.20256
       7     C     3.05500  3.05500  0.00000 -0.10999
       8     C     2.45489  2.45489  0.00000  1.09022
       9     H     0.40239  0.40239  0.00000  0.19521
      10     H     0.39539  0.39539  0.00000  0.20921
      11     F     4.68357  4.68357  0.00000 -0.36714
      12     F     4.67935  4.67935  0.00000 -0.35871
      13     F     4.67665  4.67665  0.00000 -0.35331

   Total alpha = 32.00000, Total beta = 32.00000, Total charge =  0.00000
