  ==> Input File <==

--------------------------------------------------------------------------
set {
	reference rhf
	basis 6-31G*
}

set_num_threads( 4 )
memory 2 gb

molecule MOL {
0 1

O	 1.077970	 -2.066162	 -1.680953
C	 0.281390	 -1.663098	 -0.897131
C	 -1.141209	 -2.138579	 -0.784455
O	 0.550821	 -0.724572	 0.000672
H	 -1.317500	 -2.533632	 0.209295
H	 -1.327379	 -2.901979	 -1.525031
H	 -1.818160	 -1.305078	 -0.931404
C	 1.863949	 -0.193559	 -0.000319
H	 2.028859	 0.409284	 -0.881648
H	 2.526261	 -1.045082	 -0.000003
H	 2.029520	 0.410555	 0.880008

	symmetry c1
}
set optking {
	frozen_dihedral = ("
		2 4 8 9
	")
}

ee = optimize('scf')
oeprop('DIPOLE', 'QUADRUPOLE', 'MULLIKEN_CHARGES')
f=open( 'psi4out.xyz', 'w' )
f.write( "11  " )
f.write( str(ee) + "\n" )
f.write( MOL.save_string_xyz() )
f.close()
--------------------------------------------------------------------------

    Molecular point group: c1
  Charge       = 0
  Multiplicity = 1
  Basis Set: 6-31G*
  Basis Set:
  @DF-RHF Final Energy:  -266.83456289393837
    Total Energy =                       -266.8345628939383687
    Molecular point group: c1
  Basis Set: 6-31G*
  Basis Set:
  Basis Set: 6-31G*
  Basis Set:
  @DF-RHF Final Energy:  -266.83591086705133
    Total Energy =                       -266.8359108670512114
  Basis Set: 6-31G*
  Basis Set:
  Basis Set: 6-31G*
  Basis Set:
  @DF-RHF Final Energy:  -266.83620137534001
    Total Energy =                       -266.8362013753400674
  Basis Set: 6-31G*
  Basis Set:
  Basis Set: 6-31G*
  Basis Set:
  @DF-RHF Final Energy:  -266.83556594938676
    Total Energy =                       -266.8355659493870462
  Basis Set: 6-31G*
  Basis Set:
  Basis Set: 6-31G*
  Basis Set:
  @DF-RHF Final Energy:  -266.83629805935254
    Total Energy =                       -266.8362980593528846
  Basis Set: 6-31G*
  Basis Set:
  Basis Set: 6-31G*
  Basis Set:
  @DF-RHF Final Energy:  -266.83629943191988
    Total Energy =                       -266.8362994319198833
  Basis Set: 6-31G*
  Basis Set:
  Charge       = 0
  Multiplicity = 1
  Basis Set: 6-31G*
  Basis Set:

    Orbital Energies (a.u.)
    -----------------------

    Doubly Occupied:

       1A    -20.605866     2A    -20.546492     3A    -11.376550
       4A    -11.282088     5A    -11.234717     6A     -1.471074
       7A     -1.364578     8A     -1.035976     9A     -0.953042
      10A     -0.778133    11A     -0.695826    12A     -0.681115
      13A     -0.677205    14A     -0.595505    15A     -0.591813
      16A     -0.560680    17A     -0.525262    18A     -0.523358
      19A     -0.457911    20A     -0.442337

  @DF-RHF Final Energy:  -266.83629976688093

   => Energetics <=

    Nuclear Repulsion Energy =            183.2937166414347416
    One-Electron Energy =                -727.4609743956110606
    Two-Electron Energy =                 277.3309579872955624
    DFT Exchange-Correlation Energy =       0.0000000000000000
    Empirical Dispersion Energy =           0.0000000000000000
    PCM Polarization Energy =               0.0000000000000000
    EFP Energy =                            0.0000000000000000
    Total Energy =                       -266.8362997668806997
    Molecular point group: c1
  Basis Set: 6-31G*
  Basis Set:

  -Total Gradient:
     Atom            X                  Y                   Z
    ------   -----------------  -----------------  -----------------
       1        0.000000947992     0.000002433449     0.000000466512
       2        0.000203327359    -0.000542018736     0.000488729068
       3       -0.000003996872    -0.000004465453     0.000001548524
       4       -0.000364227931     0.000953622599    -0.000583305898
       5        0.000000763822     0.000001895478    -0.000001714209
       6        0.000000432239     0.000000579864    -0.000000300071
       7       -0.000001578307     0.000001161377    -0.000001483297
       8        0.000444910623    -0.001118292067    -0.000337428821
       9       -0.000281761068     0.000710770458     0.000437826561
      10        0.000001930284    -0.000002725091     0.000000671962
      11       -0.000000748140    -0.000002961876    -0.000005010328

  **** Optimization is complete! (in 7 steps) ****
    Final optimized geometry and variables:
    Molecular point group: c1

    Geometry (in Angstrom), charge = 0, multiplicity = 1:

    O            0.520622109107    -0.717381159454    -1.027603870639
    C           -0.265254720711    -0.316030022983    -0.232201395328
    C           -1.688720942025    -0.785985149415    -0.107234545496
    O            0.015938324558     0.618599161610     0.666277030484
    H           -1.856517913858    -1.185373212979     0.886244260138
    H           -1.886038236031    -1.544487576384    -0.849854291681
    H           -2.363393742329     0.051375823720    -0.242883394201
    C            1.334181055539     1.137016978489     0.667226318474
    H            1.502155950062     1.739479371998    -0.214634593338
    H            2.059779591624     0.338506066176     0.701670910004
    H            1.408199102921     1.751481008832     1.551032399925

  Mulliken Charges: (a.u.)
   Center  Symbol    Alpha    Beta     Spin     Total
       1     O     4.28199  4.28199  0.00000 -0.56398
       2     C     2.62253  2.62253  0.00000  0.75494
       3     C     3.28176  3.28176  0.00000 -0.56351
       4     O     4.29946  4.29946  0.00000 -0.59891
       5     H     0.39998  0.39998  0.00000  0.20004
       6     H     0.39657  0.39657  0.00000  0.20685
       7     H     0.39984  0.39984  0.00000  0.20032
       8     C     3.09272  3.09272  0.00000 -0.18543
       9     H     0.41051  0.41051  0.00000  0.17899
      10     H     0.40608  0.40608  0.00000  0.18783
      11     H     0.40857  0.40857  0.00000  0.18286

   Total alpha = 20.00000, Total beta = 20.00000, Total charge =  0.00000
