  ==> Input File <==

--------------------------------------------------------------------------
set {
	reference rhf
	basis 6-31G*
}

set_num_threads( 4 )
memory 2 gb

molecule MOL {
0 1

O	 -1.276010	 1.052711	 -0.768302
C	 -1.204840	 0.067374	 -0.106123
C	 -2.388195	 -0.672128	 0.458071
O	 -0.067104	 -0.527208	 0.221609
H	 -2.388023	 -1.694060	 0.097175
H	 -3.300579	 -0.174919	 0.164318
H	 -2.315377	 -0.706351	 1.539059
C	 1.172197	 0.142491	 -0.049618
C	 2.217459	 -0.951225	 -0.179232
C	 1.477887	 1.129265	 1.066392
H	 1.065828	 0.670903	 -0.985552
H	 1.953998	 -1.640476	 -0.973441
H	 3.185434	 -0.517860	 -0.408470
H	 2.302738	 -1.511678	 0.745579
H	 2.426114	 1.622863	 0.878664
H	 0.708680	 1.888459	 1.128998
H	 1.543101	 0.614946	 2.019928

	symmetry c1
}
set optking {
	frozen_dihedral = ("
		8 4 2 1
	")
}

ee = optimize('scf')
oeprop('DIPOLE', 'QUADRUPOLE', 'MULLIKEN_CHARGES')
f=open( 'psi4out.xyz', 'w' )
f.write( "17  " )
f.write( str(ee) + "\n" )
f.write( MOL.save_string_xyz() )
f.close()
--------------------------------------------------------------------------

    Molecular point group: c1
  Charge       = 0
  Multiplicity = 1
  Basis Set: 6-31G*
  Basis Set:
  @DF-RHF Final Energy:  -344.91407069300982
    Total Energy =                       -344.9140706930099896
    Molecular point group: c1
  Basis Set: 6-31G*
  Basis Set:
  Basis Set: 6-31G*
  Basis Set:
  @DF-RHF Final Energy:  -344.91326338370487
    Total Energy =                       -344.9132633837046455
  Basis Set: 6-31G*
  Basis Set:
  Basis Set: 6-31G*
  Basis Set:
  @DF-RHF Final Energy:  -344.91413424093730
    Total Energy =                       -344.9141342409376421
  Basis Set: 6-31G*
  Basis Set:
  Basis Set: 6-31G*
  Basis Set:
  @DF-RHF Final Energy:  -344.91414851544846
    Total Energy =                       -344.9141485154486872
  Basis Set: 6-31G*
  Basis Set:
  Basis Set: 6-31G*
  Basis Set:
  @DF-RHF Final Energy:  -344.91415345577246
    Total Energy =                       -344.9141534557721229
  Basis Set: 6-31G*
  Basis Set:
  Charge       = 0
  Multiplicity = 1
  Basis Set: 6-31G*
  Basis Set:

    Orbital Energies (a.u.)
    -----------------------

    Doubly Occupied:

       1A    -20.598305     2A    -20.543274     3A    -11.374723
       4A    -11.290022     5A    -11.232406     6A    -11.219414
       7A    -11.217118     8A     -1.465042     9A     -1.361637
      10A     -1.078426    11A     -1.005252    12A     -0.948761
      13A     -0.848434    14A     -0.764304    15A     -0.692267
      16A     -0.669156    17A     -0.660141    18A     -0.614690
      19A     -0.585985    20A     -0.578407    21A     -0.561941
      22A     -0.550921    23A     -0.535717    24A     -0.521829
      25A     -0.502660    26A     -0.482558    27A     -0.447354
      28A     -0.435114

  @DF-RHF Final Energy:  -344.91415438505385

   => Energetics <=

    Nuclear Repulsion Energy =            323.2188767057726864
    One-Electron Energy =               -1110.6943419762374106
    Two-Electron Energy =                 442.5613108854110465
    DFT Exchange-Correlation Energy =       0.0000000000000000
    Empirical Dispersion Energy =           0.0000000000000000
    PCM Polarization Energy =               0.0000000000000000
    EFP Energy =                            0.0000000000000000
    Total Energy =                       -344.9141543850536777
    Molecular point group: c1
  Basis Set: 6-31G*
  Basis Set:

  -Total Gradient:
     Atom            X                  Y                   Z
    ------   -----------------  -----------------  -----------------
       1       -0.000180823797    -0.001659973464    -0.002596751950
       2        0.000274483013     0.002936910880     0.005023445546
       3       -0.000010565430     0.000055015753     0.000102036806
       4        0.000019461485    -0.002230822559    -0.004737730850
       5       -0.000001554681     0.000000408586    -0.000027805842
       6       -0.000010986982    -0.000010786933    -0.000000954198
       7       -0.000000902558    -0.000027798936    -0.000019558351
       8       -0.000058247853     0.000951172736     0.002272424641
       9        0.000000162503    -0.000008788479    -0.000000163238
      10       -0.000012633798     0.000010871612    -0.000001249663
      11       -0.000011072646     0.000004064188    -0.000017044874
      12        0.000002413867    -0.000008193152    -0.000001024988
      13       -0.000004463002     0.000001075257    -0.000000185079
      14        0.000003761760    -0.000002129050    -0.000000565933
      15       -0.000013393439    -0.000007723169    -0.000002385141
      16        0.000002347079    -0.000000037928     0.000000565504
      17        0.000002014481    -0.000003265338     0.000006947610

  **** Optimization is complete! (in 6 steps) ****
    Final optimized geometry and variables:
    Molecular point group: c1

    Geometry (in Angstrom), charge = 0, multiplicity = 1:

    O           -1.266731946018     1.060421164909    -0.797507187504
    C           -1.194864361940     0.046653972713    -0.180507705716
    C           -2.377333783770    -0.717695139145     0.351591885616
    O           -0.056788794234    -0.573890253167     0.098877946300
    H           -2.366448894949    -1.728488763529    -0.039138412466
    H           -3.291166380401    -0.218500920894     0.065790450813
    H           -2.312583210991    -0.783106569789     1.431765816661
    C            1.184033722498     0.093961371353    -0.167021726457
    C            2.230947611321    -1.000377687191    -0.276640258342
    C            1.478502149555     1.089973309130     0.944042332348
    H            1.087639245069     0.613460563904    -1.108921949726
    H            1.974040335425    -1.696791827903    -1.066567008641
    H            3.200832793440    -0.569134347165    -0.501518973858
    H            2.307902507857    -1.552324889202     0.654036972081
    H            2.428394024401     1.581933416314     0.761212224152
    H            0.710175290026     1.851662810029     0.993406564873
    H            1.534130735419     0.584082427669     1.902674261258

  Mulliken Charges: (a.u.)
   Center  Symbol    Alpha    Beta     Spin     Total
       1     O     4.28471  4.28471  0.00000 -0.56942
       2     C     2.61689  2.61689  0.00000  0.76621
       3     C     3.28190  3.28190  0.00000 -0.56379
       4     O     4.31461  4.31461  0.00000 -0.62923
       5     H     0.40017  0.40017  0.00000  0.19965
       6     H     0.39739  0.39739  0.00000  0.20522
       7     H     0.40151  0.40151  0.00000  0.19697
       8     C     2.92753  2.92753  0.00000  0.14494
       9     C     3.24208  3.24208  0.00000 -0.48416
      10     C     3.25203  3.25203  0.00000 -0.50406
      11     H     0.40035  0.40035  0.00000  0.19930
      12     H     0.41131  0.41131  0.00000  0.17739
      13     H     0.41765  0.41765  0.00000  0.16469
      14     H     0.41433  0.41433  0.00000  0.17134
      15     H     0.41729  0.41729  0.00000  0.16542
      16     H     0.40355  0.40355  0.00000  0.19289
      17     H     0.41669  0.41669  0.00000  0.16662

   Total alpha = 28.00000, Total beta = 28.00000, Total charge = -0.00000
