  ==> Input File <==

--------------------------------------------------------------------------
set {
	reference rhf
	basis 6-31G*
}

set_num_threads( 4 )
memory 2 gb

molecule MOL {
0 1

H	 -0.371439	 1.396987	 -2.215780
C	 -1.118506	 1.138657	 -1.471253
O	 -0.774054	 0.001095	 -0.743181
H	 -2.042500	 0.907587	 -1.984255
H	 -1.289076	 2.002356	 -0.835546
C	 0.406953	 0.000033	 0.038965
C	 1.527284	 -0.003667	 -0.998752
C	 0.498933	 1.262172	 0.902524
C	 0.494271	 -1.259566	 0.906664
H	 1.452513	 0.873252	 -1.631882
H	 1.448863	 -0.881882	 -1.629595
H	 2.502020	 -0.005104	 -0.521731
H	 0.364280	 2.147110	 0.289513
H	 1.472180	 1.321775	 1.378800
H	 -0.247853	 1.275162	 1.689097
H	 0.356778	 -2.146106	 0.296587
H	 1.467182	 -1.320941	 1.383330
H	 -0.252763	 -1.267328	 1.693119

	symmetry c1
}
set optking {
	frozen_dihedral = ("
		2 3 6 7
	")
}

ee = optimize('scf')
oeprop('DIPOLE', 'QUADRUPOLE', 'MULLIKEN_CHARGES')
f=open( 'psi4out.xyz', 'w' )
f.write( "18  " )
f.write( str(ee) + "\n" )
f.write( MOL.save_string_xyz() )
f.close()
--------------------------------------------------------------------------

    Molecular point group: c1
  Charge       = 0
  Multiplicity = 1
  Basis Set: 6-31G*
  Basis Set:
  @DF-RHF Final Energy:  -271.16738748819762
    Total Energy =                       -271.1673874881977326
    Molecular point group: c1
  Basis Set: 6-31G*
  Basis Set:
  Basis Set: 6-31G*
  Basis Set:
  @DF-RHF Final Energy:  -271.17219746796968
    Total Energy =                       -271.1721974679696814
  Basis Set: 6-31G*
  Basis Set:
  Basis Set: 6-31G*
  Basis Set:
  @DF-RHF Final Energy:  -271.17524945199239
    Total Energy =                       -271.1752494519921584
  Basis Set: 6-31G*
  Basis Set:
  Basis Set: 6-31G*
  Basis Set:
  @DF-RHF Final Energy:  -271.17518836586822
    Total Energy =                       -271.1751883658682800
  Basis Set: 6-31G*
  Basis Set:
  Basis Set: 6-31G*
  Basis Set:
  @DF-RHF Final Energy:  -271.17542007505835
    Total Energy =                       -271.1754200750582413
  Basis Set: 6-31G*
  Basis Set:
  Basis Set: 6-31G*
  Basis Set:
  @DF-RHF Final Energy:  -271.17545385804618
    Total Energy =                       -271.1754538580462963
  Basis Set: 6-31G*
  Basis Set:
  Basis Set: 6-31G*
  Basis Set:
  @DF-RHF Final Energy:  -271.17543616889850
    Total Energy =                       -271.1754361688983863
  Basis Set: 6-31G*
  Basis Set:
  Charge       = 0
  Multiplicity = 1
  Basis Set: 6-31G*
  Basis Set:

    Orbital Energies (a.u.)
    -----------------------

    Doubly Occupied:

       1A    -20.546835     2A    -11.281277     3A    -11.260668
       4A    -11.209815     5A    -11.207614     6A    -11.203223
       7A     -1.370107     8A     -1.073026     9A     -0.946262
      10A     -0.939354    11A     -0.912401    12A     -0.752334
      13A     -0.655312    14A     -0.644473    15A     -0.637477
      16A     -0.592492    17A     -0.574501    18A     -0.552649
      19A     -0.534242    20A     -0.523962    21A     -0.514657
      22A     -0.488019    23A     -0.486195    24A     -0.439054
      25A     -0.404174

  @DF-RHF Final Energy:  -271.17545767735294

   => Energetics <=

    Nuclear Repulsion Energy =            272.3144499858109384
    One-Electron Energy =                -907.4795658052496492
    Two-Electron Energy =                 363.9896581420860002
    DFT Exchange-Correlation Energy =       0.0000000000000000
    Empirical Dispersion Energy =           0.0000000000000000
    PCM Polarization Energy =               0.0000000000000000
    EFP Energy =                            0.0000000000000000
    Total Energy =                       -271.1754576773527106
    Molecular point group: c1
  Basis Set: 6-31G*
  Basis Set:

  -Total Gradient:
     Atom            X                  Y                   Z
    ------   -----------------  -----------------  -----------------
       1        0.000004319005    -0.000003367339    -0.000003893641
       2       -0.000151479605     0.000105342852     0.000289842014
       3        0.000233306170    -0.000255038173    -0.000410069225
       4       -0.000007450263    -0.000001366200     0.000000773664
       5        0.000001004106    -0.000001998606     0.000000305942
       6       -0.000093025199     0.000464024467     0.000075331855
       7        0.000018446944    -0.000283345348     0.000008575033
       8       -0.000008102383     0.000001699061    -0.000008211922
       9        0.000010419541    -0.000019160920     0.000028625207
      10        0.000002483813     0.000000142638    -0.000001071170
      11       -0.000002967198     0.000001703948     0.000001364750
      12        0.000001069210    -0.000000673092     0.000003490238
      13        0.000000610011    -0.000001000952     0.000006553896
      14       -0.000001453574    -0.000008391385    -0.000001218875
      15       -0.000000509926     0.000002438450     0.000004315999
      16        0.000000044280     0.000004850431    -0.000001335037
      17       -0.000007881371     0.000000624256    -0.000000509093
      18        0.000001166441    -0.000006484086     0.000007130367

  **** Optimization is complete! (in 8 steps) ****
    Final optimized geometry and variables:
    Molecular point group: c1

    Geometry (in Angstrom), charge = 0, multiplicity = 1:

    H           -0.661539962461     1.160557172959    -1.946240490427
    C           -1.382889701595     0.871145533415    -1.187613481599
    O           -0.957986311020    -0.219901742521    -0.431450302963
    H           -2.293736399879     0.565818453260    -1.685151843661
    H           -1.604589315550     1.737243239656    -0.571331679946
    C            0.288917712401    -0.163301987971     0.238724747853
    C            1.442686977220    -0.205692148278    -0.768420996461
    C            0.392638331855     1.074674731697     1.134575421303
    C            0.299576943603    -1.428089087426     1.094591038068
    H            1.483422951272     0.689624995151    -1.379486065683
    H            1.332338676618    -1.061174416372    -1.425943155725
    H            2.393893158653    -0.290256989317    -0.252661048474
    H            0.452990780366     1.992336630391     0.559170782502
    H            1.285230035252     1.017188134601     1.748742148714
    H           -0.468292974738     1.139416650094     1.791878902635
    H            0.186245537977    -2.304032017399     0.465968942640
    H            1.228282702573    -1.517248167247     1.648925349308
    H           -0.524485559633    -1.410459924509     1.798967177152

  Mulliken Charges: (a.u.)
   Center  Symbol    Alpha    Beta     Spin     Total
       1     H     0.43069  0.43069  0.00000  0.13862
       2     C     3.07950  3.07950  0.00000 -0.15901
       3     O     4.31863  4.31863  0.00000 -0.63726
       4     H     0.41281  0.41281  0.00000  0.17437
       5     H     0.42832  0.42832  0.00000  0.14336
       6     C     2.84254  2.84254  0.00000  0.31492
       7     C     3.24406  3.24406  0.00000 -0.48812
       8     C     3.25037  3.25037  0.00000 -0.50073
       9     C     3.23299  3.23299  0.00000 -0.46598
      10     H     0.42075  0.42075  0.00000  0.15849
      11     H     0.41329  0.41329  0.00000  0.17343
      12     H     0.42101  0.42101  0.00000  0.15798
      13     H     0.41962  0.41962  0.00000  0.16076
      14     H     0.41842  0.41842  0.00000  0.16316
      15     H     0.41346  0.41346  0.00000  0.17308
      16     H     0.41362  0.41362  0.00000  0.17277
      17     H     0.42515  0.42515  0.00000  0.14970
      18     H     0.41478  0.41478  0.00000  0.17044

   Total alpha = 25.00000, Total beta = 25.00000, Total charge =  0.00000
