  ==> Input File <==

--------------------------------------------------------------------------
set {
	reference rhf
	basis 6-31G*
}

set_num_threads( 4 )
memory 2 gb

molecule MOL {
0 1

H	 1.827116	 0.861670	 -2.699642
C	 1.697189	 0.630813	 -1.646047
C	 0.240492	 0.284811	 -1.353754
H	 1.999134	 1.494240	 -1.063736
H	 2.369930	 -0.185157	 -1.404910
N	 -0.000257	 -0.000071	 0.054619
H	 -0.369472	 1.132433	 -1.639863
H	 -0.081818	 -0.548070	 -1.985507
C	 -1.363055	 0.315058	 0.462241
C	 0.394048	 -1.352809	 0.425134
C	 -2.412078	 -0.285320	 -0.468531
H	 -1.482241	 1.391144	 0.451970
H	 -1.549931	 -0.001174	 1.492681
C	 0.808913	 -1.467658	 1.888670
H	 1.239459	 -1.641483	 -0.186505
H	 -0.400873	 -2.070660	 0.202471
H	 -2.262839	 0.075384	 -1.480151
H	 -2.369300	 -1.368867	 -0.491760
H	 -3.410332	 -0.003975	 -0.144961
H	 1.636876	 -0.798647	 2.094910
H	 0.000394	 -1.215375	 2.566314
H	 1.120664	 -2.483500	 2.114950

	symmetry c1
}
set optking {
	frozen_dihedral = ("
		3 6 9 11
	")
}

ee = optimize('scf')
oeprop('DIPOLE', 'QUADRUPOLE', 'MULLIKEN_CHARGES')
f=open( 'psi4out.xyz', 'w' )
f.write( "22  " )
f.write( str(ee) + "\n" )
f.write( MOL.save_string_xyz() )
f.close()
--------------------------------------------------------------------------

    Molecular point group: c1
  Charge       = 0
  Multiplicity = 1
  Basis Set: 6-31G*
  Basis Set:
  @DF-RHF Final Energy:  -290.36756947638662
    Total Energy =                       -290.3675694763862225
    Molecular point group: c1
  Basis Set: 6-31G*
  Basis Set:
  Basis Set: 6-31G*
  Basis Set:
  @DF-RHF Final Energy:  -290.36883291127617
    Total Energy =                       -290.3688329112765132
  Basis Set: 6-31G*
  Basis Set:
  Basis Set: 6-31G*
  Basis Set:
  @DF-RHF Final Energy:  -290.36999813659099
    Total Energy =                       -290.3699981365913345
  Basis Set: 6-31G*
  Basis Set:
  Basis Set: 6-31G*
  Basis Set:
  @DF-RHF Final Energy:  -290.37005430786218
    Total Energy =                       -290.3700543078623468
  Basis Set: 6-31G*
  Basis Set:
  Basis Set: 6-31G*
  Basis Set:
  @DF-RHF Final Energy:  -290.37007922103732
    Total Energy =                       -290.3700792210370878
  Basis Set: 6-31G*
  Basis Set:
  Basis Set: 6-31G*
  Basis Set:
  @DF-RHF Final Energy:  -290.37008456637398
    Total Energy =                       -290.3700845663741461
  Basis Set: 6-31G*
  Basis Set:
  Basis Set: 6-31G*
  Basis Set:
  @DF-RHF Final Energy:  -290.37008702204031
    Total Energy =                       -290.3700870220398542
  Basis Set: 6-31G*
  Basis Set:
  Charge       = 0
  Multiplicity = 1
  Basis Set: 6-31G*
  Basis Set:

    Orbital Energies (a.u.)
    -----------------------

    Doubly Occupied:

       1A    -15.535597     2A    -11.240472     3A    -11.240296
       4A    -11.239123     5A    -11.207482     6A    -11.204604
       7A    -11.203611     8A     -1.221327     9A     -1.022963
      10A     -1.020879    11A     -0.954798    12A     -0.857610
      13A     -0.846429    14A     -0.759021    15A     -0.658502
      16A     -0.642186    17A     -0.617063    18A     -0.595619
      19A     -0.573635    20A     -0.548774    21A     -0.543354
      22A     -0.517466    23A     -0.511150    24A     -0.507938
      25A     -0.493245    26A     -0.485684    27A     -0.463302
      28A     -0.461831    29A     -0.335498

  @DF-RHF Final Energy:  -290.37008821461961

   => Energetics <=

    Nuclear Repulsion Energy =            338.3833173413407849
    One-Electron Energy =               -1062.4878980980856795
    Two-Electron Energy =                 433.7344925421256221
    DFT Exchange-Correlation Energy =       0.0000000000000000
    Empirical Dispersion Energy =           0.0000000000000000
    PCM Polarization Energy =               0.0000000000000000
    EFP Energy =                            0.0000000000000000
    Total Energy =                       -290.3700882146192725
    Molecular point group: c1
  Basis Set: 6-31G*
  Basis Set:

  -Total Gradient:
     Atom            X                  Y                   Z
    ------   -----------------  -----------------  -----------------
       1        0.000019399529     0.000000391838    -0.000015719377
       2        0.000016036182     0.000027340092    -0.000009389494
       3       -0.000866256309    -0.002882447746    -0.000849226393
       4       -0.000006516963    -0.000001073300    -0.000007102394
       5        0.000001392431     0.000002321393    -0.000015560501
       6        0.001319345488     0.005259707563     0.000425754651
       7        0.000015047858    -0.000007012265    -0.000007624947
       8        0.000002994037     0.000001754451    -0.000000011070
       9       -0.000616812771    -0.004949233943     0.002142587565
      10       -0.000036274620    -0.000019188540    -0.000013429786
      11        0.000102143847     0.002553342634    -0.001640475998
      12        0.000014711863    -0.000003298273    -0.000007453578
      13        0.000008295856    -0.000001019720    -0.000026164136
      14        0.000007129649     0.000008573697    -0.000002571332
      15        0.000000802723     0.000014539908     0.000020431736
      16       -0.000006705963    -0.000006275931     0.000001834975
      17        0.000003641834     0.000001760008    -0.000001394674
      18       -0.000006632863    -0.000006930800     0.000003299236
      19        0.000022801166     0.000008308127     0.000010657304
      20        0.000001019578     0.000001363425     0.000005040567
      21        0.000008294830    -0.000003024504    -0.000006028834
      22       -0.000003857384     0.000000101887    -0.000007453521

  **** Optimization is complete! (in 8 steps) ****
    Final optimized geometry and variables:
    Molecular point group: c1

    Geometry (in Angstrom), charge = 0, multiplicity = 1:

    H            2.002897739438     1.161329025485    -2.532901677696
    C            1.834948499377     0.889656627419    -1.494431812316
    C            0.363382585855     0.554284018379    -1.266559348687
    H            2.128560350180     1.724057988794    -0.867367058031
    H            2.488853707990     0.054755178311    -1.266868825810
    N            0.070264082388     0.247404674431     0.125154196686
    H           -0.221137150033     1.425066932273    -1.543721576991
    H            0.058228179838    -0.249935098476    -1.940133392468
    C           -1.298637148515     0.555182089923     0.520653050302
    C            0.498351513095    -1.085925460238     0.531730863270
    C           -2.420996625257     0.021448348398    -0.378812395699
    H           -1.393022168662     1.636721477144     0.576886408332
    H           -1.445987570056     0.188900837808     1.529064248993
    C            0.961421553687    -1.134872296922     1.984935760636
    H            1.326958795210    -1.387525437154    -0.096230476643
    H           -0.285512521378    -1.828664224790     0.368827610642
    H           -2.387806976685     0.457435902352    -1.370790902456
    H           -2.378701594972    -1.058010567555    -0.487759771915
    H           -3.385378817944     0.269876724036     0.054941695080
    H            1.783916510364    -0.445264665128     2.138956884343
    H            0.168759855186    -0.866263960536     2.675012352560
    H            1.295720554779    -2.135942623330     2.243406267443

  Mulliken Charges: (a.u.)
   Center  Symbol    Alpha    Beta     Spin     Total
       1     H     0.42358  0.42358  0.00000  0.15284
       2     C     3.23565  3.23565  0.00000 -0.47130
       3     C     3.05862  3.05862  0.00000 -0.11725
       4     H     0.41506  0.41506  0.00000  0.16987
       5     H     0.42159  0.42159  0.00000  0.15682
       6     N     3.78478  3.78478  0.00000 -0.56957
       7     H     0.41936  0.41936  0.00000  0.16127
       8     H     0.43119  0.43119  0.00000  0.13761
       9     C     3.05957  3.05957  0.00000 -0.11914
      10     C     3.06092  3.06092  0.00000 -0.12185
      11     C     3.24949  3.24949  0.00000 -0.49897
      12     H     0.41796  0.41796  0.00000  0.16407
      13     H     0.41824  0.41824  0.00000  0.16353
      14     C     3.23342  3.23342  0.00000 -0.46685
      15     H     0.41890  0.41890  0.00000  0.16219
      16     H     0.43076  0.43076  0.00000  0.13848
      17     H     0.41912  0.41912  0.00000  0.16177
      18     H     0.41971  0.41971  0.00000  0.16059
      19     H     0.42006  0.42006  0.00000  0.15989
      20     H     0.41571  0.41571  0.00000  0.16859
      21     H     0.42165  0.42165  0.00000  0.15671
      22     H     0.42465  0.42465  0.00000  0.15069

   Total alpha = 29.00000, Total beta = 29.00000, Total charge = -0.00000
