  ==> Input File <==

--------------------------------------------------------------------------
set {
	reference rhf
	basis cc-pvtz
}

set_num_threads( 4 )
memory 2 gb

molecule MOL {
0 1

H	 2.485910	 -0.833860	 0.271050
O	 2.063695	 -0.083403	 -0.105237
C	 0.742924	 0.005675	 0.350750
H	 0.731380	 0.039219	 1.440080
C	 -0.064076	 -1.193495	 -0.124425
C	 -0.047832	 1.190568	 -0.194462
H	 0.194729	 -1.376165	 -1.161308
H	 0.163013	 -2.094508	 0.429933
C	 -1.533112	 -0.752002	 0.006102
H	 0.148003	 1.266545	 -1.259275
H	 0.226235	 2.136493	 0.259722
C	 -1.506634	 0.799189	 0.067162
H	 -2.124360	 -1.110499	 -0.826089
H	 -1.983103	 -1.158030	 0.903403
H	 -2.183808	 1.252169	 -0.644677
H	 -1.813926	 1.138698	 1.049457

	symmetry c1
}
set optking {
	frozen_dihedral = ("
		1 2 3 6
	")
}

ee = optimize('scf')
oeprop('DIPOLE', 'QUADRUPOLE', 'MULLIKEN_CHARGES')
f=open( 'psi4out.xyz', 'w' )
f.write( "16  " )
f.write( str(ee) + "\n" )
f.write( MOL.save_string_xyz() )
f.close()
--------------------------------------------------------------------------

    Molecular point group: c1
  Charge       = 0
  Multiplicity = 1
  Basis Set: CC-PVTZ
  Basis Set:
  @DF-RHF Final Energy:  -270.11516749122177
    Total Energy =                       -270.1151674912216549
    Molecular point group: c1
  Basis Set: CC-PVTZ
  Basis Set:
  Basis Set: CC-PVTZ
  Basis Set:
  @DF-RHF Final Energy:  -270.11671804906780
    Total Energy =                       -270.1167180490674582
  Basis Set: CC-PVTZ
  Basis Set:
  Basis Set: CC-PVTZ
  Basis Set:
  @DF-RHF Final Energy:  -270.11686689117732
    Total Energy =                       -270.1168668911773807
  Basis Set: CC-PVTZ
  Basis Set:
  Basis Set: CC-PVTZ
  Basis Set:
  @DF-RHF Final Energy:  -270.11687260681663
    Total Energy =                       -270.1168726068165142
  Basis Set: CC-PVTZ
  Basis Set:
  @DF-RHF Final Energy:  -270.11687500709331
    Total Energy =                       -270.1168750070931992
  @DF-RHF Final Energy:  -270.11687707886358
    Total Energy =                       -270.1168770788635243
  @DF-RHF Final Energy:  -270.11688241780325
    Total Energy =                       -270.1168824178034811
  Basis Set: CC-PVTZ
  Basis Set:
  @DF-RHF Final Energy:  -270.11688751690679
    Total Energy =                       -270.1168875169066723
  Basis Set: CC-PVTZ
  Basis Set:
  Basis Set: CC-PVTZ
  Basis Set:
  @DF-RHF Final Energy:  -270.11688884324190
    Total Energy =                       -270.1168888432420090
  Basis Set: CC-PVTZ
  Basis Set:
  Basis Set: CC-PVTZ
  Basis Set:
  @DF-RHF Final Energy:  -270.11688999690676
    Total Energy =                       -270.1168899969064228
  Basis Set: CC-PVTZ
  Basis Set:
  Charge       = 0
  Multiplicity = 1
  Basis Set: CC-PVTZ
  Basis Set:

    Orbital Energies (a.u.)
    -----------------------

    Doubly Occupied:

       1A    -20.545867     2A    -11.267223     3A    -11.215030
       4A    -11.213371     5A    -11.210513     6A    -11.207016
       7A     -1.365874     8A     -1.114923     9A     -0.966849
      10A     -0.949268    11A     -0.788895    12A     -0.779276
      13A     -0.704489    14A     -0.658931    15A     -0.620905
      16A     -0.589729    17A     -0.567475    18A     -0.526157
      19A     -0.507726    20A     -0.481666    21A     -0.471094
      22A     -0.456142    23A     -0.450181    24A     -0.422360

  @DF-RHF Final Energy:  -270.11689028074539

   => Energetics <=

    Nuclear Repulsion Energy =            255.6027465070660014
    One-Electron Energy =                -873.2773544643388277
    Two-Electron Energy =                 347.5577176765272611
    DFT Exchange-Correlation Energy =       0.0000000000000000
    Empirical Dispersion Energy =           0.0000000000000000
    PCM Polarization Energy =               0.0000000000000000
    EFP Energy =                            0.0000000000000000
    Total Energy =                       -270.1168902807456220
    Molecular point group: c1
  Basis Set: CC-PVTZ
  Basis Set:

  -Total Gradient:
     Atom            X                  Y                   Z
    ------   -----------------  -----------------  -----------------
       1       -0.000053588908    -0.000109014183    -0.000165677574
       2        0.000052629115     0.000111960178     0.000165277558
       3        0.000036278274     0.000075870172     0.000099778934
       4       -0.000000247286    -0.000003552172     0.000000038917
       5       -0.000001230662     0.000005085297     0.000002911778
       6       -0.000035999473    -0.000064087690    -0.000101794735
       7       -0.000000117906    -0.000015167297     0.000002203105
       8        0.000000344312     0.000006509805     0.000012589072
       9        0.000002952843    -0.000001111077     0.000007721271
      10        0.000000430354    -0.000014553245    -0.000001060367
      11       -0.000000488474     0.000007277954    -0.000012860026
      12       -0.000001346533     0.000001985754    -0.000009310944
      13        0.000016021814     0.000010009306    -0.000017807164
      14       -0.000020398793    -0.000009988609    -0.000013786271
      15       -0.000015172933     0.000010404387     0.000019472254
      16        0.000019934259    -0.000011628580     0.000012304193

  **** Optimization is complete! (in 11 steps) ****
    Final optimized geometry and variables:
    Molecular point group: c1

    Geometry (in Angstrom), charge = 0, multiplicity = 1:

    H            2.534389678390    -0.733854855607     0.240246766287
    O            2.066583107853     0.009272084128    -0.094636759010
    C            0.740752002548    -0.013437880598     0.354290122434
    H            0.720934509734     0.007655968090     1.443877323306
    C           -0.083357084480    -1.198060949266    -0.143727876222
    C           -0.026224305556     1.184392647825    -0.181288520245
    H            0.153779026469    -1.353192268549    -1.190921540776
    H            0.134461549607    -2.121303822181     0.381686512792
    C           -1.542430987138    -0.742834146043     0.024569767703
    H            0.196698883120     1.278538009156    -1.238751833640
    H            0.256949984499     2.112950694109     0.296859654903
    C           -1.497877011207     0.809782162854     0.039047150734
    H           -2.169227722883    -1.123987010374    -0.770657314874
    H           -1.957338470567    -1.116551492220     0.952571408918
    H           -2.140837198440     1.244465837284    -0.714608677165
    H           -1.842797715369     1.183734335514     0.995618752696

  Mulliken Charges: (a.u.)
   Center  Symbol    Alpha    Beta     Spin     Total
       1     H     0.39559  0.39559  0.00000  0.20881
       2     O     4.19975  4.19975  0.00000 -0.39950
       3     C     2.92238  2.92238  0.00000  0.15524
       4     H     0.46634  0.46634  0.00000  0.06732
       5     C     3.10784  3.10784  0.00000 -0.21568
       6     C     3.09793  3.09793  0.00000 -0.19587
       7     H     0.45256  0.45256  0.00000  0.09488
       8     H     0.44871  0.44871  0.00000  0.10258
       9     C     3.11346  3.11346  0.00000 -0.22693
      10     H     0.45239  0.45239  0.00000  0.09522
      11     H     0.44417  0.44417  0.00000  0.11165
      12     C     3.11128  3.11128  0.00000 -0.22256
      13     H     0.44445  0.44445  0.00000  0.11111
      14     H     0.44899  0.44899  0.00000  0.10201
      15     H     0.44414  0.44414  0.00000  0.11173
      16     H     0.45000  0.45000  0.00000  0.10000

   Total alpha = 24.00000, Total beta = 24.00000, Total charge = -0.00000
