  ==> Input File <==

--------------------------------------------------------------------------
set {
	reference rhf
	basis 6-31G*
}

set_num_threads( 1 )
memory 2 gb

molecule MOL {
0 1

O	 -2.821601	 1.309235	 -0.001213
C	 -2.668563	 0.129746	 -0.000350
C	 -3.801572	 -0.864014	 -0.000442
O	 -1.481751	 -0.454642	 0.000584
H	 -4.417280	 -0.689587	 -0.874708
H	 -3.443784	 -1.883046	 -0.000565
H	 -4.417179	 -0.689832	 0.873954
C	 -0.334255	 0.388708	 0.000906
C	 0.891947	 -0.504646	 0.000751
H	 -0.365390	 1.025305	 -0.873475
H	 -0.365484	 1.024911	 0.875569
C	 2.191998	 0.301789	 0.000897
H	 0.855148	 -1.151283	 -0.871571
H	 0.855132	 -1.151660	 0.872805
C	 1.975325	 1.781644	 -0.320675
H	 2.674581	 0.213788	 0.972728
H	 2.884330	 -0.124062	 -0.723265
C	 3.273685	 2.587327	 -0.319195
H	 1.283988	 2.208864	 0.402243
H	 1.495251	 1.871522	 -1.292539
H	 3.760724	 2.544616	 0.650847
H	 3.087758	 3.631540	 -0.550033
H	 3.973425	 2.204971	 -1.056880

	symmetry c1
}
set optking {
	frozen_dihedral = ("
		13 9 8 10,
		2 4 8 10,
		19 15 12 16,
		1 2 4 8
	")
}

ee = energy('scf')
oeprop('DIPOLE', 'QUADRUPOLE', 'MULLIKEN_CHARGES')
f=open( 'psi4out.xyz', 'w' )
f.write( "23  " )
f.write( str(ee) + "\n" )
f.write( MOL.save_string_xyz() )
f.close()
--------------------------------------------------------------------------

    Molecular point group: c1

    Geometry (in Angstrom), charge = 0, multiplicity = 1:

       Center              X                  Y                   Z               Mass
    ------------   -----------------  -----------------  -----------------  -----------------
           O         -2.494418552079     0.781772497169     0.070076554869    15.994914619560
           C         -2.341380552079    -0.397716502831     0.070939554869    12.000000000000
           C         -3.474389552079    -1.391476502831     0.070847554869    12.000000000000
           O         -1.154568552079    -0.982104502831     0.071873554869    15.994914619560
           H         -4.090097552079    -1.217049502831    -0.803418445131     1.007825032070
           H         -3.116601552079    -2.410508502831     0.070724554869     1.007825032070
           H         -4.089996552079    -1.217294502831     0.945243554869     1.007825032070
           C         -0.007072552079    -0.138754502831     0.072195554869    12.000000000000
           C          1.219129447921    -1.032108502831     0.072040554869    12.000000000000
           H         -0.038207552079     0.497842497169    -0.802185445131     1.007825032070
           H         -0.038301552079     0.497448497169     0.946858554869     1.007825032070
           C          2.519180447921    -0.225673502831     0.072186554869    12.000000000000
           H          1.182330447921    -1.678745502831    -0.800281445131     1.007825032070
           H          1.182314447921    -1.679122502831     0.944094554869     1.007825032070
           C          2.302507447921     1.254181497169    -0.249385445131    12.000000000000
           H          3.001763447921    -0.313674502831     1.044017554869     1.007825032070
           H          3.211512447921    -0.651524502831    -0.651975445131     1.007825032070
           C          3.600867447921     2.059864497169    -0.247905445131    12.000000000000
           H          1.611170447921     1.681401497169     0.473532554869     1.007825032070
           H          1.822433447921     1.344059497169    -1.221249445131     1.007825032070
           H          4.087906447921     2.017153497169     0.722136554869     1.007825032070
           H          3.414940447921     3.104077497169    -0.478743445131     1.007825032070
           H          4.300607447921     1.677508497169    -0.985590445131     1.007825032070

  Charge       = 0
  Multiplicity = 1
  Basis Set: 6-31G*
  Basis Set:

    Orbital Energies (a.u.)
    -----------------------

    Doubly Occupied:

       1A    -20.601547     2A    -20.539935     3A    -11.373464
       4A    -11.279603     5A    -11.231969     6A    -11.222765
       7A    -11.222075     8A    -11.220944     9A    -11.212125
      10A     -1.466965    11A     -1.359968    12A     -1.098878
      13A     -1.037293    14A     -1.001296    15A     -0.930735
      16A     -0.857489    17A     -0.791285    18A     -0.771615
      19A     -0.692713    20A     -0.684696    21A     -0.665809
      22A     -0.644635    23A     -0.603262    24A     -0.588532
      25A     -0.578983    26A     -0.571196    27A     -0.568977
      28A     -0.525493    29A     -0.523832    30A     -0.517442
      31A     -0.501999    32A     -0.473727    33A     -0.464032
      34A     -0.458178    35A     -0.443223    36A     -0.435578

  @DF-RHF Final Energy:  -422.96656584605182

   => Energetics <=

    Nuclear Repulsion Energy =            462.0021902029970988
    One-Electron Energy =               -1491.6130593958750978
    Two-Electron Energy =                 606.6443033468275416
    DFT Exchange-Correlation Energy =       0.0000000000000000
    Empirical Dispersion Energy =           0.0000000000000000
    PCM Polarization Energy =               0.0000000000000000
    EFP Energy =                            0.0000000000000000
    Total Energy =                       -422.9665658460504574

  Mulliken Charges: (a.u.)
   Center  Symbol    Alpha    Beta     Spin     Total
       1     O     4.28441  4.28441  0.00000 -0.56883
       2     C     2.61576  2.61576  0.00000  0.76848
       3     C     3.28781  3.28781  0.00000 -0.57562
       4     O     4.31570  4.31570  0.00000 -0.63139
       5     H     0.39767  0.39767  0.00000  0.20465
       6     H     0.39985  0.39985  0.00000  0.20031
       7     H     0.39766  0.39766  0.00000  0.20468
       8     C     2.99952  2.99952  0.00000  0.00097
       9     C     3.16615  3.16615  0.00000 -0.33229
      10     H     0.40758  0.40758  0.00000  0.18484
      11     H     0.40961  0.40961  0.00000  0.18078
      12     C     3.15884  3.15884  0.00000 -0.31768
      13     H     0.41245  0.41245  0.00000  0.17510
      14     H     0.41156  0.41156  0.00000  0.17689
      15     C     3.16697  3.16697  0.00000 -0.33394
      16     H     0.41836  0.41836  0.00000  0.16328
      17     H     0.41721  0.41721  0.00000  0.16558
      18     C     3.23669  3.23669  0.00000 -0.47338
      19     H     0.41720  0.41720  0.00000  0.16561
      20     H     0.41916  0.41916  0.00000  0.16168
      21     H     0.42122  0.42122  0.00000  0.15756
      22     H     0.41726  0.41726  0.00000  0.16548
      23     H     0.42137  0.42137  0.00000  0.15726

   Total alpha = 36.00000, Total beta = 36.00000, Total charge = -0.00000
