  ==> Input File <==

--------------------------------------------------------------------------
set {
	reference rhf
	basis 6-31G*
}

set_num_threads( 4 )
memory 2 gb

molecule MOL {
0 1

O	 -2.042549	 -1.228399	 -0.269030
C	 -1.653912	 -0.146171	 0.050137
C	 -0.332303	 0.024011	 0.778412
C	 -2.438579	 1.106236	 -0.272369
C	 -0.348909	 -0.714329	 2.126170
H	 0.489106	 -0.339915	 0.167489
H	 -0.184252	 1.084820	 0.947790
C	 0.954631	 -0.543103	 2.907513
H	 -0.531998	 -1.774886	 1.962523
H	 -1.182092	 -0.341931	 2.714614
C	 0.937542	 -1.268896	 4.252184
H	 1.785833	 -0.909436	 2.308907
H	 1.137504	 0.516426	 3.070373
H	 0.790183	 -2.337029	 4.120162
H	 0.136101	 -0.900545	 4.885786
H	 1.872494	 -1.127602	 4.785032
H	 -3.277823	 0.863061	 -0.908988
H	 -1.806773	 1.843019	 -0.759671
H	 -2.802853	 1.554979	 0.648059

	symmetry c1
}
set optking {
	frozen_dihedral = ("
		5 3 2 4
	")
}

ee = optimize('scf')
oeprop('DIPOLE', 'QUADRUPOLE', 'MULLIKEN_CHARGES')
f=open( 'psi4out.xyz', 'w' )
f.write( "19  " )
f.write( str(ee) + "\n" )
f.write( MOL.save_string_xyz() )
f.close()
--------------------------------------------------------------------------

    Molecular point group: c1
  Charge       = 0
  Multiplicity = 1
  Basis Set: 6-31G*
  Basis Set:
  @DF-RHF Final Energy:  -309.06421408016723
    Total Energy =                       -309.0642140801670621
    Molecular point group: c1
  Basis Set: 6-31G*
  Basis Set:
  Basis Set: 6-31G*
  Basis Set:
  @DF-RHF Final Energy:  -309.06299928358982
    Total Energy =                       -309.0629992835897042
  Basis Set: 6-31G*
  Basis Set:
  Basis Set: 6-31G*
  Basis Set:
  @DF-RHF Final Energy:  -309.06484678669426
    Total Energy =                       -309.0648467866942042
  Basis Set: 6-31G*
  Basis Set:
  Basis Set: 6-31G*
  Basis Set:
  @DF-RHF Final Energy:  -309.06518092555780
    Total Energy =                       -309.0651809255579678
  Basis Set: 6-31G*
  Basis Set:
  Basis Set: 6-31G*
  Basis Set:
  @DF-RHF Final Energy:  -309.06484967610356
    Total Energy =                       -309.0648496761033925
  Basis Set: 6-31G*
  Basis Set:
  Basis Set: 6-31G*
  Basis Set:
  @DF-RHF Final Energy:  -309.06518143573550
    Total Energy =                       -309.0651814357350986
  Basis Set: 6-31G*
  Basis Set:
  Basis Set: 6-31G*
  Basis Set:
  @DF-RHF Final Energy:  -309.06520156411511
    Total Energy =                       -309.0652015641148864
  Basis Set: 6-31G*
  Basis Set:
  Charge       = 0
  Multiplicity = 1
  Basis Set: 6-31G*
  Basis Set:

    Orbital Energies (a.u.)
    -----------------------

    Doubly Occupied:

       1A    -20.547947     2A    -11.325596     3A    -11.230074
       4A    -11.228822     5A    -11.225614     6A    -11.222423
       7A    -11.212852     8A     -1.394031     9A     -1.088317
      10A     -1.028750    11A     -0.984381    12A     -0.887934
      13A     -0.804203    14A     -0.732519    15A     -0.661653
      16A     -0.645960    17A     -0.622321    18A     -0.612002
      19A     -0.582256    20A     -0.572744    21A     -0.552838
      22A     -0.535266    23A     -0.514911    24A     -0.493622
      25A     -0.478961    26A     -0.473824    27A     -0.466470
      28A     -0.397516

  @DF-RHF Final Energy:  -309.06520248114526

   => Energetics <=

    Nuclear Repulsion Energy =            300.9521313147531032
    One-Electron Energy =               -1014.9870531875297957
    Two-Electron Energy =                 404.9697193916318838
    DFT Exchange-Correlation Energy =       0.0000000000000000
    Empirical Dispersion Energy =           0.0000000000000000
    PCM Polarization Energy =               0.0000000000000000
    EFP Energy =                            0.0000000000000000
    Total Energy =                       -309.0652024811448655
    Molecular point group: c1
  Basis Set: 6-31G*
  Basis Set:

  -Total Gradient:
     Atom            X                  Y                   Z
    ------   -----------------  -----------------  -----------------
       1        0.000130475954    -0.000018918639     0.000065017266
       2        0.000129988202    -0.000036979485    -0.000348333889
       3        0.000023016607    -0.000191606933     0.000022998243
       4       -0.000116524965     0.000116876422     0.000075039288
       5        0.000039692711    -0.000098944527     0.000058557388
       6       -0.000077034584     0.000009166025     0.000020104151
       7        0.000085872006     0.000044928419    -0.000121873078
       8       -0.000057627386    -0.000003897207     0.000026207344
       9       -0.000027558679     0.000003909912     0.000105519893
      10       -0.000003630931     0.000068546264     0.000004276584
      11        0.000015389632    -0.000021159040     0.000004202680
      12       -0.000007674092     0.000032553754    -0.000033920780
      13       -0.000017865916     0.000013030876     0.000029227428
      14       -0.000021564694     0.000017493410    -0.000003639893
      15        0.000009177312     0.000006935031     0.000023795329
      16        0.000008473373    -0.000016826856    -0.000000100718
      17       -0.000025356879     0.000019982957     0.000046418581
      18       -0.000055161506     0.000080018425     0.000018537976
      19       -0.000032086165    -0.000025108809     0.000007966209

  **** Optimization is complete! (in 8 steps) ****
    Final optimized geometry and variables:
    Molecular point group: c1

    Geometry (in Angstrom), charge = 0, multiplicity = 1:

    O           -1.276395989233    -0.836308839785    -1.669081242043
    C           -0.931923126835     0.259216448720    -1.344645955888
    C            0.357414719568     0.467598748166    -0.564620281131
    C           -1.755320613094     1.482560157835    -1.678234763680
    C            0.340490300253    -0.285116854585     0.772207018631
    H            1.168859997634     0.091626513965    -1.181939449040
    H            0.538855912416     1.525741761934    -0.400926755342
    C            1.653308173422    -0.147444692007     1.543978182726
    H            0.131975363065    -1.331464593910     0.577375098478
    H           -0.478241813420     0.086394646936     1.386150206733
    C            1.638905614423    -0.901526538847     2.873117012004
    H            2.471146430278    -0.515511212554     0.928412001100
    H            1.858468777833     0.905087552033     1.728075819713
    H            1.464258655899    -1.962260285992     2.719101218618
    H            0.855380923029    -0.529387406434     3.527082576390
    H            2.584370006612    -0.793586636199     3.395272032184
    H           -2.645089839592     1.194526669084    -2.220444901652
    H           -1.170911819495     2.177265546679    -2.275272559049
    H           -2.034852215192     2.002500061860    -0.765727378996

  Mulliken Charges: (a.u.)
   Center  Symbol    Alpha    Beta     Spin     Total
       1     O     4.26325  4.26325  0.00000 -0.52650
       2     C     2.73574  2.73574  0.00000  0.52852
       3     C     3.20313  3.20313  0.00000 -0.40627
       4     C     3.28924  3.28924  0.00000 -0.57847
       5     C     3.15697  3.15697  0.00000 -0.31395
       6     H     0.40229  0.40229  0.00000  0.19541
       7     H     0.41642  0.41642  0.00000  0.16715
       8     C     3.15248  3.15248  0.00000 -0.30496
       9     H     0.40337  0.40337  0.00000  0.19326
      10     H     0.42134  0.42134  0.00000  0.15732
      11     C     3.24004  3.24004  0.00000 -0.48008
      12     H     0.42063  0.42063  0.00000  0.15873
      13     H     0.42325  0.42325  0.00000  0.15350
      14     H     0.41882  0.41882  0.00000  0.16236
      15     H     0.42113  0.42113  0.00000  0.15774
      16     H     0.41814  0.41814  0.00000  0.16372
      17     H     0.39719  0.39719  0.00000  0.20561
      18     H     0.40795  0.40795  0.00000  0.18409
      19     H     0.40859  0.40859  0.00000  0.18282

   Total alpha = 28.00000, Total beta = 28.00000, Total charge =  0.00000
