                              Psi4 1.0.54 Driver

  ==> Input File <==

--------------------------------------------------------------------------
set {
	reference rhf
	basis cc-pvtz
}

set_num_threads( 4 )
memory 2 gb

molecule MOL {
0 1

O	 -2.817697	 1.304178	 0.001046
C	 -2.664672	 0.129869	 0.003507
C	 -3.797908	 -0.860100	 -0.001145
O	 -1.481217	 -0.452708	 0.001092
H	 -4.408836	 -0.679689	 -0.875387
H	 -3.443486	 -1.878443	 -0.002770
H	 -4.412123	 -0.683688	 0.871605
C	 -0.332055	 0.384012	 -0.000250
C	 0.892252	 -0.506059	 -0.000295
H	 -0.360822	 1.020205	 -0.874146
H	 -0.359817	 1.021310	 0.872861
C	 2.188199	 0.299473	 -0.001416
H	 0.857046	 -1.152781	 -0.871031
H	 0.857910	 -1.151798	 0.871202
C	 2.737655	 0.545810	 -1.403751
H	 2.021601	 1.255000	 0.489696
H	 2.938359	 -0.219843	 0.589807
C	 4.033312	 1.349725	 -1.405246
H	 1.989584	 1.066268	 -1.994995
H	 2.904685	 -0.408348	 -1.895453
H	 3.889969	 2.324040	 -0.950265
H	 4.396157	 1.506572	 -2.414329
H	 4.812071	 0.838139	 -0.849666

	symmetry c1
}
set optking {
	frozen_dihedral = ("
		16 12 9 13
	")
}

ee,wfn = optimize('scf', return_wfn=True)
oeprop( wfn, 'DIPOLE', 'QUADRUPOLE', 'MULLIKEN_CHARGES')
f=open( 'psi4out.xyz', 'w' )
f.write( "23  " )
f.write( str(ee) + "\n" )
f.write( MOL.save_string_xyz() )
f.close()
--------------------------------------------------------------------------

    Molecular point group: c1
  Charge       = 0
  Multiplicity = 1
  Basis Set: CC-PVTZ
  Basis Set:
  @DF-RHF Final Energy:  -423.13133510469703
    Total Energy =                       -423.1313351046970865
    Molecular point group: c1
  Basis Set: CC-PVTZ
  Basis Set:
  Basis Set: CC-PVTZ
  Basis Set:
  @DF-RHF Final Energy:  -423.13135400450841
    Total Energy =                       -423.1313540045084665
  Basis Set: CC-PVTZ
  Basis Set:
  Basis Set: CC-PVTZ
  Basis Set:
  @DF-RHF Final Energy:  -423.13147565010422
    Total Energy =                       -423.1314756501042211
  Basis Set: CC-PVTZ
  Basis Set:
  Basis Set: CC-PVTZ
  Basis Set:
  @DF-RHF Final Energy:  -423.13161341572686
    Total Energy =                       -423.1316134157269744
  Basis Set: CC-PVTZ
  Basis Set:
  Charge       = 0
  Multiplicity = 1
  Basis Set: CC-PVTZ
  Basis Set:

    Orbital Energies (a.u.)
    -----------------------

    Doubly Occupied:

       1A    -20.595925     2A    -20.529634     3A    -11.366529
       4A    -11.279469     5A    -11.230739     6A    -11.222313
       7A    -11.221437     8A    -11.219351     9A    -11.210636
      10A     -1.471214    11A     -1.364059    12A     -1.094642
      13A     -1.041989    14A     -1.003494    15A     -0.931195
      16A     -0.846622    17A     -0.797565    18A     -0.780582
      19A     -0.691356    20A     -0.688127    21A     -0.675543
      22A     -0.634798    23A     -0.617766    24A     -0.587332
      25A     -0.579902    26A     -0.572717    27A     -0.561938
      28A     -0.531852    29A     -0.527949    30A     -0.506108
      31A     -0.496080    32A     -0.478113    33A     -0.469634
      34A     -0.464187    35A     -0.452244    36A     -0.439344

  @DF-RHF Final Energy:  -423.13161435210168

   => Energetics <=

    Nuclear Repulsion Energy =            455.1738350110134661
    One-Electron Energy =               -1478.2461312587911380
    Two-Electron Energy =                 599.9406818956765619
    DFT Exchange-Correlation Energy =       0.0000000000000000
    Empirical Dispersion Energy =           0.0000000000000000
    PCM Polarization Energy =               0.0000000000000000
    EFP Energy =                            0.0000000000000000
    Total Energy =                       -423.1316143521011099
    Molecular point group: c1
  Basis Set: CC-PVTZ
  Basis Set:

  -Total Gradient:
     Atom            X                  Y                   Z
    ------   -----------------  -----------------  -----------------
       1       -0.000005778391     0.000049648946     0.000005649560
       2        0.000007953344    -0.000051850892     0.000002355840
       3       -0.000014042424    -0.000014789903     0.000013138809
       4       -0.000072435435    -0.000002318518     0.000017031537
       5       -0.000012383519     0.000000039050    -0.000017112871
       6       -0.000007983946    -0.000004017516     0.000001438665
       7        0.000000830596    -0.000000974189    -0.000001806609
       8        0.000067089982    -0.000019191890    -0.000053810519
       9        0.001340324869    -0.002056924218     0.001106283480
      10        0.000011627197     0.000007553315     0.000025026150
      11       -0.000002778654     0.000000892662    -0.000005978147
      12        0.000620000612    -0.000839658191     0.002451522116
      13       -0.001218386447     0.001865499411    -0.001316285146
      14       -0.000002587824     0.000003357354    -0.000012423079
      15       -0.000000360339    -0.000018795341     0.000035941564
      16       -0.000712132073     0.001052914445    -0.002232899137
      17        0.000000716572     0.000024820234    -0.000012948982
      18        0.000007195910     0.000012216802    -0.000010808706
      19        0.000012451505    -0.000004233557     0.000007825140
      20       -0.000013788375     0.000003906440    -0.000002676653
      21        0.000005212508    -0.000007488409     0.000006727156
      22       -0.000003251673    -0.000000714609    -0.000003403677
      23       -0.000007493998     0.000000108573    -0.000002786488

  **** Optimization is complete! (in 5 steps) ****
    Final optimized geometry and variables:
    Molecular point group: c1

    Geometry (in Angstrom), charge = 0, multiplicity = 1:

    O           -2.644331958539     1.054227314186     0.338284337244
    C           -2.497569389522    -0.120707137380     0.312560270393
    C           -3.636136168183    -1.103915992217     0.270373615031
    O           -1.317220509814    -0.709420217909     0.317696835231
    H           -4.234152299645    -0.900224737972    -0.607770548870
    H           -3.287293994210    -2.124027599963     0.250486380071
    H           -4.261140873025    -0.943692870500     1.138653637734
    C           -0.164149786769     0.120384527595     0.358603618541
    C            1.057471279117    -0.777145608989     0.354205428787
    H           -0.177827052578     0.783685323543    -0.495062124031
    H           -0.201032034493     0.730590148331     1.250445842425
    C            2.362209022741     0.031037161219     0.310533447033
    H            0.992747450200    -1.427420212348    -0.511421859772
    H            1.024981202892    -1.408210148387     1.234151495149
    C            2.871214953095     0.292152735972    -1.107217547076
    H            2.213767216178     0.989132069077     0.802643360059
    H            3.132493896203    -0.487605099453     0.870338054005
    C            4.133579879983     1.146538750296    -1.139019419650
    H            2.094551872295     0.778394570874    -1.690752467162
    H            3.066632379619    -0.658845352551    -1.594261893799
    H            3.958919547133     2.120688759932    -0.694709239313
    H            4.475368182826     1.303499283254    -2.155437935228
    H            4.939742119387     0.673209299251    -0.588298869231

  Mulliken Charges: (a.u.)
   Center  Symbol    Alpha    Beta     Spin     Total
       1     O     4.20243  4.20243  0.00000 -0.40485
       2     C     2.81479  2.81479  0.00000  0.37041
       3     C     3.13965  3.13965  0.00000 -0.27930
       4     O     4.14540  4.14540  0.00000 -0.29080
       5     H     0.44219  0.44219  0.00000  0.11563
       6     H     0.44184  0.44184  0.00000  0.11632
       7     H     0.44213  0.44213  0.00000  0.11574
       8     C     2.97606  2.97606  0.00000  0.04788
       9     C     3.09069  3.09069  0.00000 -0.18139
      10     H     0.45391  0.45391  0.00000  0.09218
      11     H     0.45376  0.45376  0.00000  0.09248
      12     C     3.10641  3.10641  0.00000 -0.21282
      13     H     0.45181  0.45181  0.00000  0.09639
      14     H     0.44399  0.44399  0.00000  0.11203
      15     C     3.08269  3.08269  0.00000 -0.16539
      16     H     0.45467  0.45467  0.00000  0.09067
      17     H     0.44445  0.44445  0.00000  0.11109
      18     C     3.15002  3.15002  0.00000 -0.30003
      19     H     0.45372  0.45372  0.00000  0.09256
      20     H     0.45318  0.45318  0.00000  0.09363
      21     H     0.45400  0.45400  0.00000  0.09200
      22     H     0.44751  0.44751  0.00000  0.10498
      23     H     0.45471  0.45471  0.00000  0.09058

   Total alpha = 36.00000, Total beta = 36.00000, Total charge =  0.00000

*** Psi4 exiting successfully. Buy a developer a beer!
