                              Psi4 1.0.54 Driver

  ==> Input File <==

--------------------------------------------------------------------------
set {
	reference rhf
	basis cc-pvtz
}

set_num_threads( 4 )
memory 2 gb

molecule MOL {
0 1

H	 3.459101	 0.139266	 -0.762951
C	 2.749156	 -0.051729	 0.031265
C	 1.322304	 0.099773	 -0.484271
H	 2.929445	 -1.053887	 0.403481
H	 2.954281	 0.646699	 0.834672
C	 0.308557	 -0.162619	 0.622645
H	 1.143368	 -0.594400	 -1.295960
H	 1.169532	 1.100095	 -0.870217
N	 -1.069352	 -0.004081	 0.085342
H	 0.371632	 -1.172932	 0.991288
H	 0.400391	 0.548875	 1.426218
O	 -1.813653	 0.686777	 0.696331
O	 -1.339188	 -0.602292	 -0.901712

	symmetry c1
}
set optking {
	frozen_dihedral = ("
		12 9 6 3
	")
}

ee,wfn = optimize('scf', return_wfn=True)
oeprop( wfn, 'DIPOLE', 'QUADRUPOLE', 'MULLIKEN_CHARGES')
f=open( 'psi4out.xyz', 'w' )
f.write( "13  " )
f.write( str(ee) + "\n" )
f.write( MOL.save_string_xyz() )
f.close()
--------------------------------------------------------------------------

    Molecular point group: c1
  Charge       = 0
  Multiplicity = 1
  Basis Set: CC-PVTZ
  Basis Set:
  @DF-RHF Final Energy:  -321.86068714362182
    Total Energy =                       -321.8606871436217034
    Molecular point group: c1
  Basis Set: CC-PVTZ
  Basis Set:
  Basis Set: CC-PVTZ
  Basis Set:
  @DF-RHF Final Energy:  -321.86053104640837
    Total Energy =                       -321.8605310464083686
  Basis Set: CC-PVTZ
  Basis Set:
  Basis Set: CC-PVTZ
  Basis Set:
  @DF-RHF Final Energy:  -321.84585691475070
    Total Energy =                       -321.8458569147508683
  Basis Set: CC-PVTZ
  Basis Set:
  Basis Set: CC-PVTZ
  Basis Set:
  @DF-RHF Final Energy:  -321.85712268808550
    Total Energy =                       -321.8571226880854397
  Basis Set: CC-PVTZ
  Basis Set:
  Basis Set: CC-PVTZ
  Basis Set:
  @DF-RHF Final Energy:  -321.86084011163302
    Total Energy =                       -321.8608401116331379
  Basis Set: CC-PVTZ
  Basis Set:
  Basis Set: CC-PVTZ
  Basis Set:
  @DF-RHF Final Energy:  -321.86106325208817
    Total Energy =                       -321.8610632520882291
  Basis Set: CC-PVTZ
  Basis Set:
  Basis Set: CC-PVTZ
  Basis Set:
  @DF-RHF Final Energy:  -321.86108367599741
    Total Energy =                       -321.8610836759974632
  Basis Set: CC-PVTZ
  Basis Set:
  Charge       = 0
  Multiplicity = 1
  Basis Set: CC-PVTZ
  Basis Set:

    Orbital Energies (a.u.)
    -----------------------

    Doubly Occupied:

       1A    -20.592362     2A    -20.589381     3A    -15.837691
       4A    -11.298037     5A    -11.250649     6A    -11.236023
       7A     -1.636731     8A     -1.420876     9A     -1.132822
      10A     -1.027405    11A     -0.884493    12A     -0.831064
      13A     -0.763237    14A     -0.743228    15A     -0.729608
      16A     -0.667135    17A     -0.605127    18A     -0.583757
      19A     -0.551501    20A     -0.522012    21A     -0.510966
      22A     -0.487703    23A     -0.474481    24A     -0.454277

  @DF-RHF Final Energy:  -321.86108465914089

   => Energetics <=

    Nuclear Repulsion Energy =            247.7516737759033845
    One-Electron Energy =                -929.5643839798801764
    Two-Electron Energy =                 359.9516255448359630
    DFT Exchange-Correlation Energy =       0.0000000000000000
    Empirical Dispersion Energy =           0.0000000000000000
    PCM Polarization Energy =               0.0000000000000000
    EFP Energy =                            0.0000000000000000
    Total Energy =                       -321.8610846591408858
    Molecular point group: c1
  Basis Set: CC-PVTZ
  Basis Set:

  -Total Gradient:
     Atom            X                  Y                   Z
    ------   -----------------  -----------------  -----------------
       1        0.000001593608    -0.000000823942     0.000001532938
       2       -0.000029995870    -0.000008279543    -0.000014126914
       3        0.000109508216    -0.000402221873    -0.000062348932
       4        0.000003860041    -0.000008135313     0.000007431882
       5        0.000002143574     0.000010254821     0.000002244580
       6       -0.000196416252     0.000366538778     0.000151504155
       7        0.000006141630     0.000006887639    -0.000009308528
       8       -0.000007498544     0.000012672195     0.000002374491
       9       -0.000011818415     0.000585773999    -0.000344859919
      10       -0.000002209286    -0.000005115566     0.000006838480
      11       -0.000019057074    -0.000005945343    -0.000006737611
      12        0.000077748099    -0.000494173004     0.000291041564
      13        0.000066000276    -0.000057432848    -0.000025586184

  **** Optimization is complete! (in 8 steps) ****
    Final optimized geometry and variables:
    Molecular point group: c1

    Geometry (in Angstrom), charge = 0, multiplicity = 1:

    H            3.451704876644     0.643462957789    -0.644544820041
    C            2.726346670054     0.437379869090     0.131713937604
    C            1.336522111129     0.265635344460    -0.472791799610
    H            3.043477643871    -0.460327663676     0.650933192212
    H            2.754263285138     1.259563600718     0.837951897659
    C            0.308509029648    -0.020844228522     0.609322549048
    H            1.334196663936    -0.543059257028    -1.188985564634
    H            1.050950279764     1.166793881241    -1.004090117217
    N           -1.062711219565    -0.174040385810     0.044783829766
    H            0.510613529306    -0.959248143243     1.106492994734
    H            0.237270977646     0.768247107274     1.337551730747
    O           -1.932308476114     0.451364934257     0.549989352995
    O           -1.197103690514    -0.928957931913    -0.859458192849

  Mulliken Charges: (a.u.)
   Center  Symbol    Alpha    Beta     Spin     Total
       1     H     0.44151  0.44151  0.00000  0.11699
       2     C     3.15157  3.15157  0.00000 -0.30313
       3     C     3.09564  3.09564  0.00000 -0.19127
       4     H     0.45232  0.45232  0.00000  0.09536
       5     H     0.45221  0.45221  0.00000  0.09559
       6     C     3.04110  3.04110  0.00000 -0.08220
       7     H     0.43319  0.43319  0.00000  0.13363
       8     H     0.44360  0.44360  0.00000  0.11281
       9     N     3.27655  3.27655  0.00000  0.44689
      10     H     0.43748  0.43748  0.00000  0.12505
      11     H     0.43212  0.43212  0.00000  0.13577
      12     O     4.16901  4.16901  0.00000 -0.33801
      13     O     4.17373  4.17373  0.00000 -0.34745

   Total alpha = 24.00000, Total beta = 24.00000, Total charge =  0.00000

*** Psi4 exiting successfully. Buy a developer a beer!
