  ==> Input File <==

--------------------------------------------------------------------------
set {
	reference rhf
	basis cc-pvtz
}

set_num_threads( 4 )
memory 2 gb

molecule MOL {
0 1

H	 1.395329	 1.315204	 -1.049033
O	 0.597098	 0.811634	 -1.101092
C	 0.489979	 0.078084	 0.002623
C	 -0.763662	 -0.754014	 0.000816
O	 1.300526	 0.110281	 0.862791
C	 -2.038001	 0.074705	 -0.000833
H	 -0.712945	 -1.405886	 -0.864342
H	 -0.715137	 -1.405770	 0.866182
H	 -2.087267	 0.710831	 -0.874232
H	 -2.903419	 -0.576199	 -0.001922
H	 -2.089467	 0.710909	 0.872389

	symmetry c1
}
set optking {
	frozen_dihedral = ("
		2 3 4 7
	")
}

ee = optimize('scf')
oeprop('DIPOLE', 'QUADRUPOLE', 'MULLIKEN_CHARGES')
f=open( 'psi4out.xyz', 'w' )
f.write( "11  " )
f.write( str(ee) + "\n" )
f.write( MOL.save_string_xyz() )
f.close()
--------------------------------------------------------------------------

    Molecular point group: c1
  Charge       = 0
  Multiplicity = 1
  Basis Set: CC-PVTZ
  Basis Set:
  @DF-RHF Final Energy:  -266.95134830532481
    Total Energy =                       -266.9513483053248137
    Molecular point group: c1
  Basis Set: CC-PVTZ
  Basis Set:
  Basis Set: CC-PVTZ
  Basis Set:
  @DF-RHF Final Energy:  -266.95158833063152
    Total Energy =                       -266.9515883306314095
  Basis Set: CC-PVTZ
  Basis Set:
  Basis Set: CC-PVTZ
  Basis Set:
  @DF-RHF Final Energy:  -266.95150481576911
    Total Energy =                       -266.9515048157691126
  Basis Set: CC-PVTZ
  Basis Set:
  Basis Set: CC-PVTZ
  Basis Set:
  @DF-RHF Final Energy:  -266.95166720716071
    Total Energy =                       -266.9516672071607104
  Basis Set: CC-PVTZ
  Basis Set:
  Charge       = 0
  Multiplicity = 1
  Basis Set: CC-PVTZ
  Basis Set:

    Orbital Energies (a.u.)
    -----------------------

    Doubly Occupied:

       1A    -20.605517     2A    -20.540427     3A    -11.373582
       4A    -11.241963     5A    -11.227987     6A     -1.478328
       7A     -1.369165     8A     -1.068915     9A     -0.913189
      10A     -0.821084    11A     -0.705936    12A     -0.686893
      13A     -0.646586    14A     -0.615596    15A     -0.593886
      16A     -0.548314    17A     -0.527823    18A     -0.512456
      19A     -0.482276    20A     -0.443768

  @DF-RHF Final Energy:  -266.95166761906017

   => Energetics <=

    Nuclear Repulsion Energy =            180.4042817429536854
    One-Electron Energy =                -721.9045169042994985
    Two-Electron Energy =                 274.5485675422855820
    DFT Exchange-Correlation Energy =       0.0000000000000000
    Empirical Dispersion Energy =           0.0000000000000000
    PCM Polarization Energy =               0.0000000000000000
    EFP Energy =                            0.0000000000000000
    Total Energy =                       -266.9516676190602311
    Molecular point group: c1
  Basis Set: CC-PVTZ
  Basis Set:

  -Total Gradient:
     Atom            X                  Y                   Z
    ------   -----------------  -----------------  -----------------
       1        0.000021393498     0.000044926133    -0.000030130828
       2       -0.000034745996     0.000198151350     0.000110310189
       3        0.000176462230    -0.000367312740    -0.000030087906
       4       -0.000260852189     0.000279398602    -0.000084896479
       5       -0.000043839853     0.000058074966    -0.000099178237
       6        0.000051491489    -0.000026463421    -0.000013323880
       7        0.000123568311    -0.000155906879     0.000150307061
       8       -0.000012567216    -0.000030346279     0.000004047862
       9       -0.000010797909     0.000012201035    -0.000000411778
      10       -0.000014273519    -0.000007942077     0.000000746543
      11        0.000004161158    -0.000004780692    -0.000007382550

  **** Optimization is complete! (in 5 steps) ****
    Final optimized geometry and variables:
    Molecular point group: c1

    Geometry (in Angstrom), charge = 0, multiplicity = 1:

    H            1.449220817920     1.245803532557    -0.962892926798
    O            0.649600160291     0.744744419706    -1.020525197036
    C            0.550347840602    -0.015963750434     0.066139945394
    C           -0.699895498197    -0.853480990945     0.071195184205
    O            1.373975954038    -0.009318378399     0.914653672554
    C           -1.978050106161    -0.013847572179     0.057874111466
    H           -0.669953046960    -1.492685107238    -0.804080108064
    H           -0.657095684832    -1.480113633525     0.949136737492
    H           -2.037290600625     0.596576052940    -0.832609131220
    H           -2.844224502323    -0.662384196723     0.084379434423
    H           -2.023336309730     0.638268646065     0.922000925927

  Mulliken Charges: (a.u.)
   Center  Symbol    Alpha    Beta     Spin     Total
       1     H     0.38040  0.38040  0.00000  0.23919
       2     O     4.16388  4.16388  0.00000 -0.32776
       3     C     2.80140  2.80140  0.00000  0.39720
       4     C     3.09023  3.09023  0.00000 -0.18046
       5     O     4.19333  4.19333  0.00000 -0.38666
       6     C     3.14871  3.14871  0.00000 -0.29743
       7     H     0.44542  0.44542  0.00000  0.10916
       8     H     0.43534  0.43534  0.00000  0.12933
       9     H     0.44498  0.44498  0.00000  0.11005
      10     H     0.44696  0.44696  0.00000  0.10609
      11     H     0.44935  0.44935  0.00000  0.10130

   Total alpha = 20.00000, Total beta = 20.00000, Total charge = -0.00000
