  ==> Input File <==

--------------------------------------------------------------------------
set {
	reference rhf
	basis 6-31G*
}

set_num_threads( 4 )
memory 2 gb

molecule MOL {
0 1

H	 5.299487	 0.881095	 0.136015
C	 4.632753	 0.552130	 -0.655042
C	 3.217450	 0.324618	 -0.125579
H	 4.640602	 1.311505	 -1.431333
H	 5.046256	 -0.359114	 -1.078658
C	 2.252072	 -0.147094	 -1.215233
H	 2.846430	 1.245496	 0.312518
H	 3.247035	 -0.414627	 0.673380
C	 0.831196	 -0.400700	 -0.711186
H	 2.217200	 0.586660	 -2.012750
H	 2.630276	 -1.069654	 -1.649842
C	 0.059721	 0.860217	 -0.350414
H	 0.252931	 -0.907854	 -1.482013
H	 0.836237	 -1.074035	 0.143081
C	 -1.181045	 0.701995	 0.511084
O	 0.400658	 1.935853	 -0.741790
C	 -2.285934	 -0.139295	 -0.145128
H	 -1.546971	 1.698890	 0.725591
H	 -0.890966	 0.242826	 1.454324
C	 -3.651768	 0.085446	 0.506485
H	 -2.346596	 0.110469	 -1.202272
H	 -2.034737	 -1.195320	 -0.088721
C	 -4.759797	 -0.746382	 -0.137905
H	 -3.908762	 1.140117	 0.445781
H	 -3.588286	 -0.154158	 1.565709
H	 -4.868882	 -0.505166	 -1.191300
H	 -4.548009	 -1.809175	 -0.062213
H	 -5.715422	 -0.564821	 0.343442

	symmetry c1
}
set optking {
	frozen_dihedral = ("
		12 15 17 21
	")
}

ee = optimize('scf')
oeprop('DIPOLE', 'QUADRUPOLE', 'MULLIKEN_CHARGES')
f=open( 'psi4out.xyz', 'w' )
f.write( "28  " )
f.write( str(ee) + "\n" )
f.write( MOL.save_string_xyz() )
f.close()
--------------------------------------------------------------------------

    Molecular point group: c1
  Charge       = 0
  Multiplicity = 1
  Basis Set: 6-31G*
  Basis Set:
  @DF-RHF Final Energy:  -426.16838633023644
    Total Energy =                       -426.1683863302358759
    Molecular point group: c1
  Basis Set: 6-31G*
  Basis Set:
  Basis Set: 6-31G*
  Basis Set:
  @DF-RHF Final Energy:  -426.16803319943233
    Total Energy =                       -426.1680331994326707
  Basis Set: 6-31G*
  Basis Set:
  Basis Set: 6-31G*
  Basis Set:
  @DF-RHF Final Energy:  -426.16792161546073
    Total Energy =                       -426.1679216154605001
  Basis Set: 6-31G*
  Basis Set:
  Basis Set: 6-31G*
  Basis Set:
  @DF-RHF Final Energy:  -426.16850174568424
    Total Energy =                       -426.1685017456845799
  Basis Set: 6-31G*
  Basis Set:
  @DF-RHF Final Energy:  -426.16849884452608
    Total Energy =                       -426.1684988445264253
  Basis Set: 6-31G*
  Basis Set:
  @DF-RHF Final Energy:  -426.16853247227948
    Total Energy =                       -426.1685324722793666
  Basis Set: 6-31G*
  Basis Set:
  Basis Set: 6-31G*
  Basis Set:
  @DF-RHF Final Energy:  -426.16853618626919
    Total Energy =                       -426.1685361862689660
  Basis Set: 6-31G*
  Basis Set:
  Basis Set: 6-31G*
  Basis Set:
  @DF-RHF Final Energy:  -426.16853908696260
    Total Energy =                       -426.1685390869618004
  Basis Set: 6-31G*
  Basis Set:
  Charge       = 0
  Multiplicity = 1
  Basis Set: 6-31G*
  Basis Set:

    Orbital Energies (a.u.)
    -----------------------

    Doubly Occupied:

       1A    -20.548365     2A    -11.322185     3A    -11.232640
       4A    -11.229958     5A    -11.228460     6A    -11.225874
       7A    -11.216171     8A    -11.216029     9A    -11.211396
      10A    -11.205163    11A     -1.393489    12A     -1.094517
      13A     -1.077034    14A     -1.022599    15A     -0.990314
      16A     -0.907490    17A     -0.872420    18A     -0.809296
      19A     -0.799091    20A     -0.723793    21A     -0.670516
      22A     -0.648501    23A     -0.629186    24A     -0.619309
      25A     -0.608503    26A     -0.587784    27A     -0.577739
      28A     -0.574056    29A     -0.541420    30A     -0.532184
      31A     -0.521709    32A     -0.505292    33A     -0.502032
      34A     -0.483681    35A     -0.478618    36A     -0.474322
      37A     -0.470969    38A     -0.464312    39A     -0.455103
      40A     -0.392377

  @DF-RHF Final Energy:  -426.16854000727847

   => Energetics <=

    Nuclear Repulsion Energy =            530.8867366666839871
    One-Electron Energy =               -1629.9827623496541946
    Two-Electron Energy =                 672.9274856756909458
    DFT Exchange-Correlation Energy =       0.0000000000000000
    Empirical Dispersion Energy =           0.0000000000000000
    PCM Polarization Energy =               0.0000000000000000
    EFP Energy =                            0.0000000000000000
    Total Energy =                       -426.1685400072793755
    Molecular point group: c1
  Basis Set: 6-31G*
  Basis Set:

  -Total Gradient:
     Atom            X                  Y                   Z
    ------   -----------------  -----------------  -----------------
       1        0.000002100969     0.000014996661    -0.000004505995
       2       -0.000002946869     0.000024355592     0.000000086513
       3        0.000006758864    -0.000024307367    -0.000009240010
       4        0.000006722307    -0.000003470592    -0.000015146139
       5       -0.000001441404     0.000001971628     0.000011143961
       6        0.000003619383    -0.000005298810     0.000013240001
       7       -0.000022152153    -0.000016314077     0.000007332640
       8        0.000016581830    -0.000008283853    -0.000000718678
       9       -0.000059098590     0.000009605127    -0.000093799479
      10        0.000010905321    -0.000016536176    -0.000003731672
      11        0.000014285997    -0.000001882973     0.000017361890
      12       -0.000610217111     0.001670503994    -0.000556064197
      13        0.000003161073    -0.000025335530     0.000005854906
      14       -0.000006319100     0.000008580435    -0.000007857893
      15        0.001315602964    -0.002730569135     0.000821762709
      16       -0.000017726153     0.000012387366    -0.000013073669
      17       -0.002356840289     0.002930944514     0.000463872820
      18        0.000012114284    -0.000003349191    -0.000023073731
      19        0.000018970104     0.000012508852     0.000006805925
      20       -0.000006513024     0.000011550382    -0.000011115986
      21        0.001681414236    -0.001869903572    -0.000599624211
      22       -0.000008062871     0.000018312023    -0.000014820997
      23        0.000004758888    -0.000021054040     0.000012625647
      24       -0.000004707417     0.000006544111    -0.000011148986
      25       -0.000001439696     0.000008463826     0.000002564663
      26       -0.000000602579     0.000005250396     0.000004410469
      27       -0.000001548295    -0.000005641955    -0.000008085113
      28        0.000002619334    -0.000004027636     0.000004944614

  **** Optimization is complete! (in 9 steps) ****
    Final optimized geometry and variables:
    Molecular point group: c1

    Geometry (in Angstrom), charge = 0, multiplicity = 1:

    H            5.383873810707     0.683259579684     0.250001533313
    C            4.681793479132     0.296579073603    -0.482188544275
    C            3.306244742598     0.063267083105     0.141174329187
    H            4.624075255664     1.013733522330    -1.295684692160
    H            5.095100837301    -0.625503859717    -0.882001337404
    C            2.292519539867    -0.487832154606    -0.864125462447
    H            2.935986784456     0.995901312389     0.553354317183
    H            3.402091876285    -0.633065998369     0.972856775911
    C            0.908062554264    -0.740699869155    -0.267621460105
    H            2.197607887380     0.198939196333    -1.698062736586
    H            2.667445118729    -1.425620044691    -1.267959436974
    C            0.117137200800     0.518595046630     0.051534898730
    H            0.303966117720    -1.320388476052    -0.964086484691
    H            0.978142230689    -1.348381042968     0.632210844661
    C           -1.146855609330     0.356194681299     0.877757461925
    O            0.449628684960     1.592005557686    -0.352562796300
    C           -2.256513556539    -0.407110067959     0.132465824115
    H           -1.484975053676     1.356264171393     1.122115353682
    H           -0.912734820188    -0.154622617130     1.808533252248
    C           -3.633515448991    -0.207705788177     0.766220780247
    H           -2.279625713600    -0.092918171807    -0.908888203542
    H           -2.021748374671    -1.468960855443     0.117487183375
    C           -4.731585970813    -1.002109689349     0.060681240409
    H           -3.883817543372     0.850014278774     0.751139083901
    H           -3.591738419047    -0.498224897557     1.813812082425
    H           -4.816320415473    -0.711860951930    -0.982567847659
    H           -4.527395586301    -2.068586031203     0.091870361244
    H           -5.696422267973    -0.836484765853     0.529258427013

  Mulliken Charges: (a.u.)
   Center  Symbol    Alpha    Beta     Spin     Total
       1     H     0.41940  0.41940  0.00000  0.16120
       2     C     3.24017  3.24017  0.00000 -0.48034
       3     C     3.15625  3.15625  0.00000 -0.31249
       4     H     0.41845  0.41845  0.00000  0.16310
       5     H     0.42385  0.42385  0.00000  0.15231
       6     C     3.14886  3.14886  0.00000 -0.29773
       7     H     0.40919  0.40919  0.00000  0.18162
       8     H     0.42791  0.42791  0.00000  0.14418
       9     C     3.21203  3.21203  0.00000 -0.42406
      10     H     0.40766  0.40766  0.00000  0.18469
      11     H     0.42206  0.42206  0.00000  0.15588
      12     C     2.73418  2.73418  0.00000  0.53165
      13     H     0.40311  0.40311  0.00000  0.19378
      14     H     0.41240  0.41240  0.00000  0.17520
      15     C     3.20027  3.20027  0.00000 -0.40054
      16     O     4.26624  4.26624  0.00000 -0.53248
      17     C     3.16367  3.16367  0.00000 -0.32735
      18     H     0.40006  0.40006  0.00000  0.19988
      19     H     0.41257  0.41257  0.00000  0.17485
      20     C     3.15195  3.15195  0.00000 -0.30390
      21     H     0.41370  0.41370  0.00000  0.17259
      22     H     0.41919  0.41919  0.00000  0.16163
      23     C     3.24066  3.24066  0.00000 -0.48131
      24     H     0.41748  0.41748  0.00000  0.16503
      25     H     0.42112  0.42112  0.00000  0.15776
      26     H     0.41956  0.41956  0.00000  0.16089
      27     H     0.42119  0.42119  0.00000  0.15762
      28     H     0.41682  0.41682  0.00000  0.16635

   Total alpha = 40.00000, Total beta = 40.00000, Total charge = -0.00000
