  ==> Input File <==

--------------------------------------------------------------------------
set {
	reference rhf
	basis 6-31G*
}

set_num_threads( 4 )
memory 2 gb

molecule MOL {
0 1

H	 -0.216825	 0.021369	 -3.357402
C	 0.374198	 0.036393	 -2.447010
C	 -0.521757	 -0.028637	 -1.217342
H	 0.969602	 0.942322	 -2.434777
H	 1.053364	 -0.811668	 -2.481329
N	 0.263400	 0.031178	 0.000000
H	 -1.199035	 0.820290	 -1.219355
H	 -1.147901	 -0.924895	 -1.265384
C	 -0.521757	 -0.028637	 1.217342
H	 0.935769	 -0.712709	 0.000000
C	 -0.913141	 -1.463844	 1.542992
H	 0.083928	 0.372020	 2.024810
H	 -1.419757	 0.594636	 1.164707
H	 -0.029812	 -2.084650	 1.641446
H	 -1.475627	 -1.510435	 2.470238
H	 -1.535580	 -1.887024	 0.758683

	symmetry c1
}
set optking {
	frozen_dihedral = ("
		12 9 6 3
	")
}

ee = optimize('scf')
oeprop('DIPOLE', 'QUADRUPOLE', 'MULLIKEN_CHARGES')
f=open( 'psi4out.xyz', 'w' )
f.write( "16  " )
f.write( str(ee) + "\n" )
f.write( MOL.save_string_xyz() )
f.close()
--------------------------------------------------------------------------

    Molecular point group: c1
  Charge       = 0
  Multiplicity = 1
  Basis Set: 6-31G*
  Basis Set:
  @DF-RHF Final Energy:  -212.30889386220156
    Total Energy =                       -212.3088938622015576
    Molecular point group: c1
  Basis Set: 6-31G*
  Basis Set:
  Basis Set: 6-31G*
  Basis Set:
  @DF-RHF Final Energy:  -212.31092582479991
    Total Energy =                       -212.3109258248000515
  Basis Set: 6-31G*
  Basis Set:
  Basis Set: 6-31G*
  Basis Set:
  @DF-RHF Final Energy:  -212.31124632551891
    Total Energy =                       -212.3112463255188231
  Basis Set: 6-31G*
  Basis Set:
  Basis Set: 6-31G*
  Basis Set:
  @DF-RHF Final Energy:  -212.31125918777337
    Total Energy =                       -212.3112591877733166
  Basis Set: 6-31G*
  Basis Set:
  Basis Set: 6-31G*
  Basis Set:
  @DF-RHF Final Energy:  -212.31126077229786
    Total Energy =                       -212.3112607722977145
  Basis Set: 6-31G*
  Basis Set:
  Charge       = 0
  Multiplicity = 1
  Basis Set: 6-31G*
  Basis Set:

    Orbital Energies (a.u.)
    -----------------------

    Doubly Occupied:

       1A    -15.532345     2A    -11.240614     3A    -11.240521
       4A    -11.209088     5A    -11.207414     6A     -1.202259
       7A     -1.025102     8A     -0.964536     9A     -0.845093
      10A     -0.814022    11A     -0.652038    12A     -0.626090
      13A     -0.616214    14A     -0.566078    15A     -0.557372
      16A     -0.530547    17A     -0.510282    18A     -0.490141
      19A     -0.486204    20A     -0.473766    21A     -0.352699

  @DF-RHF Final Energy:  -212.31126085134997

   => Energetics <=

    Nuclear Repulsion Energy =            190.6531354840939798
    One-Electron Energy =                -663.6439499895916470
    Two-Electron Energy =                 260.6795536541477532
    DFT Exchange-Correlation Energy =       0.0000000000000000
    Empirical Dispersion Energy =           0.0000000000000000
    PCM Polarization Energy =               0.0000000000000000
    EFP Energy =                            0.0000000000000000
    Total Energy =                       -212.3112608513499140
    Molecular point group: c1
  Basis Set: 6-31G*
  Basis Set:

  -Total Gradient:
     Atom            X                  Y                   Z
    ------   -----------------  -----------------  -----------------
       1       -0.000001303063    -0.000000819408     0.000005809702
       2        0.000007179781    -0.000009162353     0.000006349018
       3       -0.000154212915     0.001467947347    -0.000005819543
       4       -0.000002956374     0.000001705203     0.000000678483
       5        0.000003902071    -0.000000475973    -0.000003724050
       6        0.000050268129    -0.001714058761    -0.000072090242
       7       -0.000002891616     0.000000075726     0.000001830032
       8        0.000002660860     0.000000839950    -0.000000595204
       9        0.000799980683    -0.001431148004     0.000381175292
      10        0.000008760305    -0.000005497656    -0.000006210862
      11        0.000005651882     0.000015484100    -0.000001234196
      12       -0.000702009472     0.001684068678    -0.000319804276
      13       -0.000009153755     0.000009119699     0.000012591600
      14       -0.000002646070    -0.000005621509     0.000001414455
      15        0.000000177517    -0.000005405847    -0.000002212508
      16       -0.000003407964    -0.000007051190     0.000001842297

  **** Optimization is complete! (in 6 steps) ****
    Final optimized geometry and variables:
    Molecular point group: c1

    Geometry (in Angstrom), charge = 0, multiplicity = 1:

    H            0.062431639259     0.394618743781    -3.196969304653
    C            0.646128956361     0.414062176269    -2.281809891491
    C           -0.250997148379     0.245059140560    -1.062504681637
    H            1.181482552248     1.355308979326    -2.230342761502
    H            1.378967883226    -0.386580082357    -2.341968383864
    N            0.528772578957     0.319482626708     0.158090953401
    H           -0.979362879177     1.049861683995    -1.038107660886
    H           -0.817427621154    -0.684679468677    -1.158978816656
    C           -0.218464090587     0.246500082363     1.400458328358
    H            1.259309402417    -0.366145791844     0.148920288353
    C           -0.704544242683    -1.146652319385     1.807077435144
    H            0.400965928231     0.660566184882     2.190735497184
    H           -1.069056532019     0.915393267205     1.310296927387
    H            0.133276454445    -1.828544661053     1.929685071217
    H           -1.238034350807    -1.107305911614     2.752567033338
    H           -1.374168548247    -1.571582589557     1.066192883031

  Mulliken Charges: (a.u.)
   Center  Symbol    Alpha    Beta     Spin     Total
       1     H     0.42071  0.42071  0.00000  0.15859
       2     C     3.24124  3.24124  0.00000 -0.48249
       3     C     3.05363  3.05363  0.00000 -0.10726
       4     H     0.41214  0.41214  0.00000  0.17573
       5     H     0.42500  0.42500  0.00000  0.15000
       6     N     3.85075  3.85075  0.00000 -0.70150
       7     H     0.42074  0.42074  0.00000  0.15853
       8     H     0.43471  0.43471  0.00000  0.13058
       9     C     3.05727  3.05727  0.00000 -0.11455
      10     H     0.33528  0.33528  0.00000  0.32945
      11     C     3.24643  3.24643  0.00000 -0.49285
      12     H     0.41697  0.41697  0.00000  0.16606
      13     H     0.42088  0.42088  0.00000  0.15823
      14     H     0.42444  0.42444  0.00000  0.15112
      15     H     0.42063  0.42063  0.00000  0.15874
      16     H     0.41918  0.41918  0.00000  0.16164

   Total alpha = 21.00000, Total beta = 21.00000, Total charge = -0.00000
