  ==> Input File <==

--------------------------------------------------------------------------
set {
	reference rhf
	basis 6-31G*
}

set_num_threads( 4 )
memory 2 gb

molecule MOL {
0 1

H	 -0.944757	 -0.000069	 1.678017
O	 -0.042387	 -0.000390	 1.388199
C	 -0.001487	 0.000018	 -0.026623
C	 1.367709	 0.492627	 -0.499147
C	 -0.282112	 -1.410885	 -0.547435
C	 -1.101297	 0.964177	 -0.457015
H	 1.417816	 0.544693	 -1.582049
H	 2.156109	 -0.177423	 -0.163940
H	 1.571236	 1.478650	 -0.096215
H	 -0.297123	 -1.436850	 -1.632419
H	 0.483631	 -2.106160	 -0.211039
H	 -1.239866	 -1.762770	 -0.180336
H	 -1.153101	 1.037229	 -1.538553
H	 -0.912926	 1.952106	 -0.052046
H	 -2.062300	 0.625544	 -0.086617

	symmetry c1
}
set optking {
	frozen_dihedral = ("
		4 3 2 1
	")
}

ee = optimize('scf')
oeprop('DIPOLE', 'QUADRUPOLE', 'MULLIKEN_CHARGES')
f=open( 'psi4out.xyz', 'w' )
f.write( "15  " )
f.write( str(ee) + "\n" )
f.write( MOL.save_string_xyz() )
f.close()
--------------------------------------------------------------------------

    Molecular point group: c1
  Charge       = 0
  Multiplicity = 1
  Basis Set: 6-31G*
  Basis Set:
  @DF-RHF Final Energy:  -232.15042460619583
    Total Energy =                       -232.1504246061957133
    Molecular point group: c1
  Basis Set: 6-31G*
  Basis Set:
  Basis Set: 6-31G*
  Basis Set:
  @DF-RHF Final Energy:  -232.15226373660826
    Total Energy =                       -232.1522637366084609
  Basis Set: 6-31G*
  Basis Set:
  Basis Set: 6-31G*
  Basis Set:
  @DF-RHF Final Energy:  -232.15273124726923
    Total Energy =                       -232.1527312472691733
  Basis Set: 6-31G*
  Basis Set:
  Basis Set: 6-31G*
  Basis Set:
  @DF-RHF Final Energy:  -232.15274272445515
    Total Energy =                       -232.1527427244549813
  Basis Set: 6-31G*
  Basis Set:
  Basis Set: 6-31G*
  Basis Set:
  @DF-RHF Final Energy:  -232.15274870887421
    Total Energy =                       -232.1527487088742987
  Basis Set: 6-31G*
  Basis Set:
  Charge       = 0
  Multiplicity = 1
  Basis Set: 6-31G*
  Basis Set:

    Orbital Energies (a.u.)
    -----------------------

    Doubly Occupied:

       1A    -20.548538     2A    -11.281875     3A    -11.214709
       4A    -11.207773     5A    -11.205006     6A     -1.360025
       7A     -1.063413     8A     -0.942927     9A     -0.937934
      10A     -0.775613    11A     -0.669912    12A     -0.622521
      13A     -0.621178    14A     -0.574812    15A     -0.556763
      16A     -0.531802    17A     -0.516808    18A     -0.508898
      19A     -0.502790    20A     -0.456788    21A     -0.424804

  @DF-RHF Final Energy:  -232.15274938201355

   => Energetics <=

    Nuclear Repulsion Energy =            200.3324443292152068
    One-Electron Energy =                -711.9206078614770377
    Two-Electron Energy =                 279.4354141502481639
    DFT Exchange-Correlation Energy =       0.0000000000000000
    Empirical Dispersion Energy =           0.0000000000000000
    PCM Polarization Energy =               0.0000000000000000
    EFP Energy =                            0.0000000000000000
    Total Energy =                       -232.1527493820136669
    Molecular point group: c1
  Basis Set: 6-31G*
  Basis Set:

  -Total Gradient:
     Atom            X                  Y                   Z
    ------   -----------------  -----------------  -----------------
       1        0.000039896912     0.001910653587     0.000043188752
       2       -0.000191612970    -0.002025835251     0.000033148110
       3        0.000497582731    -0.000967357298     0.000020999425
       4       -0.000386310349     0.001096462628    -0.000029321066
       5       -0.000011126732     0.000012120458    -0.000038274056
       6        0.000020465978     0.000004051492    -0.000008725888
       7        0.000013336515    -0.000007882461     0.000009980161
       8        0.000013245170    -0.000010863487     0.000001688197
       9       -0.000023449695     0.000000274584     0.000003787049
      10       -0.000009105083    -0.000017911815    -0.000005048143
      11        0.000011199237     0.000012643366    -0.000014241626
      12        0.000004935780    -0.000002808775     0.000008176912
      13       -0.000012653042     0.000015019356    -0.000030651670
      14       -0.000008964526    -0.000014173223    -0.000001117427
      15        0.000042560075    -0.000004393159     0.000006411266

  **** Optimization is complete! (in 6 steps) ****
    Final optimized geometry and variables:
    Molecular point group: c1

    Geometry (in Angstrom), charge = 0, multiplicity = 1:

    H           -0.822510177850    -0.030577807100     1.744126534290
    O            0.055497824654    -0.035599198403     1.388734897538
    C           -0.001435695791    -0.004283072117    -0.026366403662
    C            1.369651856435     0.488583751342    -0.476926715517
    C           -0.277739020209    -1.414444904594    -0.549882094656
    C           -1.093531391337     0.967247610927    -0.478369499284
    H            1.436742753715     0.519193748606    -1.559775010410
    H            2.145488992801    -0.170279121829    -0.102758001398
    H            1.556539178067     1.483304843549    -0.088515045110
    H           -0.296915393619    -1.439328852609    -1.635217676981
    H            0.488493954249    -2.098194237085    -0.202083481494
    H           -1.237351948909    -1.775437878590    -0.189502023287
    H           -1.130188759210     1.043481744258    -1.560027131878
    H           -0.912026329029     1.956193746864    -0.070829964850
    H           -2.072696579011     0.634845270874    -0.139808282365

  Mulliken Charges: (a.u.)
   Center  Symbol    Alpha    Beta     Spin     Total
       1     H     0.28285  0.28285  0.00000  0.43429
       2     O     4.37780  4.37780  0.00000 -0.75559
       3     C     2.85116  2.85116  0.00000  0.29767
       4     C     3.23323  3.23323  0.00000 -0.46646
       5     C     3.23530  3.23530  0.00000 -0.47059
       6     C     3.24981  3.24981  0.00000 -0.49961
       7     H     0.42443  0.42443  0.00000  0.15114
       8     H     0.41286  0.41286  0.00000  0.17428
       9     H     0.41479  0.41479  0.00000  0.17042
      10     H     0.42369  0.42369  0.00000  0.15262
      11     H     0.41267  0.41267  0.00000  0.17466
      12     H     0.42547  0.42547  0.00000  0.14905
      13     H     0.41779  0.41779  0.00000  0.16442
      14     H     0.41255  0.41255  0.00000  0.17491
      15     H     0.42560  0.42560  0.00000  0.14879

   Total alpha = 21.00000, Total beta = 21.00000, Total charge =  0.00000
