  ==> Input File <==

--------------------------------------------------------------------------
set {
	reference rhf
	basis 6-31G*
}

set_num_threads( 4 )
memory 2 gb

molecule MOL {
0 1

O	 0.501689	 0.382464	 -0.980106
C	 1.122059	 0.121804	 -0.000188
C	 0.838326	 0.649498	 1.385066
O	 2.172624	 -0.688929	 0.000216
C	 -0.362007	 1.589354	 1.441732
H	 0.697594	 -0.208524	 2.036791
H	 1.741022	 1.142133	 1.736073
C	 -0.627008	 2.109373	 2.855493
H	 -1.240486	 1.071582	 1.069319
H	 -0.195755	 2.423988	 0.767751
C	 -1.827255	 3.052824	 2.921144
H	 -0.792122	 1.269070	 3.526838
H	 0.257199	 2.625007	 3.224777
H	 -2.734517	 2.555659	 2.590453
H	 -1.993467	 3.406654	 3.933791
H	 -1.677435	 3.921565	 2.286729
C	 3.452279	 -0.082609	 0.000533
H	 3.583069	 0.529321	 -0.880332
H	 4.163299	 -0.894027	 0.001117
H	 3.582335	 0.529955	 0.881077

	symmetry c1
}
set optking {
	frozen_dihedral = ("
		1 2 4 17
	")
}

ee = optimize('scf')
oeprop('DIPOLE', 'QUADRUPOLE', 'MULLIKEN_CHARGES')
f=open( 'psi4out.xyz', 'w' )
f.write( "20  " )
f.write( str(ee) + "\n" )
f.write( MOL.save_string_xyz() )
f.close()
--------------------------------------------------------------------------

    Molecular point group: c1
  Charge       = 0
  Multiplicity = 1
  Basis Set: 6-31G*
  Basis Set:
  @DF-RHF Final Energy:  -383.91851090368743
    Total Energy =                       -383.9185109036874337
    Molecular point group: c1
  Basis Set: 6-31G*
  Basis Set:
  Basis Set: 6-31G*
  Basis Set:
  @DF-RHF Final Energy:  -383.91685029883729
    Total Energy =                       -383.9168502988372893
  Basis Set: 6-31G*
  Basis Set:
  Basis Set: 6-31G*
  Basis Set:
  @DF-RHF Final Energy:  -383.91970605090609
    Total Energy =                       -383.9197060509065409
  Basis Set: 6-31G*
  Basis Set:
  Basis Set: 6-31G*
  Basis Set:
  @DF-RHF Final Energy:  -383.92062028389728
    Total Energy =                       -383.9206202838977333
  Basis Set: 6-31G*
  Basis Set:
  Basis Set: 6-31G*
  Basis Set:
  @DF-RHF Final Energy:  -383.92065280892859
    Total Energy =                       -383.9206528089288213
  Basis Set: 6-31G*
  Basis Set:
  Basis Set: 6-31G*
  Basis Set:
  @DF-RHF Final Energy:  -383.92065853840728
    Total Energy =                       -383.9206585384077925
  Basis Set: 6-31G*
  Basis Set:
  Basis Set: 6-31G*
  Basis Set:
  @DF-RHF Final Energy:  -383.92065979704245
    Total Energy =                       -383.9206597970420489
  Basis Set: 6-31G*
  Basis Set:
  Charge       = 0
  Multiplicity = 1
  Basis Set: 6-31G*
  Basis Set:

    Orbital Energies (a.u.)
    -----------------------

    Doubly Occupied:

       1A    -20.585976     2A    -20.557042     3A    -11.375288
       4A    -11.293002     5A    -11.240739     6A    -11.223312
       7A    -11.222616     8A    -11.212866     9A     -1.458674
      10A     -1.367813    11A     -1.090490    12A     -1.018612
      13A     -0.972724    14A     -0.897309    15A     -0.808211
      16A     -0.766085    17A     -0.696083    18A     -0.678634
      19A     -0.674888    20A     -0.644718    21A     -0.617145
      22A     -0.590099    23A     -0.589801    24A     -0.550379
      25A     -0.538271    26A     -0.514414    27A     -0.493611
      28A     -0.489138    29A     -0.479983    30A     -0.473150
      31A     -0.451858    32A     -0.433871

  @DF-RHF Final Energy:  -383.92066000046322

   => Energetics <=

    Nuclear Repulsion Energy =            381.4358922706298358
    One-Electron Energy =               -1278.6995028155693035
    Two-Electron Energy =                 513.3429505444762526
    DFT Exchange-Correlation Energy =       0.0000000000000000
    Empirical Dispersion Energy =           0.0000000000000000
    PCM Polarization Energy =               0.0000000000000000
    EFP Energy =                            0.0000000000000000
    Total Energy =                       -383.9206600004631582
    Molecular point group: c1
  Basis Set: 6-31G*
  Basis Set:

  -Total Gradient:
     Atom            X                  Y                   Z
    ------   -----------------  -----------------  -----------------
       1       -0.000944234582    -0.001296497768     0.000414004576
       2        0.001345418231     0.002000863930     0.000048058235
       3        0.000005631811    -0.000050279276     0.000013724123
       4       -0.000472360166    -0.000730374874    -0.001798451486
       5        0.000016442910     0.000013620790    -0.000003864844
       6        0.000007281531     0.000003480073     0.000002959682
       7       -0.000003925713     0.000003793200    -0.000017143383
       8       -0.000002930368     0.000004257435    -0.000003575397
       9       -0.000005896105     0.000004483954    -0.000001844170
      10        0.000001042595    -0.000003106672     0.000001595406
      11       -0.000007452484    -0.000004984691     0.000007523023
      12        0.000004914734     0.000001842728     0.000001904038
      13       -0.000001156046     0.000004012089    -0.000002938683
      14       -0.000001339262     0.000001887792    -0.000002059322
      15       -0.000005154233    -0.000000562468     0.000000877541
      16        0.000002828233    -0.000002006212     0.000002572255
      17        0.000036600883     0.000041417303     0.001341822764
      18        0.000006809736     0.000003356963     0.000002265699
      19        0.000011714716     0.000000329345    -0.000003836214
      20        0.000005763574     0.000004466355    -0.000003593840

  **** Optimization is complete! (in 8 steps) ****
    Final optimized geometry and variables:
    Molecular point group: c1

    Geometry (in Angstrom), charge = 0, multiplicity = 1:

    O           -0.186048486494    -0.547522653294    -1.867098773042
    C            0.462066995201    -0.751047941644    -0.900890702122
    C            0.145045413650    -0.216050945645     0.476225552616
    O            1.530887926780    -1.582031451178    -0.935478542595
    C           -1.051063240731     0.730462999362     0.508525747741
    H           -0.021268147967    -1.081590673401     1.113230140004
    H            1.033371252462     0.269665572094     0.871925529456
    C           -1.356367859160     1.236855025198     1.919099199937
    H           -1.919214805092     0.220704710479     0.103614058224
    H           -0.860654835276     1.572057361143    -0.150994269209
    C           -2.556502148648     2.181887449233     1.959082393300
    H           -1.542732769683     0.389910344191     2.576262427290
    H           -0.482726913902     1.747153188259     2.320045569336
    H           -3.454164766336     1.689736084208     1.596548423250
    H           -2.751965331386     2.525306786990     2.970040853801
    H           -2.386697822560     3.056987506145     1.338563937655
    C            2.811282398719    -0.998029173529    -1.030049877124
    H            2.892333164765    -0.398427712014    -1.928963775522
    H            3.516474027245    -1.812928829582    -1.078967670720
    H            3.036130545134    -0.386440909433    -0.163099633010

  Mulliken Charges: (a.u.)
   Center  Symbol    Alpha    Beta     Spin     Total
       1     O     4.25046  4.25046  0.00000 -0.50091
       2     C     2.61357  2.61357  0.00000  0.77285
       3     C     3.21560  3.21560  0.00000 -0.43120
       4     O     4.31506  4.31506  0.00000 -0.63012
       5     C     3.15099  3.15099  0.00000 -0.30198
       6     H     0.39780  0.39780  0.00000  0.20440
       7     H     0.40824  0.40824  0.00000  0.18353
       8     C     3.15424  3.15424  0.00000 -0.30849
       9     H     0.40897  0.40897  0.00000  0.18205
      10     H     0.41377  0.41377  0.00000  0.17247
      11     C     3.23944  3.23944  0.00000 -0.47889
      12     H     0.42221  0.42221  0.00000  0.15559
      13     H     0.42396  0.42396  0.00000  0.15209
      14     H     0.41914  0.41914  0.00000  0.16173
      15     H     0.41839  0.41839  0.00000  0.16322
      16     H     0.42006  0.42006  0.00000  0.15988
      17     C     3.09266  3.09266  0.00000 -0.18531
      18     H     0.41111  0.41111  0.00000  0.17778
      19     H     0.40177  0.40177  0.00000  0.19647
      20     H     0.42257  0.42257  0.00000  0.15485

   Total alpha = 32.00000, Total beta = 32.00000, Total charge =  0.00000
