  ==> Input File <==

--------------------------------------------------------------------------
set {
	reference rhf
	basis 6-31G*
}

set_num_threads( 1 )
memory 2 gb

molecule MOL {
0 1

H	 -2.620122	 -0.815820	 1.611403
C	 -2.621916	 -1.167268	 0.581538
O	 -1.361261	 -1.056449	 0.003778
H	 -2.895515	 -2.213276	 0.569125
H	 -3.368683	 -0.602025	 0.025421
C	 -0.874367	 0.246818	 -0.056876
C	 0.535832	 0.228395	 -0.598362
H	 -1.501366	 0.854650	 -0.710410
H	 -0.873708	 0.706092	 0.929568
O	 1.392611	 -0.295398	 0.366430
H	 0.563395	 -0.370275	 -1.506569
H	 0.833905	 1.245300	 -0.856722
C	 2.706965	 -0.449871	 -0.062409
H	 2.756559	 -0.644779	 -1.131878
H	 3.305899	 0.433456	 0.155466
H	 3.125548	 -1.294566	 0.467107

	symmetry c1
}
set optking {
	frozen_dihedral = ("
		3 6 7 11,
		2 3 6 7
	")
}

ee = energy('scf')
oeprop('DIPOLE', 'QUADRUPOLE', 'MULLIKEN_CHARGES')
f=open( 'psi4out.xyz', 'w' )
f.write( "16  " )
f.write( str(ee) + "\n" )
f.write( MOL.save_string_xyz() )
f.close()
--------------------------------------------------------------------------

    Molecular point group: c1

    Geometry (in Angstrom), charge = 0, multiplicity = 1:

       Center              X                  Y                   Z               Mass
    ------------   -----------------  -----------------  -----------------  -----------------
           H         -2.584373994684    -0.393382108099     1.568800262666     1.007825032070
           C         -2.586167994684    -0.744830108099     0.538935262666    12.000000000000
           O         -1.325512994684    -0.634011108099    -0.038824737334    15.994914619560
           H         -2.859766994684    -1.790838108099     0.526522262666     1.007825032070
           H         -3.332934994684    -0.179587108099    -0.017181737334     1.007825032070
           C         -0.838618994684     0.669255891901    -0.099478737334    12.000000000000
           C          0.571580005316     0.650832891901    -0.640964737334    12.000000000000
           H         -1.465617994684     1.277087891901    -0.753012737334     1.007825032070
           H         -0.837959994684     1.128529891901     0.886965262666     1.007825032070
           O          1.428359005316     0.127039891901     0.323827262666    15.994914619560
           H          0.599143005316     0.052162891901    -1.549171737334     1.007825032070
           H          0.869653005316     1.667737891901    -0.899324737334     1.007825032070
           C          2.742713005316    -0.027433108099    -0.105011737334    12.000000000000
           H          2.792307005316    -0.222341108099    -1.174480737334     1.007825032070
           H          3.341647005316     0.855893891901     0.112863262666     1.007825032070
           H          3.161296005316    -0.872128108099     0.424504262666     1.007825032070

  Charge       = 0
  Multiplicity = 1
  Basis Set: 6-31G*
  Basis Set:

    Orbital Energies (a.u.)
    -----------------------

    Doubly Occupied:

       1A    -20.553550     2A    -20.552223     3A    -11.269171
       4A    -11.268339     5A    -11.263511     6A    -11.262880
       7A     -1.388035     8A     -1.370403     9A     -1.030633
      10A     -0.935778    11A     -0.891997    12A     -0.824614
      13A     -0.683509    14A     -0.679750    15A     -0.657509
      16A     -0.635892    17A     -0.628455    18A     -0.596775
      19A     -0.552739    20A     -0.535476    21A     -0.507757
      22A     -0.477908    23A     -0.463307    24A     -0.418850
      25A     -0.408832

  @DF-RHF Final Energy:  -306.97550730103848

   => Energetics <=

    Nuclear Repulsion Energy =            258.8567256683462006
    One-Electron Energy =                -931.9485915260687534
    Two-Electron Energy =                 366.1163585566839060
    DFT Exchange-Correlation Energy =       0.0000000000000000
    Empirical Dispersion Energy =           0.0000000000000000
    PCM Polarization Energy =               0.0000000000000000
    EFP Energy =                            0.0000000000000000
    Total Energy =                       -306.9755073010385900

  Mulliken Charges: (a.u.)
   Center  Symbol    Alpha    Beta     Spin     Total
       1     H     0.42805  0.42805  0.00000  0.14390
       2     C     3.07949  3.07949  0.00000 -0.15897
       3     O     4.30094  4.30094  0.00000 -0.60188
       4     H     0.41133  0.41133  0.00000  0.17735
       5     H     0.43190  0.43190  0.00000  0.13621
       6     C     2.99354  2.99354  0.00000  0.01292
       7     C     2.99442  2.99442  0.00000  0.01115
       8     H     0.43233  0.43233  0.00000  0.13535
       9     H     0.42269  0.42269  0.00000  0.15461
      10     O     4.30183  4.30183  0.00000 -0.60367
      11     H     0.42177  0.42177  0.00000  0.15647
      12     H     0.43255  0.43255  0.00000  0.13491
      13     C     3.07766  3.07766  0.00000 -0.15532
      14     H     0.43061  0.43061  0.00000  0.13878
      15     H     0.42782  0.42782  0.00000  0.14437
      16     H     0.41308  0.41308  0.00000  0.17384

   Total alpha = 25.00000, Total beta = 25.00000, Total charge =  0.00000
