  ==> Input File <==

--------------------------------------------------------------------------
set {
	reference rhf
	basis cc-pvtz
}

set_num_threads( 4 )
memory 2 gb

molecule MOL {
0 1

H	 1.998918	 2.037377	 -0.560998
O	 1.082214	 1.968020	 -0.369981
C	 0.700177	 0.619554	 -0.266242
C	 -0.713111	 0.588314	 0.266177
H	 1.356355	 0.086877	 0.415381
H	 0.735522	 0.130288	 -1.236163
O	 -1.421673	 -0.521378	 -0.196983
H	 -1.244794	 1.469161	 -0.069059
H	 -0.685100	 0.604721	 1.352683
H	 -0.933408	 -1.297830	 0.014544

	symmetry c1
}
set optking {
	frozen_dihedral = ("
		5 3 4 7
	")
}

ee = optimize('scf')
oeprop('DIPOLE', 'QUADRUPOLE', 'MULLIKEN_CHARGES')
f=open( 'psi4out.xyz', 'w' )
f.write( "10  " )
f.write( str(ee) + "\n" )
f.write( MOL.save_string_xyz() )
f.close()
--------------------------------------------------------------------------

    Molecular point group: c1
  Charge       = 0
  Multiplicity = 1
  Basis Set: CC-PVTZ
  Basis Set:
  @DF-RHF Final Energy:  -229.02127853156040
    Total Energy =                       -229.0212785315603696
    Molecular point group: c1
  Basis Set: CC-PVTZ
  Basis Set:
  Basis Set: CC-PVTZ
  Basis Set:
  @DF-RHF Final Energy:  -229.02221975122703
    Total Energy =                       -229.0222197512269702
  Basis Set: CC-PVTZ
  Basis Set:
  Basis Set: CC-PVTZ
  Basis Set:
  @DF-RHF Final Energy:  -229.02246587305754
    Total Energy =                       -229.0224658730576834
  Basis Set: CC-PVTZ
  Basis Set:
  Basis Set: CC-PVTZ
  Basis Set:
  @DF-RHF Final Energy:  -229.02253168501952
    Total Energy =                       -229.0225316850194872
  Basis Set: CC-PVTZ
  Basis Set:
  Basis Set: CC-PVTZ
  Basis Set:
  @DF-RHF Final Energy:  -229.02253555528762
    Total Energy =                       -229.0225355552875612
  Basis Set: CC-PVTZ
  Basis Set:
  Charge       = 0
  Multiplicity = 1
  Basis Set: CC-PVTZ
  Basis Set:

    Orbital Energies (a.u.)
    -----------------------

    Doubly Occupied:

       1A    -20.553229     2A    -20.552280     3A    -11.270167
       4A    -11.267033     5A     -1.376794     6A     -1.363830
       7A     -0.998091     8A     -0.847077     9A     -0.714580
      10A     -0.704807    11A     -0.634403    12A     -0.606460
      13A     -0.584854    14A     -0.529059    15A     -0.491158
      16A     -0.446532    17A     -0.442484

  @DF-RHF Final Energy:  -229.02253574595207

   => Energetics <=

    Nuclear Repulsion Energy =            131.3340907910126987
    One-Electron Energy =                -573.9475793087067359
    Two-Electron Energy =                 213.5909527717420815
    DFT Exchange-Correlation Energy =       0.0000000000000000
    Empirical Dispersion Energy =           0.0000000000000000
    PCM Polarization Energy =               0.0000000000000000
    EFP Energy =                            0.0000000000000000
    Total Energy =                       -229.0225357459519273
    Molecular point group: c1
  Basis Set: CC-PVTZ
  Basis Set:

  -Total Gradient:
     Atom            X                  Y                   Z
    ------   -----------------  -----------------  -----------------
       1       -0.000004732057    -0.000003558671     0.000002810853
       2        0.000012281917     0.000052872744    -0.000002449881
       3       -0.001396424656    -0.004509607846    -0.004407712793
       4        0.001881939758    -0.001932864782     0.004783593859
       5        0.000764106140     0.004185028097     0.002657687792
       6        0.000002148800    -0.000008187277     0.000000824989
       7       -0.001258782602     0.002210674140    -0.003042547143
       8       -0.000006052511    -0.000014876653    -0.000001601843
       9        0.000003660300     0.000011259405     0.000008956203
      10        0.000001854908     0.000009260844     0.000000437963

  **** Optimization is complete! (in 6 steps) ****
    Final optimized geometry and variables:
    Molecular point group: c1

    Geometry (in Angstrom), charge = 0, multiplicity = 1:

    H            2.051220029540     1.427741146807    -0.391966875211
    O            1.146179587083     1.338567427740    -0.157895452552
    C            0.781909078976    -0.017264190249    -0.133692809442
    C           -0.641786391713    -0.094021386017     0.400626220370
    H            1.466548972517    -0.557133896490     0.516900608050
    H            0.807984010380    -0.452593984273    -1.126411613651
    O           -1.341526517368    -1.200827806911    -0.097849999145
    H           -1.169261097607     0.782185814741     0.052944766399
    H           -0.649358730733    -0.074773605611     1.485481652362
    H           -1.075252472638    -1.986394921333     0.343586976523

  Mulliken Charges: (a.u.)
   Center  Symbol    Alpha    Beta     Spin     Total
       1     H     0.39331  0.39331  0.00000  0.21338
       2     O     4.19907  4.19907  0.00000 -0.39813
       3     C     2.96946  2.96946  0.00000  0.06107
       4     C     2.97489  2.97489  0.00000  0.05021
       5     H     0.47927  0.47927  0.00000  0.04146
       6     H     0.46913  0.46913  0.00000  0.06174
       7     O     4.19992  4.19992  0.00000 -0.39985
       8     H     0.45197  0.45197  0.00000  0.09607
       9     H     0.46778  0.46778  0.00000  0.06444
      10     H     0.39520  0.39520  0.00000  0.20961

   Total alpha = 17.00000, Total beta = 17.00000, Total charge =  0.00000
