  ==> Input File <==

--------------------------------------------------------------------------
set {
	reference rhf
	basis cc-pvtz
}

set_num_threads( 4 )
memory 2 gb

molecule MOL {
0 1

H	 1.900947	 -1.250879	 -0.908448
C	 1.017805	 -1.885527	 -1.059891
C	 -0.289308	 -1.148430	 -1.154460
O	 1.138623	 -3.059295	 -1.132728
C	 -0.554654	 -0.292621	 0.086567
H	 -1.079673	 -1.870541	 -1.311674
H	 -0.238182	 -0.506375	 -2.031403
C	 -1.846385	 0.513195	 -0.016346
H	 -0.599193	 -0.935817	 0.960783
H	 0.279824	 0.385705	 0.245286
C	 -3.089953	 -0.365049	 -0.098564
H	 -1.798267	 1.154820	 -0.891143
H	 -1.925398	 1.173265	 0.842889
H	 -3.055079	 -1.012299	 -0.968245
H	 -3.988403	 0.236438	 -0.170014
H	 -3.183055	 -0.995885	 0.779079

	symmetry c1
}
set optking {
	frozen_dihedral = ("
		9 5 8 12
	")
}

ee = optimize('scf')
oeprop('DIPOLE', 'QUADRUPOLE', 'MULLIKEN_CHARGES')
f=open( 'psi4out.xyz', 'w' )
f.write( "16  " )
f.write( str(ee) + "\n" )
f.write( MOL.save_string_xyz() )
f.close()
--------------------------------------------------------------------------

    Molecular point group: c1
  Charge       = 0
  Multiplicity = 1
  Basis Set: CC-PVTZ
  Basis Set:
  @DF-RHF Final Energy:  -270.11714972458174
    Total Energy =                       -270.1171497245815090
    Molecular point group: c1
  Basis Set: CC-PVTZ
  Basis Set:
  Basis Set: CC-PVTZ
  Basis Set:
  @DF-RHF Final Energy:  -270.11745789817610
    Total Energy =                       -270.1174578981758714
  Basis Set: CC-PVTZ
  Basis Set:
  Basis Set: CC-PVTZ
  Basis Set:
  @DF-RHF Final Energy:  -270.11770719655618
    Total Energy =                       -270.1177071965560685
  Basis Set: CC-PVTZ
  Basis Set:
  Basis Set: CC-PVTZ
  Basis Set:
  @DF-RHF Final Energy:  -270.11756269748543
    Total Energy =                       -270.1175626974852548
  Basis Set: CC-PVTZ
  Basis Set:
  Basis Set: CC-PVTZ
  Basis Set:
  @DF-RHF Final Energy:  -270.11771522162093
    Total Energy =                       -270.1177152216210970
  Basis Set: CC-PVTZ
  Basis Set:
  Basis Set: CC-PVTZ
  Basis Set:
  @DF-RHF Final Energy:  -270.11771884431721
    Total Energy =                       -270.1177188443173236
  Basis Set: CC-PVTZ
  Basis Set:
  Charge       = 0
  Multiplicity = 1
  Basis Set: CC-PVTZ
  Basis Set:

    Orbital Energies (a.u.)
    -----------------------

    Doubly Occupied:

       1A    -20.552209     2A    -11.321302     3A    -11.234882
       4A    -11.233632     5A    -11.227785     6A    -11.215944
       7A     -1.406970     8A     -1.097500     9A     -1.016734
      10A     -0.913396    11A     -0.810721    12A     -0.790590
      13A     -0.681468    14A     -0.647929    15A     -0.629359
      16A     -0.608705    17A     -0.581754    18A     -0.553301
      19A     -0.540663    20A     -0.507410    21A     -0.487987
      22A     -0.481183    23A     -0.474575    24A     -0.412183

  @DF-RHF Final Energy:  -270.11771980744885

   => Energetics <=

    Nuclear Repulsion Energy =            232.3009907641963991
    One-Electron Energy =                -825.9810529603067835
    Two-Electron Energy =                 323.5623423886613637
    DFT Exchange-Correlation Energy =       0.0000000000000000
    Empirical Dispersion Energy =           0.0000000000000000
    PCM Polarization Energy =               0.0000000000000000
    EFP Energy =                            0.0000000000000000
    Total Energy =                       -270.1177198074490207
    Molecular point group: c1
  Basis Set: CC-PVTZ
  Basis Set:

  -Total Gradient:
     Atom            X                  Y                   Z
    ------   -----------------  -----------------  -----------------
       1        0.000007416387    -0.000000020446    -0.000004122699
       2       -0.000007006412    -0.000010707336     0.000022042913
       3       -0.000028250336    -0.000060165843     0.000045475154
       4        0.000005574925     0.000003392477    -0.000025595715
       5        0.000059839593     0.000130737305     0.000003586984
       6        0.000023414045    -0.000020007426    -0.000039297857
       7        0.000003077577    -0.000001085885     0.000022944754
       8        0.000029745321     0.000086406150     0.000117408564
       9       -0.000051991381    -0.000078324591    -0.000101755878
      10       -0.000010160103     0.000036005867     0.000043866233
      11        0.000005092942    -0.000015906154    -0.000039852938
      12       -0.000045740895    -0.000117547364    -0.000053254737
      13        0.000012876749     0.000029240201     0.000005017457
      14       -0.000040013351    -0.000004991604    -0.000004310511
      15        0.000012395449     0.000007607755     0.000014254065
      16        0.000023729493     0.000015366896    -0.000006405789

  **** Optimization is complete! (in 7 steps) ****
    Final optimized geometry and variables:
    Molecular point group: c1

    Geometry (in Angstrom), charge = 0, multiplicity = 1:

    H            2.514625244417    -0.130602612001    -0.360710069344
    C            1.661462709223    -0.808375549598    -0.496214830612
    C            0.320458662953    -0.135061094777    -0.598095001208
    O            1.836487021358    -1.976366175221    -0.548111457976
    C            0.025378644694     0.721033309695     0.638006604515
    H           -0.428569281282    -0.898413295361    -0.752211911241
    H            0.343493019322     0.502841286364    -1.479594011294
    C           -1.255553814168     1.549697529301     0.533850593796
    H           -0.031687919187     0.076511482838     1.510594433792
    H            0.860711678357     1.394614350016     0.807223798295
    C           -2.539716520596     0.727058495834     0.471814767901
    H           -1.194752049742     2.192865803338    -0.339784671064
    H           -1.303161424524     2.209277949041     1.394199141062
    H           -2.587889142533     0.115131653864    -0.420808917594
    H           -3.408258312177     1.374977437674     0.468872260967
    H           -2.621837280689     0.068335817442     1.329985719663

  Mulliken Charges: (a.u.)
   Center  Symbol    Alpha    Beta     Spin     Total
       1     H     0.46395  0.46395  0.00000  0.07211
       2     C     2.91014  2.91014  0.00000  0.17973
       3     C     3.08051  3.08051  0.00000 -0.16103
       4     O     4.16338  4.16338  0.00000 -0.32676
       5     C     3.10849  3.10849  0.00000 -0.21699
       6     H     0.44210  0.44210  0.00000  0.11581
       7     H     0.44958  0.44958  0.00000  0.10084
       8     C     3.09063  3.09063  0.00000 -0.18126
       9     H     0.44494  0.44494  0.00000  0.11013
      10     H     0.44631  0.44631  0.00000  0.10737
      11     C     3.15095  3.15095  0.00000 -0.30189
      12     H     0.45338  0.45338  0.00000  0.09324
      13     H     0.44589  0.44589  0.00000  0.10823
      14     H     0.45212  0.45212  0.00000  0.09576
      15     H     0.44502  0.44502  0.00000  0.10995
      16     H     0.45262  0.45262  0.00000  0.09477

   Total alpha = 24.00000, Total beta = 24.00000, Total charge = -0.00000
