  ==> Input File <==

--------------------------------------------------------------------------
set {
	reference rhf
	basis cc-pvtz
}

set_num_threads( 4 )
memory 2 gb

molecule MOL {
0 1

H	 1.166964	 -1.062386	 0.758429
O	 1.324748	 -0.612467	 -0.052206
C	 0.706474	 0.636793	 -0.025501
C	 -0.336922	 0.841478	 -1.087132
H	 1.493200	 1.371128	 -0.152444
H	 0.259109	 0.827357	 0.948281
C	 -0.618064	 0.004189	 -2.060894
H	 -0.879715	 1.769216	 -1.010142
H	 -0.088075	 -0.921386	 -2.180872
H	 -1.383105	 0.227088	 -2.779982

	symmetry c1
}
set optking {
	frozen_dihedral = ("
		5 3 2 1
	")
}

ee = optimize('scf')
oeprop('DIPOLE', 'QUADRUPOLE', 'MULLIKEN_CHARGES')
f=open( 'psi4out.xyz', 'w' )
f.write( "10  " )
f.write( str(ee) + "\n" )
f.write( MOL.save_string_xyz() )
f.close()
--------------------------------------------------------------------------

    Molecular point group: c1
  Charge       = 0
  Multiplicity = 1
  Basis Set: CC-PVTZ
  Basis Set:
  @DF-RHF Final Energy:  -191.99614843671415
    Total Energy =                       -191.9961484367141509
    Molecular point group: c1
  Basis Set: CC-PVTZ
  Basis Set:
  Basis Set: CC-PVTZ
  Basis Set:
  @DF-RHF Final Energy:  -191.99676763458365
    Total Energy =                       -191.9967676345837617
  Basis Set: CC-PVTZ
  Basis Set:
  Basis Set: CC-PVTZ
  Basis Set:
  @DF-RHF Final Energy:  -191.99689419357455
    Total Energy =                       -191.9968941935744908
  Basis Set: CC-PVTZ
  Basis Set:
  Basis Set: CC-PVTZ
  Basis Set:
  @DF-RHF Final Energy:  -191.99689808739359
    Total Energy =                       -191.9968980873935038
  Basis Set: CC-PVTZ
  Basis Set:
  Charge       = 0
  Multiplicity = 1
  Basis Set: CC-PVTZ
  Basis Set:

    Orbital Energies (a.u.)
    -----------------------

    Doubly Occupied:

       1A    -20.553350     2A    -11.278540     3A    -11.223966
       4A    -11.208975     5A     -1.373155     6A     -1.058498
       7A     -0.927905     8A     -0.760872     9A     -0.707962
      10A     -0.653688    11A     -0.615323    12A     -0.581742
      13A     -0.512711    14A     -0.508354    15A     -0.451030
      16A     -0.362093

  @DF-RHF Final Energy:  -191.99689868078954

   => Energetics <=

    Nuclear Repulsion Energy =            119.4220522691222470
    One-Electron Energy =                -497.2815762225704930
    Two-Electron Energy =                 185.8626252726587609
    DFT Exchange-Correlation Energy =       0.0000000000000000
    Empirical Dispersion Energy =           0.0000000000000000
    PCM Polarization Energy =               0.0000000000000000
    EFP Energy =                            0.0000000000000000
    Total Energy =                       -191.9968986807895135
    Molecular point group: c1
  Basis Set: CC-PVTZ
  Basis Set:

  -Total Gradient:
     Atom            X                  Y                   Z
    ------   -----------------  -----------------  -----------------
       1        0.000479617765     0.000233428771     0.000274552052
       2       -0.000583884804    -0.000278604681    -0.000204928936
       3        0.000021321340     0.000054379520    -0.000567412176
       4        0.000023490402     0.000027320991     0.000009383768
       5        0.000050837280    -0.000009893050     0.000495368101
       6        0.000004380294    -0.000015162615    -0.000011836237
       7        0.000041900993     0.000013117517    -0.000024101719
       8       -0.000009117540    -0.000000603656     0.000004944722
       9       -0.000013915873    -0.000015972549     0.000006000444
      10       -0.000014629856    -0.000008010247     0.000018029980

  **** Optimization is complete! (in 5 steps) ****
    Final optimized geometry and variables:
    Molecular point group: c1

    Geometry (in Angstrom), charge = 0, multiplicity = 1:

    H            0.858989284962    -1.281594841242     1.419830452109
    O            1.018429710673    -0.770301084771     0.650380551132
    C            0.370164043599     0.466043783469     0.740749133733
    C           -0.645555899455     0.672446803104    -0.344514614678
    H            1.114684469436     1.255012619688     0.683474448129
    H           -0.119755757692     0.578200943339     1.704812583912
    C           -0.959451415105    -0.200220857973    -1.274899830144
    H           -1.130777744265     1.634580515108    -0.325693542845
    H           -0.485534941091    -1.160930512463    -1.322272425981
    H           -1.697756597414     0.028151567073    -2.020045501890

  Mulliken Charges: (a.u.)
   Center  Symbol    Alpha    Beta     Spin     Total
       1     H     0.38963  0.38963  0.00000  0.22074
       2     O     4.19899  4.19899  0.00000 -0.39797
       3     C     2.94731  2.94731  0.00000  0.10538
       4     C     3.07949  3.07949  0.00000 -0.15898
       5     H     0.46334  0.46334  0.00000  0.07331
       6     H     0.47235  0.47235  0.00000  0.05530
       7     C     3.17453  3.17453  0.00000 -0.34906
       8     H     0.42422  0.42422  0.00000  0.15155
       9     H     0.42046  0.42046  0.00000  0.15908
      10     H     0.42967  0.42967  0.00000  0.14066

   Total alpha = 16.00000, Total beta = 16.00000, Total charge =  0.00000
