                              Psi4 1.0.54 Driver

  ==> Input File <==

--------------------------------------------------------------------------
set {
	reference rhf
	basis cc-pvtz
}

set_num_threads( 4 )
memory 2 gb

molecule MOL {
0 1

H	 -3.436473	 1.252944	 -1.023892
O	 -3.458596	 0.315260	 -0.960865
C	 -3.176635	 -0.080824	 0.355601
C	 -1.763371	 0.265266	 0.799691
H	 -3.321825	 -1.153438	 0.379502
H	 -3.895468	 0.357385	 1.043382
C	 -0.673390	 -0.426948	 -0.013392
H	 -1.631049	 1.344913	 0.747560
H	 -1.664587	 -0.001624	 1.849167
C	 0.737842	 -0.043159	 0.423759
H	 -0.806103	 -0.190518	 -1.063345
H	 -0.797221	 -1.503753	 0.074146
C	 1.824000	 -0.743224	 -0.390623
H	 0.850588	 1.033777	 0.343840
H	 0.868587	 -0.286314	 1.476203
C	 3.255957	 -0.453067	 0.062319
H	 1.718250	 -0.470599	 -1.438164
H	 1.658105	 -1.815850	 -0.339904
C	 3.872903	 -1.526748	 0.955477
H	 3.261023	 0.490308	 0.599714
H	 3.885495	 -0.306254	 -0.811494
H	 3.261284	 -1.699502	 1.835338
H	 4.858153	 -1.226148	 1.293360
H	 3.981710	 -2.472142	 0.437794

	symmetry c1
}
set optking {
	frozen_dihedral = ("
		20 16 13 17
	")
}

ee,wfn = optimize('scf', return_wfn=True)
oeprop( wfn, 'DIPOLE', 'QUADRUPOLE', 'MULLIKEN_CHARGES')
f=open( 'psi4out.xyz', 'w' )
f.write( "24  " )
f.write( str(ee) + "\n" )
f.write( MOL.save_string_xyz() )
f.close()
--------------------------------------------------------------------------

    Molecular point group: c1
  Charge       = 0
  Multiplicity = 1
  Basis Set: CC-PVTZ
  Basis Set:
  @DF-RHF Final Energy:  -349.37746510036891
    Total Energy =                       -349.3774651003692497
    Molecular point group: c1
  Basis Set: CC-PVTZ
  Basis Set:
  Basis Set: CC-PVTZ
  Basis Set:
  @DF-RHF Final Energy:  -349.37782696808097
    Total Energy =                       -349.3778269680811945
  Basis Set: CC-PVTZ
  Basis Set:
  Basis Set: CC-PVTZ
  Basis Set:
  @DF-RHF Final Energy:  -349.37786094455765
    Total Energy =                       -349.3778609445576535
  Basis Set: CC-PVTZ
  Basis Set:
  Basis Set: CC-PVTZ
  Basis Set:
  @DF-RHF Final Energy:  -349.37786199336961
    Total Energy =                       -349.3778619933695495
  Basis Set: CC-PVTZ
  Basis Set:
  Basis Set: CC-PVTZ
  Basis Set:
  @DF-RHF Final Energy:  -349.37786462823482
    Total Energy =                       -349.3778646282345903
  Basis Set: CC-PVTZ
  Basis Set:
  Charge       = 0
  Multiplicity = 1
  Basis Set: CC-PVTZ
  Basis Set:

    Orbital Energies (a.u.)
    -----------------------

    Doubly Occupied:

       1A    -20.546358     2A    -11.265614     3A    -11.215350
       4A    -11.211632     5A    -11.211160     6A    -11.209082
       7A    -11.208936     8A    -11.205604     9A     -1.364221
      10A     -1.089426    11A     -1.049126    12A     -0.987903
      13A     -0.914663    14A     -0.846453    15A     -0.800104
      16A     -0.784706    17A     -0.681787    18A     -0.655079
      19A     -0.626356    20A     -0.618176    21A     -0.599360
      22A     -0.585585    23A     -0.558413    24A     -0.537573
      25A     -0.520483    26A     -0.512548    27A     -0.494264
      28A     -0.472613    29A     -0.468017    30A     -0.461184
      31A     -0.457370    32A     -0.451559    33A     -0.420852

  @DF-RHF Final Energy:  -349.37786464090561

   => Energetics <=

    Nuclear Repulsion Energy =            383.1558941164233829
    One-Electron Energy =               -1233.0044043882148799
    Two-Electron Energy =                 500.4706456308858264
    DFT Exchange-Correlation Energy =       0.0000000000000000
    Empirical Dispersion Energy =           0.0000000000000000
    PCM Polarization Energy =               0.0000000000000000
    EFP Energy =                            0.0000000000000000
    Total Energy =                       -349.3778646409056705
    Molecular point group: c1
  Basis Set: CC-PVTZ
  Basis Set:

  -Total Gradient:
     Atom            X                  Y                   Z
    ------   -----------------  -----------------  -----------------
       1        0.000000278273     0.000000552064     0.000000282359
       2        0.000000638355    -0.000000388508     0.000000156266
       3        0.000000425421    -0.000001876655     0.000000711771
       4        0.000002947701     0.000000741022    -0.000000304698
       5        0.000000157239    -0.000000212895    -0.000000257326
       6        0.000000529476     0.000000992664    -0.000000815132
       7       -0.000002622077     0.000000212013    -0.000001318519
       8       -0.000000757031     0.000000083671     0.000000393314
       9       -0.000000709303     0.000000491170     0.000000519509
      10       -0.000001789101    -0.000001065251    -0.000001244200
      11        0.000001056227     0.000000357938    -0.000000700425
      12        0.000000760135     0.000000320039    -0.000000130089
      13       -0.001269493491     0.003290954862     0.001775342846
      14        0.000002430502    -0.000000510484     0.000000938313
      15       -0.000002357407    -0.000002021558    -0.000000426239
      16        0.000894779326     0.001266598392    -0.003595082207
      17        0.000917889242    -0.002959630650    -0.000907225792
      18       -0.000007098211     0.000002363620     0.000000526512
      19       -0.000006988072     0.000009979232     0.000001464030
      20       -0.000530902148    -0.001616173436     0.002732142138
      21        0.000002271025     0.000001161580    -0.000003146558
      22       -0.000005032463    -0.000003895308     0.000003249759
      23       -0.000002330819     0.000004789850     0.000000349722
      24        0.000005917200     0.000006176627    -0.000005425357

  **** Optimization is complete! (in 6 steps) ****
    Final optimized geometry and variables:
    Molecular point group: c1

    Geometry (in Angstrom), charge = 0, multiplicity = 1:

    H           -3.462883437271     1.602014003605    -1.094567210482
    O           -3.488717935204     0.663511270227    -1.047356889259
    C           -3.188876963832     0.243591564546     0.257611076201
    C           -1.767153486832     0.574941249752     0.685711167823
    H           -3.339343541646    -0.828538740591     0.265101399863
    H           -3.894883381140     0.673362872101     0.963761314627
    C           -0.693366015446    -0.106542084106    -0.157505601116
    H           -1.630438188601     1.654751670892     0.651818093874
    H           -1.653153847107     0.287833517062     1.728286265260
    C            0.725798576137     0.260364427392     0.265619052765
    H           -0.840225606937     0.151558504698    -1.200492643862
    H           -0.821735526138    -1.184243798954    -0.089636895763
    C            1.802775033341    -0.414924829121    -0.579043532241
    H            0.851779053958     1.338749456954     0.204926948161
    H            0.870474500210    -0.002695824140     1.311222907165
    C            3.238340908846    -0.112346554986    -0.116203798902
    H            1.681191861372    -0.133788754383    -1.620546213079
    H            1.644373495370    -1.490369693584    -0.557415887503
    C            3.822503002155    -1.201015884602     0.782450668215
    H            3.248549567731     0.821881516058     0.437401892773
    H            3.887253551265     0.023273221965    -0.973933441338
    H            3.198948512534    -1.367228558636     1.654909948277
    H            4.813036708646    -0.932713010530     1.132511816937
    H            3.902385905146    -2.143497595612     0.251385690334

  Mulliken Charges: (a.u.)
   Center  Symbol    Alpha    Beta     Spin     Total
       1     H     0.39531  0.39531  0.00000  0.20937
       2     O     4.20368  4.20368  0.00000 -0.40737
       3     C     2.97765  2.97765  0.00000  0.04470
       4     C     3.10206  3.10206  0.00000 -0.20411
       5     H     0.45887  0.45887  0.00000  0.08226
       6     H     0.46026  0.46026  0.00000  0.07947
       7     C     3.08849  3.08849  0.00000 -0.17697
       8     H     0.45909  0.45909  0.00000  0.08181
       9     H     0.45338  0.45338  0.00000  0.09325
      10     C     3.08927  3.08927  0.00000 -0.17854
      11     H     0.44632  0.44632  0.00000  0.10737
      12     H     0.45485  0.45485  0.00000  0.09030
      13     C     3.09503  3.09503  0.00000 -0.19007
      14     H     0.45451  0.45451  0.00000  0.09099
      15     H     0.45542  0.45542  0.00000  0.08917
      16     C     3.09090  3.09090  0.00000 -0.18181
      17     H     0.44745  0.44745  0.00000  0.10510
      18     H     0.45612  0.45612  0.00000  0.08777
      19     C     3.14751  3.14751  0.00000 -0.29502
      20     H     0.45602  0.45602  0.00000  0.08796
      21     H     0.44771  0.44771  0.00000  0.10458
      22     H     0.45569  0.45569  0.00000  0.08863
      23     H     0.44938  0.44938  0.00000  0.10124
      24     H     0.45504  0.45504  0.00000  0.08993

   Total alpha = 33.00000, Total beta = 33.00000, Total charge =  0.00000

*** Psi4 exiting successfully. Buy a developer a beer!
