  ==> Input File <==

--------------------------------------------------------------------------
set {
	reference rhf
	basis 6-31G*
}

set_num_threads( 4 )
memory 2 gb

molecule MOL {
0 1

O	 -1.487788	 1.240889	 -0.102860
C	 -1.083277	 0.139568	 0.115197
C	 0.323299	 -0.082943	 0.642902
C	 -1.933017	 -1.084621	 -0.143902
C	 1.355627	 -0.005344	 -0.493127
H	 0.396251	 -1.044647	 1.143147
H	 0.528637	 0.693580	 1.371677
C	 0.882117	 -0.718067	 -1.758458
H	 1.569636	 1.035834	 -0.724257
H	 2.284776	 -0.445201	 -0.146214
H	 1.629716	 -0.654313	 -2.542499
H	 -0.035558	 -0.278449	 -2.138501
H	 0.691657	 -1.769618	 -1.566070
H	 -1.393885	 -1.806447	 -0.750509
H	 -2.850323	 -0.799888	 -0.640100
H	 -2.169004	 -1.571158	 0.798858

	symmetry c1
}
set optking {
	frozen_dihedral = ("
		9 5 3 2
	")
}

ee = optimize('scf')
oeprop('DIPOLE', 'QUADRUPOLE', 'MULLIKEN_CHARGES')
f=open( 'psi4out.xyz', 'w' )
f.write( "16  " )
f.write( str(ee) + "\n" )
f.write( MOL.save_string_xyz() )
f.close()
--------------------------------------------------------------------------

    Molecular point group: c1
  Charge       = 0
  Multiplicity = 1
  Basis Set: 6-31G*
  Basis Set:
  @DF-RHF Final Energy:  -270.02457651380109
    Total Energy =                       -270.0245765138012075
    Molecular point group: c1
  Basis Set: 6-31G*
  Basis Set:
  Basis Set: 6-31G*
  Basis Set:
  @DF-RHF Final Energy:  -270.02676003398335
    Total Energy =                       -270.0267600339831233
  Basis Set: 6-31G*
  Basis Set:
  Basis Set: 6-31G*
  Basis Set:
  @DF-RHF Final Energy:  -270.02635721469051
    Total Energy =                       -270.0263572146906199
  Basis Set: 6-31G*
  Basis Set:
  Basis Set: 6-31G*
  Basis Set:
  @DF-RHF Final Energy:  -270.02720548928789
    Total Energy =                       -270.0272054892879510
  Basis Set: 6-31G*
  Basis Set:
  @DF-RHF Final Energy:  -270.02736611202249
    Total Energy =                       -270.0273661120226052
  @DF-RHF Final Energy:  -270.02754439454020
    Total Energy =                       -270.0275443945400866
  @DF-RHF Final Energy:  -270.02767149969361
    Total Energy =                       -270.0276714996936676
  @DF-RHF Final Energy:  -270.02778856565891
    Total Energy =                       -270.0277885656587387
  @DF-RHF Final Energy:  -270.02790216830186
    Total Energy =                       -270.0279021683019778
  @DF-RHF Final Energy:  -270.02481067309384
    Total Energy =                       -270.0248106730937252
  @DF-RHF Final Energy:  -270.02782634510589
    Total Energy =                       -270.0278263451059502
  @DF-RHF Final Energy:  -270.02796225143317
    Total Energy =                       -270.0279622514329958
  @DF-RHF Final Energy:  -270.02808425001524
    Total Energy =                       -270.0280842500151834
  @DF-RHF Final Energy:  -270.02833986007937
    Total Energy =                       -270.0283398600792566
  @DF-RHF Final Energy:  -270.02842943142741
    Total Energy =                       -270.0284294314275257
  @DF-RHF Final Energy:  -270.02845669839400
    Total Energy =                       -270.0284566983938248
  @DF-RHF Final Energy:  -270.02846476356513
    Total Energy =                       -270.0284647635651822
  @DF-RHF Final Energy:  -270.02847273693942
    Total Energy =                       -270.0284727369393636
  @DF-RHF Final Energy:  -270.02847516135466
    Total Energy =                       -270.0284751613544358
  @DF-RHF Final Energy:  -270.02842576809439
    Total Energy =                       -270.0284257680941096
  @DF-RHF Final Energy:  -270.02807092400457
    Total Energy =                       -270.0280709240046235
  @DF-RHF Final Energy:  -270.02845511245613
    Total Energy =                       -270.0284551124559584
  @DF-RHF Final Energy:  -270.02848016158805
    Total Energy =                       -270.0284801615882770
  @DF-RHF Final Energy:  -270.02848448244913
    Total Energy =                       -270.0284844824491302
  @DF-RHF Final Energy:  -270.02848071191022
    Total Energy =                       -270.0284807119102197
  @DF-RHF Final Energy:  -270.02848566252214
    Total Energy =                       -270.0284856625218595
  @DF-RHF Final Energy:  -270.02849360501386
    Total Energy =                       -270.0284936050138072
  @DF-RHF Final Energy:  -270.02849810950636
    Total Energy =                       -270.0284981095062449
  @DF-RHF Final Energy:  -270.02850001866148
    Total Energy =                       -270.0285000186616458
  Basis Set: 6-31G*
  Basis Set:
  @DF-RHF Final Energy:  -270.02850109329700
    Total Energy =                       -270.0285010932967111
  Basis Set: 6-31G*
  Basis Set:
  Basis Set: 6-31G*
  Basis Set:
  @DF-RHF Final Energy:  -270.02850014161135
    Total Energy =                       -270.0285001416114596
  Basis Set: 6-31G*
  Basis Set:
  Basis Set: 6-31G*
  Basis Set:
  @DF-RHF Final Energy:  -270.02850120579308
    Total Energy =                       -270.0285012057931908
  Basis Set: 6-31G*
  Basis Set:
  Charge       = 0
  Multiplicity = 1
  Basis Set: 6-31G*
  Basis Set:

    Orbital Energies (a.u.)
    -----------------------

    Doubly Occupied:

       1A    -20.549809     2A    -11.327035     3A    -11.233060
       4A    -11.228856     5A    -11.223827     6A    -11.206110
       7A     -1.395700     8A     -1.074528     9A     -1.014646
      10A     -0.945429    11A     -0.828951    12A     -0.725203
      13A     -0.659759    14A     -0.637923    15A     -0.622906
      16A     -0.598259    17A     -0.581331    18A     -0.550228
      19A     -0.545644    20A     -0.502730    21A     -0.488149
      22A     -0.477986    23A     -0.475248    24A     -0.398613

  @DF-RHF Final Energy:  -270.02850098334113

   => Energetics <=

    Nuclear Repulsion Energy =            241.8005558467315552
    One-Electron Energy =                -845.0742516024884026
    Two-Electron Energy =                 333.2451947724157435
    DFT Exchange-Correlation Energy =       0.0000000000000000
    Empirical Dispersion Energy =           0.0000000000000000
    PCM Polarization Energy =               0.0000000000000000
    EFP Energy =                            0.0000000000000000
    Total Energy =                       -270.0285009833411323
    Molecular point group: c1
  Basis Set: 6-31G*
  Basis Set:

  -Total Gradient:
     Atom            X                  Y                   Z
    ------   -----------------  -----------------  -----------------
       1       -0.000030130675    -0.000037891655     0.000128297761
       2        0.000075780369    -0.004125381818    -0.001889733100
       3        0.000390510032     0.005431184721     0.003067605025
       4       -0.000040981123    -0.000039803258     0.000009172522
       5       -0.003979771329    -0.000803850762    -0.005801991950
       6        0.000124728899     0.000167775013     0.000397110480
       7        0.000074155683     0.000156972888    -0.000104572957
       8       -0.000163576916     0.000176995215    -0.000073457051
       9        0.003588549876    -0.000675604526     0.004512204027
      10       -0.000029602014    -0.000311735726    -0.000224546349
      11       -0.000059392986     0.000043646388    -0.000024803422
      12        0.000012707294     0.000000801514     0.000005030779
      13        0.000025703133    -0.000016777438     0.000011099772
      14        0.000003060384     0.000015227177     0.000013894464
      15        0.000001335555     0.000002172042    -0.000006750689
      16        0.000006923818     0.000016270224    -0.000018559312

  **** Optimization is complete! (in 33 steps) ****
    Final optimized geometry and variables:
    Molecular point group: c1

    Geometry (in Angstrom), charge = 0, multiplicity = 1:

    O           -1.072735115312     0.917659412941    -0.499959039598
    C           -0.846538715669     0.075427884520     0.314485789833
    C            0.542928149188    -0.144323594366     0.888770026983
    C           -1.947566327900    -0.807395304117     0.861767489456
    C            1.720947536107     0.238766182411    -0.018631717396
    H            0.629321196765    -1.187212916800     1.185022464984
    H            0.589181663285     0.427141406048     1.814641146497
    C            1.630371495258    -0.257545525156    -1.460908324207
    H            1.878413085174     1.311481928242     0.018655837840
    H            2.611126520222    -0.190150759283     0.436458249188
    H            2.556471082130    -0.048926053149    -1.987087280784
    H            0.822868045693     0.218924625367    -1.998786843977
    H            1.473662614377    -1.333520041383    -1.492593995273
    H           -1.798779668262    -1.829329456726     0.523493882789
    H           -2.908643956369    -0.452929746370     0.516184515087
    H           -1.927739791096    -0.821950401190     1.947475863815

  Mulliken Charges: (a.u.)
   Center  Symbol    Alpha    Beta     Spin     Total
       1     O     4.26341  4.26341  0.00000 -0.52682
       2     C     2.73383  2.73383  0.00000  0.53234
       3     C     3.21049  3.21049  0.00000 -0.42098
       4     C     3.28872  3.28872  0.00000 -0.57743
       5     C     3.14603  3.14603  0.00000 -0.29205
       6     H     0.41475  0.41475  0.00000  0.17051
       7     H     0.40241  0.40241  0.00000  0.19517
       8     C     3.24921  3.24921  0.00000 -0.49841
       9     H     0.41209  0.41209  0.00000  0.17582
      10     H     0.42064  0.42064  0.00000  0.15871
      11     H     0.41913  0.41913  0.00000  0.16173
      12     H     0.39910  0.39910  0.00000  0.20180
      13     H     0.42700  0.42700  0.00000  0.14599
      14     H     0.40660  0.40660  0.00000  0.18679
      15     H     0.39686  0.39686  0.00000  0.20629
      16     H     0.40974  0.40974  0.00000  0.18053

   Total alpha = 24.00000, Total beta = 24.00000, Total charge = -0.00000
