  ==> Input File <==

--------------------------------------------------------------------------
set {
	reference rhf
	basis 6-31G*
}

set_num_threads( 1 )
memory 2 gb

molecule MOL {
0 1

H	 -0.639012	 4.415861	 1.078611
O	 0.042451	 3.813811	 0.815842
C	 -0.472249	 2.507760	 0.772192
C	 0.645275	 1.571400	 0.347789
H	 -0.854422	 2.213759	 1.748826
H	 -1.299266	 2.445262	 0.066163
C	 0.198102	 0.111031	 0.262842
H	 1.463087	 1.671981	 1.056164
H	 1.023382	 1.904523	 -0.614781
C	 1.331804	 -0.827780	 -0.158768
H	 -0.199092	 -0.197731	 1.226728
H	 -0.621287	 0.022526	 -0.449398
C	 2.723619	 -0.410569	 0.329459
H	 1.342964	 -0.912588	 -1.244120
H	 1.116806	 -1.824343	 0.220779
C	 3.243875	 0.895854	 -0.272975
H	 3.424222	 -1.207124	 0.091250
H	 2.714788	 -0.329854	 1.414619
H	 3.251977	 0.848779	 -1.358681
H	 2.637085	 1.747371	 0.016682
H	 4.259473	 1.094070	 0.055697

	symmetry c1
}
set optking {
	frozen_dihedral = ("
		2 3 4 8,
		8 4 7 10,
		16 13 10 14,
		1 2 3 5
	")
}

ee = energy('scf')
oeprop('DIPOLE', 'QUADRUPOLE', 'MULLIKEN_CHARGES')
f=open( 'psi4out.xyz', 'w' )
f.write( "21  " )
f.write( str(ee) + "\n" )
f.write( MOL.save_string_xyz() )
f.close()
--------------------------------------------------------------------------

    Molecular point group: c1

    Geometry (in Angstrom), charge = 0, multiplicity = 1:

       Center              X                  Y                   Z               Mass
    ------------   -----------------  -----------------  -----------------  -----------------
           H         -1.721067516652     3.248825999411     0.767652810899     1.007825032070
           O         -1.039604516652     2.646775999411     0.504883810899    15.994914619560
           C         -1.554304516652     1.340724999411     0.461233810899    12.000000000000
           C         -0.436780516652     0.404364999411     0.036830810899    12.000000000000
           H         -1.936477516652     1.046723999411     1.437867810899     1.007825032070
           H         -2.381321516652     1.278226999411    -0.244795189101     1.007825032070
           C         -0.883953516652    -1.056004000589    -0.048116189101    12.000000000000
           H          0.381031483348     0.504945999411     0.745205810899     1.007825032070
           H         -0.058673516652     0.737487999411    -0.925739189101     1.007825032070
           C          0.249748483348    -1.994815000589    -0.469726189101    12.000000000000
           H         -1.281147516652    -1.364766000589     0.915769810899     1.007825032070
           H         -1.703342516652    -1.144509000589    -0.760356189101     1.007825032070
           C          1.641563483348    -1.577604000589     0.018500810899    12.000000000000
           H          0.260908483348    -2.079623000589    -1.555078189101     1.007825032070
           H          0.034750483348    -2.991378000589    -0.090179189101     1.007825032070
           C          2.161819483348    -0.271181000589    -0.583933189101    12.000000000000
           H          2.342166483348    -2.374159000589    -0.219708189101     1.007825032070
           H          1.632732483348    -1.496889000589     1.103660810899     1.007825032070
           H          2.169921483348    -0.318256000589    -1.669639189101     1.007825032070
           H          1.555029483348     0.580335999411    -0.294276189101     1.007825032070
           H          3.177417483348    -0.072965000589    -0.255261189101     1.007825032070

  Charge       = 0
  Multiplicity = 1
  Basis Set: 6-31G*
  Basis Set:

    Orbital Energies (a.u.)
    -----------------------

    Doubly Occupied:

       1A    -20.552245     2A    -11.265618     3A    -11.216521
       4A    -11.213106     5A    -11.212390     6A    -11.208749
       7A    -11.193595     8A     -1.358996     9A     -1.093240
      10A     -1.021763    11A     -0.961594    12A     -0.878829
      13A     -0.808403    14A     -0.775922    15A     -0.690800
      16A     -0.663841    17A     -0.629946    18A     -0.612333
      19A     -0.581155    20A     -0.555916    21A     -0.544021
      22A     -0.533528    23A     -0.495688    24A     -0.491022
      25A     -0.482213    26A     -0.454075    27A     -0.449443
      28A     -0.434484    29A     -0.426280

  @DF-RHF Final Energy:  -310.18075807744538

   => Energetics <=

    Nuclear Repulsion Energy =            328.1757095456875959
    One-Electron Energy =               -1071.1016733081210077
    Two-Electron Energy =                 432.7452056849882638
    DFT Exchange-Correlation Energy =       0.0000000000000000
    Empirical Dispersion Energy =           0.0000000000000000
    PCM Polarization Energy =               0.0000000000000000
    EFP Energy =                            0.0000000000000000
    Total Energy =                       -310.1807580774451480

  Mulliken Charges: (a.u.)
   Center  Symbol    Alpha    Beta     Spin     Total
       1     H     0.28087  0.28087  0.00000  0.43826
       2     O     4.37290  4.37290  0.00000 -0.74581
       3     C     2.98587  2.98587  0.00000  0.02827
       4     C     3.18188  3.18188  0.00000 -0.36376
       5     H     0.43357  0.43357  0.00000  0.13285
       6     H     0.43355  0.43355  0.00000  0.13289
       7     C     3.15649  3.15649  0.00000 -0.31298
       8     H     0.40662  0.40662  0.00000  0.18676
       9     H     0.40781  0.40781  0.00000  0.18439
      10     C     3.15291  3.15291  0.00000 -0.30581
      11     H     0.42235  0.42235  0.00000  0.15529
      12     H     0.42105  0.42105  0.00000  0.15791
      13     C     3.16015  3.16015  0.00000 -0.32030
      14     H     0.42244  0.42244  0.00000  0.15512
      15     H     0.42021  0.42021  0.00000  0.15957
      16     C     3.24718  3.24718  0.00000 -0.49437
      17     H     0.41903  0.41903  0.00000  0.16194
      18     H     0.42334  0.42334  0.00000  0.15333
      19     H     0.42435  0.42435  0.00000  0.15130
      20     H     0.40554  0.40554  0.00000  0.18892
      21     H     0.42189  0.42189  0.00000  0.15623

   Total alpha = 29.00000, Total beta = 29.00000, Total charge =  0.00000
