                              Psi4 1.0.54 Driver

  ==> Input File <==

--------------------------------------------------------------------------
set {
	reference rhf
	basis cc-pvtz
}

set_num_threads( 4 )
memory 2 gb

molecule MOL {
0 1

H	 3.285259	 -0.477806	 -0.025692
C	 2.229369	 -0.285389	 -0.019596
C	 1.721220	 0.744432	 0.757955
C	 1.385342	 -1.064173	 -0.785514
H	 2.383513	 1.345303	 1.350505
C	 0.367301	 0.994617	 0.768629
H	 1.781236	 -1.859964	 -1.385897
C	 0.025825	 -0.811696	 -0.773756
H	 -0.044375	 1.785811	 1.362927
C	 -0.486398	 0.214248	 0.000000
H	 -0.636805	 -1.413885	 -1.367444
C	 -1.946525	 0.470130	 0.000000
O	 -2.779618	 -0.371226	 0.000000
H	 -2.227127	 1.528393	 0.000000

	symmetry c1
}
set optking {
	frozen_dihedral = ("
		8 10 12 14
	")
}

ee,wfn = optimize('scf', return_wfn=True)
oeprop( wfn, 'DIPOLE', 'QUADRUPOLE', 'MULLIKEN_CHARGES')
f=open( 'psi4out.xyz', 'w' )
f.write( "14  " )
f.write( str(ee) + "\n" )
f.write( MOL.save_string_xyz() )
f.close()
--------------------------------------------------------------------------

    Molecular point group: c1
  Charge       = 0
  Multiplicity = 1
  Basis Set: CC-PVTZ
  Basis Set:
  @DF-RHF Final Energy:  -343.54471473762783
    Total Energy =                       -343.5447147376278281
    Molecular point group: c1
  Basis Set: CC-PVTZ
  Basis Set:
  Basis Set: CC-PVTZ
  Basis Set:
  @DF-RHF Final Energy:  -343.54225778942919
    Total Energy =                       -343.5422577894293568
  Basis Set: CC-PVTZ
  Basis Set:
  Basis Set: CC-PVTZ
  Basis Set:
  @DF-RHF Final Energy:  -343.54508246832290
    Total Energy =                       -343.5450824683229030
  Basis Set: CC-PVTZ
  Basis Set:
  Basis Set: CC-PVTZ
  Basis Set:
  @DF-RHF Final Energy:  -343.54553681896607
    Total Energy =                       -343.5455368189659566
  Basis Set: CC-PVTZ
  Basis Set:
  Basis Set: CC-PVTZ
  Basis Set:
  @DF-RHF Final Energy:  -343.54554902661391
    Total Energy =                       -343.5455490266140828
  Basis Set: CC-PVTZ
  Basis Set:
  Basis Set: CC-PVTZ
  Basis Set:
  @DF-RHF Final Energy:  -343.54554592527728
    Total Energy =                       -343.5455459252772812
  Basis Set: CC-PVTZ
  Basis Set:
  Basis Set: CC-PVTZ
  Basis Set:
  @DF-RHF Final Energy:  -343.54555056607876
    Total Energy =                       -343.5455505660785889
  Basis Set: CC-PVTZ
  Basis Set:
  Charge       = 0
  Multiplicity = 1
  Basis Set: CC-PVTZ
  Basis Set:

    Orbital Energies (a.u.)
    -----------------------

    Doubly Occupied:

       1A    -20.556264     2A    -11.328791     3A    -11.250572
       4A    -11.247748     5A    -11.247427     6A    -11.246000
       7A    -11.243507     8A    -11.242014     9A     -1.411476
      10A     -1.176444    11A     -1.050968    12A     -1.035351
      13A     -0.891903    14A     -0.847342    15A     -0.795670
      16A     -0.725673    17A     -0.681865    18A     -0.657193
      19A     -0.630919    20A     -0.622089    21A     -0.605888
      22A     -0.553127    23A     -0.530796    24A     -0.511481
      25A     -0.508426    26A     -0.426240    27A     -0.354210
      28A     -0.352449

  @DF-RHF Final Energy:  -343.54555094850974

   => Energetics <=

    Nuclear Repulsion Energy =            323.6918666224009371
    One-Electron Energy =               -1107.0111684232736025
    Two-Electron Energy =                 439.7737508523630368
    DFT Exchange-Correlation Energy =       0.0000000000000000
    Empirical Dispersion Energy =           0.0000000000000000
    PCM Polarization Energy =               0.0000000000000000
    EFP Energy =                            0.0000000000000000
    Total Energy =                       -343.5455509485095718
    Molecular point group: c1
  Basis Set: CC-PVTZ
  Basis Set:

  -Total Gradient:
     Atom            X                  Y                   Z
    ------   -----------------  -----------------  -----------------
       1        0.000002538760     0.000009575976     0.000002560176
       2       -0.000008697963    -0.000057345114    -0.000043094805
       3       -0.000047770809     0.000040819441     0.000037473581
       4        0.000069954358     0.000035462134     0.000039567650
       5        0.000006611126    -0.000005319924    -0.000000234564
       6        0.000046614648     0.000007708637    -0.000040908883
       7       -0.000006718479    -0.000002450340    -0.000004445897
       8        0.000802377153     0.003521070694    -0.003825447245
       9        0.000008188492     0.000015511251     0.000009637857
      10       -0.001090162847    -0.005143376981     0.003620410020
      11       -0.000004815067     0.000003628209     0.000005784735
      12        0.000165134859     0.001407243006     0.006584699436
      13       -0.000180871650    -0.000182503052    -0.000054473384
      14        0.000237617420     0.000349976062    -0.006331528676

  **** Optimization is complete! (in 7 steps) ****
    Final optimized geometry and variables:
    Molecular point group: c1

    Geometry (in Angstrom), charge = 0, multiplicity = 1:

    H            3.292246768064    -0.470540620626     0.014374965462
    C            2.236129491177    -0.279777639174     0.022306485925
    C            1.725649272276     0.734016913357     0.810732365519
    C            1.391710843007    -1.042578474224    -0.765825613233
    H            2.381902720401     1.329276942053     1.415559028246
    C            0.367869206867     0.988459212513     0.804446964308
    H            1.793568784163    -1.818190914032    -1.388674621146
    C            0.032927967323    -0.804367033294    -0.752609898975
    H           -0.029654109548     1.792401903985     1.396405150499
    C           -0.484472035785     0.202351225930     0.047702510712
    H           -0.633546493350    -1.393498598915    -1.351206720501
    C           -1.938888695414     0.511903012645     0.008273916195
    O           -2.789859421082    -0.296654218069    -0.139820895225
    H           -2.188189934929     1.577466172442     0.048587975631

  Mulliken Charges: (a.u.)
   Center  Symbol    Alpha    Beta     Spin     Total
       1     H     0.41998  0.41998  0.00000  0.16004
       2     C     3.07487  3.07487  0.00000 -0.14974
       3     C     3.06988  3.06988  0.00000 -0.13976
       4     C     3.06871  3.06871  0.00000 -0.13741
       5     H     0.42060  0.42060  0.00000  0.15881
       6     C     3.09290  3.09290  0.00000 -0.18581
       7     H     0.42008  0.42008  0.00000  0.15983
       8     C     3.08928  3.08928  0.00000 -0.17856
       9     H     0.42345  0.42345  0.00000  0.15310
      10     C     2.96310  2.96310  0.00000  0.07380
      11     H     0.41134  0.41134  0.00000  0.17733
      12     C     2.91903  2.91903  0.00000  0.16194
      13     O     4.16832  4.16832  0.00000 -0.33665
      14     H     0.45846  0.45846  0.00000  0.08309

   Total alpha = 28.00000, Total beta = 28.00000, Total charge = -0.00000

*** Psi4 exiting successfully. Buy a developer a beer!
