                              Psi4 1.0.54 Driver

  ==> Input File <==

--------------------------------------------------------------------------
set {
	reference rhf
	basis cc-pvtz
}

set_num_threads( 4 )
memory 2 gb

molecule MOL {
0 1

H	 -2.266619	 1.169943	 0.000098
O	 -1.438073	 1.611259	 0.000041
C	 -0.408657	 0.734701	 0.000005
C	 -0.625707	 -0.483498	 -0.616670
C	 0.815738	 1.030057	 0.587997
H	 -1.584076	 -0.673317	 -1.058743
C	 0.380459	 -1.425407	 -0.654152
C	 1.808485	 0.065065	 0.535347
C	 1.051020	 2.359910	 1.260555
H	 0.204712	 -2.368928	 -1.134632
C	 1.606211	 -1.155692	 -0.076903
H	 2.760463	 0.278015	 0.985190
H	 0.365317	 2.520128	 2.087877
H	 2.053738	 2.413740	 1.659429
H	 0.934235	 3.188381	 0.567502
H	 2.393544	 -1.883590	 -0.102203

	symmetry c1
}
set optking {
	frozen_dihedral = ("
		4 3 2 1
	")
}

ee,wfn = optimize('scf', return_wfn=True)
oeprop( wfn, 'DIPOLE', 'QUADRUPOLE', 'MULLIKEN_CHARGES')
f=open( 'psi4out.xyz', 'w' )
f.write( "16  " )
f.write( str(ee) + "\n" )
f.write( MOL.save_string_xyz() )
f.close()
--------------------------------------------------------------------------

    Molecular point group: c1
  Charge       = 0
  Multiplicity = 1
  Basis Set: CC-PVTZ
  Basis Set:
  @DF-RHF Final Energy:  -344.71707658122875
    Total Energy =                       -344.7170765812284117
    Molecular point group: c1
  Basis Set: CC-PVTZ
  Basis Set:
  Basis Set: CC-PVTZ
  Basis Set:
  @DF-RHF Final Energy:  -344.71907948325560
    Total Energy =                       -344.7190794832561096
  Basis Set: CC-PVTZ
  Basis Set:
  Basis Set: CC-PVTZ
  Basis Set:
  @DF-RHF Final Energy:  -344.71925108220751
    Total Energy =                       -344.7192510822074496
  Basis Set: CC-PVTZ
  Basis Set:
  Basis Set: CC-PVTZ
  Basis Set:
  @DF-RHF Final Energy:  -344.71926539610496
    Total Energy =                       -344.7192653961049587
  Basis Set: CC-PVTZ
  Basis Set:
  Charge       = 0
  Multiplicity = 1
  Basis Set: CC-PVTZ
  Basis Set:

    Orbital Energies (a.u.)
    -----------------------

    Doubly Occupied:

       1A    -20.580026     2A    -11.289497     3A    -11.229454
       4A    -11.228609     5A    -11.225868     6A    -11.223647
       7A    -11.218063     8A    -11.213174     9A     -1.409323
      10A     -1.152955    11A     -1.047390    12A     -1.006340
      13A     -0.932193    14A     -0.845961    15A     -0.802873
      16A     -0.734937    17A     -0.674522    18A     -0.654586
      19A     -0.615193    20A     -0.598020    21A     -0.577279
      22A     -0.562223    23A     -0.545695    24A     -0.540521
      25A     -0.502288    26A     -0.484968    27A     -0.475644
      28A     -0.333566    29A     -0.311253

  @DF-RHF Final Energy:  -344.71926923182031

   => Energetics <=

    Nuclear Repulsion Energy =            350.8797473636357722
    One-Electron Energy =               -1163.1658955415475702
    Two-Electron Energy =                 467.5668789460916628
    DFT Exchange-Correlation Energy =       0.0000000000000000
    Empirical Dispersion Energy =           0.0000000000000000
    PCM Polarization Energy =               0.0000000000000000
    EFP Energy =                            0.0000000000000000
    Total Energy =                       -344.7192692318201921
    Molecular point group: c1
  Basis Set: CC-PVTZ
  Basis Set:

  -Total Gradient:
     Atom            X                  Y                   Z
    ------   -----------------  -----------------  -----------------
       1        0.000019806194    -0.000039339139     0.002345151594
       2        0.000351728371     0.000355416290    -0.003727964552
       3       -0.000953796262    -0.001002907313     0.002921120136
       4        0.000577939500     0.000703193517    -0.001491905375
       5       -0.000056128121     0.000088412158    -0.000060984913
       6        0.000032194369    -0.000010563448     0.000007315317
       7       -0.000031728262    -0.000024946882    -0.000034722417
       8        0.000013666398    -0.000116817112     0.000014011140
       9        0.000063116107     0.000022292457     0.000024847607
      10        0.000029933358    -0.000025976273     0.000005291674
      11        0.000045339667     0.000098162642     0.000034688079
      12       -0.000003065989     0.000014001325     0.000002962335
      13       -0.000017823617    -0.000002656775     0.000005435037
      14       -0.000022743839    -0.000023896827    -0.000013240600
      15       -0.000019232306    -0.000001974225    -0.000006486556
      16       -0.000029205573    -0.000032400393    -0.000025518508

  **** Optimization is complete! (in 5 steps) ****
    Final optimized geometry and variables:
    Molecular point group: c1

    Geometry (in Angstrom), charge = 0, multiplicity = 1:

    H           -2.587090902477     0.871845311694    -0.114695429993
    O           -1.731330031569     1.260360752417    -0.104623066171
    C           -0.767604423719     0.305445872875    -0.136775285279
    C           -0.975937600863    -0.906432347918    -0.763176291637
    C            0.459612459593     0.613400558434     0.441367460397
    H           -1.926387957204    -1.110215546262    -1.221780900763
    C            0.035535892882    -1.849073512218    -0.802851514885
    C            1.456357553302    -0.342246615059     0.378810400969
    C            0.675148545291     1.947787553641     1.105836075903
    H           -0.135710269271    -2.791880763753    -1.286174137701
    C            1.257282767177    -1.568978896701    -0.232039677255
    H            2.410247762595    -0.123979827690     0.821716143175
    H           -0.035585673889     2.103320038477     1.908382539280
    H            1.673814729579     2.011442421109     1.516337351809
    H            0.542887615714     2.761219241834     0.402606552306
    H            2.049969804833    -2.291139437202    -0.260824747330

  Mulliken Charges: (a.u.)
   Center  Symbol    Alpha    Beta     Spin     Total
       1     H     0.38646  0.38646  0.00000  0.22708
       2     O     4.17882  4.17882  0.00000 -0.35764
       3     C     2.87020  2.87020  0.00000  0.25960
       4     C     3.12858  3.12858  0.00000 -0.25717
       5     C     2.99526  2.99526  0.00000  0.00949
       6     H     0.43261  0.43261  0.00000  0.13479
       7     C     3.07303  3.07303  0.00000 -0.14606
       8     C     3.08452  3.08452  0.00000 -0.16904
       9     C     3.14138  3.14138  0.00000 -0.28276
      10     H     0.42261  0.42261  0.00000  0.15478
      11     C     3.08821  3.08821  0.00000 -0.17643
      12     H     0.42504  0.42504  0.00000  0.14993
      13     H     0.44835  0.44835  0.00000  0.10331
      14     H     0.45411  0.45411  0.00000  0.09178
      15     H     0.44606  0.44606  0.00000  0.10787
      16     H     0.42476  0.42476  0.00000  0.15048

   Total alpha = 29.00000, Total beta = 29.00000, Total charge = -0.00000

*** Psi4 exiting successfully. Buy a developer a beer!
