  ==> Input File <==

--------------------------------------------------------------------------
set {
	reference rhf
	basis 6-31G*
}

set_num_threads( 4 )
memory 2 gb

molecule MOL {
0 1

H	 -3.161837	 0.500524	 -0.000234
C	 -2.367097	 -0.232926	 -0.000000
O	 -1.158440	 0.455814	 -0.000122
H	 -2.468853	 -0.861886	 -0.882833
H	 -2.468942	 -0.861421	 0.883154
C	 -0.029776	 -0.365156	 0.000148
C	 1.212217	 0.508981	 0.000007
H	 -0.036772	 -1.013236	 -0.877259
H	 -0.036869	 -1.012778	 0.877897
C	 1.202251	 1.538342	 -1.129240
H	 1.281993	 1.008061	 0.961626
H	 2.084393	 -0.132033	 -0.084306
H	 0.349132	 2.206334	 -1.049242
H	 2.099557	 2.147552	 -1.105774
H	 1.156511	 1.058129	 -2.102742

	symmetry c1
}
set optking {
	frozen_dihedral = ("
		11 7 6 8
	")
}

ee = optimize('scf')
oeprop('DIPOLE', 'QUADRUPOLE', 'MULLIKEN_CHARGES')
f=open( 'psi4out.xyz', 'w' )
f.write( "15  " )
f.write( str(ee) + "\n" )
f.write( MOL.save_string_xyz() )
f.close()
--------------------------------------------------------------------------

    Molecular point group: c1
  Charge       = 0
  Multiplicity = 1
  Basis Set: 6-31G*
  Basis Set:
  @DF-RHF Final Energy:  -232.13903887300617
    Total Energy =                       -232.1390388730062000
    Molecular point group: c1
  Basis Set: 6-31G*
  Basis Set:
  Basis Set: 6-31G*
  Basis Set:
  @DF-RHF Final Energy:  -232.13920852153387
    Total Energy =                       -232.1392085215339307
  Basis Set: 6-31G*
  Basis Set:
  Basis Set: 6-31G*
  Basis Set:
  @DF-RHF Final Energy:  -232.13929265949153
    Total Energy =                       -232.1392926594916162
  Basis Set: 6-31G*
  Basis Set:
  Basis Set: 6-31G*
  Basis Set:
  @DF-RHF Final Energy:  -232.13929452808304
    Total Energy =                       -232.1392945280829849
  Basis Set: 6-31G*
  Basis Set:
  Charge       = 0
  Multiplicity = 1
  Basis Set: 6-31G*
  Basis Set:

    Orbital Energies (a.u.)
    -----------------------

    Doubly Occupied:

       1A    -20.554659     2A    -11.266793     3A    -11.264877
       4A    -11.215156     5A    -11.202729     6A     -1.379552
       7A     -1.053477     8A     -0.950094     9A     -0.887845
      10A     -0.797587    11A     -0.670207    12A     -0.661197
      13A     -0.633925    14A     -0.594116    15A     -0.562054
      16A     -0.545496    17A     -0.501695    18A     -0.484131
      19A     -0.476441    20A     -0.458878    21A     -0.413350

  @DF-RHF Final Energy:  -232.13929471429364

   => Energetics <=

    Nuclear Repulsion Energy =            193.0251995783631003
    One-Electron Energy =                -697.1804728133645312
    Two-Electron Energy =                 272.0159785207076766
    DFT Exchange-Correlation Energy =       0.0000000000000000
    Empirical Dispersion Energy =           0.0000000000000000
    PCM Polarization Energy =               0.0000000000000000
    EFP Energy =                            0.0000000000000000
    Total Energy =                       -232.1392947142937828
    Molecular point group: c1
  Basis Set: 6-31G*
  Basis Set:

  -Total Gradient:
     Atom            X                  Y                   Z
    ------   -----------------  -----------------  -----------------
       1       -0.000005575571    -0.000002232585    -0.000000110159
       2       -0.000007185052     0.000007218903     0.000009307177
       3       -0.000000073214    -0.000016929822     0.000014732265
       4        0.000002639759    -0.000000089242    -0.000002221733
       5       -0.000004030477    -0.000000174198    -0.000001399390
       6       -0.001115651763     0.001623755626    -0.001313793404
       7       -0.001230711845     0.001749709497    -0.000706782360
       8        0.001135688468    -0.001627518686     0.001180741327
       9       -0.000024496558     0.000014757057     0.000003741320
      10        0.000018774760    -0.000023581554     0.000005346849
      11        0.001240055832    -0.001752919510     0.000820045353
      12        0.000009520862     0.000011702266    -0.000003238580
      13       -0.000008690095     0.000004250383    -0.000001687916
      14       -0.000010829235     0.000004187905     0.000001335801
      15        0.000000564132     0.000007863959    -0.000006016550

  **** Optimization is complete! (in 5 steps) ****
    Final optimized geometry and variables:
    Molecular point group: c1

    Geometry (in Angstrom), charge = 0, multiplicity = 1:

    H           -2.918986242678     0.088379388905     0.259921521852
    C           -2.112109967260    -0.631443959383     0.239967406194
    O           -0.914731245355     0.076741196061     0.243098648391
    H           -2.209984757264    -1.245333973422    -0.653691566227
    H           -2.195629529125    -1.277833504371     1.111978726707
    C            0.226571545459    -0.725712049920     0.218288625100
    C            1.469421047141     0.149968746528     0.224099568495
    H            0.223002857813    -1.369805097208    -0.662412332438
    H            0.236347769303    -1.383943508688     1.087681575184
    C            1.504429525345     1.169411243771    -0.912221854380
    H            1.543950859004     0.649167511390     1.185922272723
    H            2.333849915896    -0.507406367009     0.155502695169
    H            0.670529872825     1.856353313392    -0.842904114789
    H            2.423875626687     1.745862708776    -0.883848824927
    H            1.452145962841     0.676413643656    -1.879323801978

  Mulliken Charges: (a.u.)
   Center  Symbol    Alpha    Beta     Spin     Total
       1     H     0.41212  0.41212  0.00000  0.17575
       2     C     3.07906  3.07906  0.00000 -0.15813
       3     O     4.30323  4.30323  0.00000 -0.60646
       4     H     0.42993  0.42993  0.00000  0.14015
       5     H     0.43022  0.43022  0.00000  0.13956
       6     C     2.98811  2.98811  0.00000  0.02379
       7     C     3.16110  3.16110  0.00000 -0.32220
       8     H     0.43329  0.43329  0.00000  0.13343
       9     H     0.43067  0.43067  0.00000  0.13866
      10     C     3.23984  3.23984  0.00000 -0.47969
      11     H     0.41616  0.41616  0.00000  0.16767
      12     H     0.42338  0.42338  0.00000  0.15324
      13     H     0.40681  0.40681  0.00000  0.18638
      14     H     0.42157  0.42157  0.00000  0.15686
      15     H     0.42452  0.42452  0.00000  0.15097

   Total alpha = 21.00000, Total beta = 21.00000, Total charge =  0.00000
