  ==> Input File <==

--------------------------------------------------------------------------
set {
	reference rhf
	basis 6-31G*
}

set_num_threads( 1 )
memory 2 gb

molecule MOL {
0 1

H	 2.591676	 2.013956	 0.335017
O	 3.341076	 1.666752	 -0.126416
C	 3.569581	 0.339145	 0.272707
C	 5.016962	 0.071704	 0.670565
H	 2.920036	 0.171260	 1.122166
H	 3.262216	 -0.352572	 -0.510768
C	 6.017916	 0.235286	 -0.475821
H	 5.280661	 0.742804	 1.483864
H	 5.078960	 -0.941995	 1.062913
C	 7.454173	 -0.092545	 -0.058078
H	 5.971916	 1.255249	 -0.847207
H	 5.729817	 -0.413192	 -1.303357
C	 8.485082	 -0.027279	 -1.190910
H	 7.756429	 0.579943	 0.742702
H	 7.471223	 -1.094519	 0.365545
C	 8.723063	 1.371733	 -1.765896
H	 9.430510	 -0.413061	 -0.815204
H	 8.181880	 -0.699758	 -1.991958
C	 9.833618	 1.402789	 -2.818103
H	 8.977546	 2.054151	 -0.956171
H	 7.807508	 1.754405	 -2.210445
C	 10.068842	 2.796948	 -3.398323
H	 10.757666	 1.035241	 -2.377045
H	 9.585724	 0.714241	 -3.623295
H	 10.350686	 3.502379	 -2.621693
H	 10.862484	 2.786412	 -4.139037
H	 9.172571	 3.178020	 -3.879829

	symmetry c1
}
set optking {
	frozen_dihedral = ("
		14 10 7 4,
		14 10 13 16,
		10 7 4 8,
		8 4 3 2,
		10 13 16 20,
		20 16 19 22
	")
}

ee = energy('scf')
oeprop('DIPOLE', 'QUADRUPOLE', 'MULLIKEN_CHARGES')
f=open( 'psi4out.xyz', 'w' )
f.write( "27  " )
f.write( str(ee) + "\n" )
f.write( MOL.save_string_xyz() )
f.close()
--------------------------------------------------------------------------

    Molecular point group: c1

    Geometry (in Angstrom), charge = 0, multiplicity = 1:

       Center              X                  Y                   Z               Mass
    ------------   -----------------  -----------------  -----------------  -----------------
           H         -4.291037135148     1.123884786993     1.314839152127     1.007825032070
           O         -3.541637135148     0.776680786993     0.853406152127    15.994914619560
           C         -3.313132135148    -0.550926213007     1.252529152127    12.000000000000
           C         -1.865751135148    -0.818367213007     1.650387152127    12.000000000000
           H         -3.962677135148    -0.718811213007     2.101988152127     1.007825032070
           H         -3.620497135148    -1.242643213007     0.469054152127     1.007825032070
           C         -0.864797135148    -0.654785213007     0.504001152127    12.000000000000
           H         -1.602052135148    -0.147267213007     2.463686152127     1.007825032070
           H         -1.803753135148    -1.832066213007     2.042735152127     1.007825032070
           C          0.571459864852    -0.982616213007     0.921744152127    12.000000000000
           H         -0.910797135148     0.365177786993     0.132615152127     1.007825032070
           H         -1.152896135148    -1.303263213007    -0.323534847873     1.007825032070
           C          1.602368864852    -0.917350213007    -0.211087847873    12.000000000000
           H          0.873715864852    -0.310128213007     1.722524152127     1.007825032070
           H          0.588509864852    -1.984590213007     1.345367152127     1.007825032070
           C          1.840349864852     0.481661786993    -0.786073847873    12.000000000000
           H          2.547796864852    -1.303132213007     0.164618152127     1.007825032070
           H          1.299166864852    -1.589829213007    -1.012135847873     1.007825032070
           C          2.950904864852     0.512717786993    -1.838280847873    12.000000000000
           H          2.094832864852     1.164079786993     0.023651152127     1.007825032070
           H          0.924794864852     0.864333786993    -1.230622847873     1.007825032070
           C          3.186128864852     1.906876786993    -2.418500847873    12.000000000000
           H          3.874952864852     0.145169786993    -1.397222847873     1.007825032070
           H          2.703010864852    -0.175830213007    -2.643472847873     1.007825032070
           H          3.467972864852     2.612307786993    -1.641870847873     1.007825032070
           H          3.979770864852     1.896340786993    -3.159214847873     1.007825032070
           H          2.289857864852     2.287948786993    -2.900006847873     1.007825032070

  Charge       = 0
  Multiplicity = 1
  Basis Set: 6-31G*
  Basis Set:

    Orbital Energies (a.u.)
    -----------------------

    Doubly Occupied:

       1A    -20.550413     2A    -11.268080     3A    -11.213426
       4A    -11.210589     5A    -11.209658     6A    -11.209040
       7A    -11.207443     8A    -11.207421     9A    -11.204475
      10A     -1.358550    11A     -1.088093    12A     -1.055923
      13A     -1.007345    14A     -0.942630    15A     -0.879745
      16A     -0.812837    17A     -0.795594    18A     -0.771133
      19A     -0.698301    20A     -0.648050    21A     -0.640084
      22A     -0.609642    23A     -0.588119    24A     -0.583358
      25A     -0.569078    26A     -0.545418    27A     -0.538592
      28A     -0.519043    29A     -0.504196    30A     -0.496895
      31A     -0.475677    32A     -0.469151    33A     -0.459887
      34A     -0.454250    35A     -0.443033    36A     -0.432206
      37A     -0.424321

  @DF-RHF Final Energy:  -388.27882780892077

   => Energetics <=

    Nuclear Repulsion Energy =            458.3772579507505611
    One-Electron Energy =               -1435.1287008028039054
    Two-Electron Energy =                 588.4726150431336009
    DFT Exchange-Correlation Energy =       0.0000000000000000
    Empirical Dispersion Energy =           0.0000000000000000
    PCM Polarization Energy =               0.0000000000000000
    EFP Energy =                            0.0000000000000000
    Total Energy =                       -388.2788278089196865

  Mulliken Charges: (a.u.)
   Center  Symbol    Alpha    Beta     Spin     Total
       1     H     0.27868  0.27868  0.00000  0.44265
       2     O     4.37324  4.37324  0.00000 -0.74648
       3     C     2.99464  2.99464  0.00000  0.01073
       4     C     3.15776  3.15776  0.00000 -0.31553
       5     H     0.43272  0.43272  0.00000  0.13457
       6     H     0.42680  0.42680  0.00000  0.14640
       7     C     3.15728  3.15728  0.00000 -0.31455
       8     H     0.41997  0.41997  0.00000  0.16007
       9     H     0.42481  0.42481  0.00000  0.15039
      10     C     3.15315  3.15315  0.00000 -0.30630
      11     H     0.40737  0.40737  0.00000  0.18525
      12     H     0.42574  0.42574  0.00000  0.14852
      13     C     3.15274  3.15274  0.00000 -0.30548
      14     H     0.42403  0.42403  0.00000  0.15195
      15     H     0.42447  0.42447  0.00000  0.15106
      16     C     3.15303  3.15303  0.00000 -0.30606
      17     H     0.42299  0.42299  0.00000  0.15402
      18     H     0.42440  0.42440  0.00000  0.15121
      19     C     3.15101  3.15101  0.00000 -0.30202
      20     H     0.42481  0.42481  0.00000  0.15037
      21     H     0.41999  0.41999  0.00000  0.16002
      22     C     3.23907  3.23907  0.00000 -0.47814
      23     H     0.42402  0.42402  0.00000  0.15197
      24     H     0.42350  0.42350  0.00000  0.15301
      25     H     0.42213  0.42213  0.00000  0.15574
      26     H     0.42027  0.42027  0.00000  0.15947
      27     H     0.42141  0.42141  0.00000  0.15718

   Total alpha = 37.00000, Total beta = 37.00000, Total charge =  0.00000
