                              Psi4 1.0.54 Driver

  ==> Input File <==

--------------------------------------------------------------------------
set {
	reference rhf
	basis cc-pvtz
}

set_num_threads( 4 )
memory 2 gb

molecule MOL {
0 1

H	 3.303485	 -0.184135	 -1.430522
O	 2.386575	 -0.370676	 -1.295708
C	 2.076458	 -0.067370	 -0.038225
C	 0.626018	 -0.337582	 0.258241
O	 2.876222	 0.360352	 0.720243
C	 -0.267326	 0.883135	 0.076490
H	 0.325620	 -1.161483	 -0.378003
H	 0.574537	 -0.713685	 1.275261
C	 -1.726822	 0.642622	 0.463839
H	 -0.210803	 1.217591	 -0.953497
H	 0.129920	 1.693110	 0.675679
C	 -2.480891	 -0.340606	 -0.429852
H	 -2.243098	 1.597649	 0.438609
H	 -1.776542	 0.301208	 1.495542
C	 -3.955933	 -0.460128	 -0.060472
H	 -2.393755	 -0.020485	 -1.464726
H	 -2.024244	 -1.323637	 -0.374360
H	 -4.467673	 -1.160944	 -0.709827
H	 -4.458917	 0.497287	 -0.144505
H	 -4.076458	 -0.806900	 0.960497

	symmetry c1
}
set optking {
	frozen_dihedral = ("
		5 3 4 7
	")
}

ee,wfn = optimize('scf', return_wfn=True)
oeprop( wfn, 'DIPOLE', 'QUADRUPOLE', 'MULLIKEN_CHARGES')
f=open( 'psi4out.xyz', 'w' )
f.write( "20  " )
f.write( str(ee) + "\n" )
f.write( MOL.save_string_xyz() )
f.close()
--------------------------------------------------------------------------

    Molecular point group: c1
  Charge       = 0
  Multiplicity = 1
  Basis Set: CC-PVTZ
  Basis Set:
  @DF-RHF Final Energy:  -384.09281348664314
    Total Energy =                       -384.0928134866430810
    Molecular point group: c1
  Basis Set: CC-PVTZ
  Basis Set:
  Basis Set: CC-PVTZ
  Basis Set:
  @DF-RHF Final Energy:  -384.09331164563639
    Total Energy =                       -384.0933116456362768
  Basis Set: CC-PVTZ
  Basis Set:
  Basis Set: CC-PVTZ
  Basis Set:
  @DF-RHF Final Energy:  -384.04387784759450
    Total Energy =                       -384.0438778475949562
  Basis Set: CC-PVTZ
  Basis Set:
  Basis Set: CC-PVTZ
  Basis Set:
  @DF-RHF Final Energy:  -384.09110845424618
    Total Energy =                       -384.0911084542461822
  Basis Set: CC-PVTZ
  Basis Set:
  @DF-RHF Final Energy:  -384.09357055427796
    Total Energy =                       -384.0935705542780170
  Basis Set: CC-PVTZ
  Basis Set:
  @DF-RHF Final Energy:  -384.09356310659331
    Total Energy =                       -384.0935631065931375
  Basis Set: CC-PVTZ
  Basis Set:
  Basis Set: CC-PVTZ
  Basis Set:
  @DF-RHF Final Energy:  -384.09368529631007
    Total Energy =                       -384.0936852963100137
  Basis Set: CC-PVTZ
  Basis Set:
  Basis Set: CC-PVTZ
  Basis Set:
  @DF-RHF Final Energy:  -384.09368638384302
    Total Energy =                       -384.0936863838425666
  Basis Set: CC-PVTZ
  Basis Set:
  Charge       = 0
  Multiplicity = 1
  Basis Set: CC-PVTZ
  Basis Set:

    Orbital Energies (a.u.)
    -----------------------

    Doubly Occupied:

       1A    -20.604898     2A    -20.537780     3A    -11.371944
       4A    -11.236543     5A    -11.231220     6A    -11.222256
       7A    -11.220450     8A    -11.212120     9A     -1.476864
      10A     -1.367371    11A     -1.100823    12A     -1.043603
      13A     -0.962274    14A     -0.867153    15A     -0.822801
      16A     -0.790099    17A     -0.705373    18A     -0.689395
      19A     -0.648938    20A     -0.637514    21A     -0.619512
      22A     -0.595194    23A     -0.577085    24A     -0.555388
      25A     -0.550604    26A     -0.515420    27A     -0.504903
      28A     -0.482706    29A     -0.477252    30A     -0.467818
      31A     -0.462492    32A     -0.439013

  @DF-RHF Final Energy:  -384.09368637328680

   => Energetics <=

    Nuclear Repulsion Energy =            377.4445580249414434
    One-Electron Energy =               -1271.0828757078641047
    Two-Electron Energy =                 509.5446313096358608
    DFT Exchange-Correlation Energy =       0.0000000000000000
    Empirical Dispersion Energy =           0.0000000000000000
    PCM Polarization Energy =               0.0000000000000000
    EFP Energy =                            0.0000000000000000
    Total Energy =                       -384.0936863732868005
    Molecular point group: c1
  Basis Set: CC-PVTZ
  Basis Set:

  -Total Gradient:
     Atom            X                  Y                   Z
    ------   -----------------  -----------------  -----------------
       1       -0.000052814967     0.000015727068     0.000058202263
       2       -0.000119485667    -0.000044512907     0.000067110632
       3        0.000291392326    -0.000434558222     0.000104516322
       4        0.000189609413    -0.000148849825     0.000308927891
       5       -0.000215770320     0.000363099788    -0.000137149156
       6        0.000000545597     0.000032301294     0.000032446227
       7       -0.000195970187     0.000143091014    -0.000367043654
       8        0.000023556778     0.000045938624    -0.000050976834
       9        0.000022413450     0.000010568162    -0.000028560301
      10       -0.000004597450     0.000005585800     0.000019555268
      11       -0.000010018789    -0.000004297393     0.000010766931
      12        0.000001314631     0.000008078732    -0.000015216602
      13        0.000010242707    -0.000009102944     0.000002828404
      14       -0.000003531605     0.000029834529    -0.000021131965
      15        0.000013017519    -0.000010658346     0.000013940491
      16       -0.000006808534    -0.000007155499     0.000026061899
      17        0.000025840112    -0.000002920695    -0.000019190420
      18        0.000015242455     0.000020787721     0.000012163536
      19        0.000018475491    -0.000016680486     0.000006291616
      20       -0.000002652960     0.000003723580    -0.000023542550

  **** Optimization is complete! (in 9 steps) ****
    Final optimized geometry and variables:
    Molecular point group: c1

    Geometry (in Angstrom), charge = 0, multiplicity = 1:

    H            3.274212470966    -0.002042724179    -1.450714242395
    O            2.421451755133    -0.331786495930    -1.209593069398
    C            2.077752700616     0.207091282243    -0.043808327174
    C            0.704390270581    -0.209283903251     0.405474877272
    O            2.785997113362     0.956257665204     0.536638480700
    C           -0.352658165237     0.772385750870    -0.121586589499
    H            0.506588558819    -1.210699676591     0.051815913378
    H            0.703544156076    -0.206783389094     1.486753953043
    C           -1.768017373649     0.480563995901     0.376831168765
    H           -0.340118314820     0.762888710862    -1.207058632210
    H           -0.071670187688     1.772867788982     0.187124526073
    C           -2.374247182815    -0.828120196821    -0.125960401074
    H           -2.408255195338     1.301184140469     0.066631116492
    H           -1.773762927253     0.487572970186     1.464015994253
    C           -3.818142268860    -1.018662192968     0.327248585176
    H           -2.331592286841    -0.847925265006    -1.211660587510
    H           -1.783462295575    -1.670546646189     0.218387556573
    H           -4.223877733991    -1.954052932434    -0.039972076313
    H           -4.451801100649    -0.217085902352    -0.036890986898
    H           -3.890056691801    -1.029416988680     1.409686084713

  Mulliken Charges: (a.u.)
   Center  Symbol    Alpha    Beta     Spin     Total
       1     H     0.38040  0.38040  0.00000  0.23919
       2     O     4.16294  4.16294  0.00000 -0.32587
       3     C     2.80405  2.80405  0.00000  0.39189
       4     C     3.08953  3.08953  0.00000 -0.17906
       5     O     4.19837  4.19837  0.00000 -0.39674
       6     C     3.11056  3.11056  0.00000 -0.22112
       7     H     0.44119  0.44119  0.00000  0.11762
       8     H     0.43822  0.43822  0.00000  0.12356
       9     C     3.09764  3.09764  0.00000 -0.19528
      10     H     0.44566  0.44566  0.00000  0.10867
      11     H     0.43644  0.43644  0.00000  0.12711
      12     C     3.08723  3.08723  0.00000 -0.17447
      13     H     0.44592  0.44592  0.00000  0.10815
      14     H     0.45118  0.45118  0.00000  0.09763
      15     C     3.14961  3.14961  0.00000 -0.29922
      16     H     0.45228  0.45228  0.00000  0.09545
      17     H     0.45334  0.45334  0.00000  0.09332
      18     H     0.44738  0.44738  0.00000  0.10524
      19     H     0.45373  0.45373  0.00000  0.09254
      20     H     0.45432  0.45432  0.00000  0.09136

   Total alpha = 32.00000, Total beta = 32.00000, Total charge =  0.00000

*** Psi4 exiting successfully. Buy a developer a beer!
