  ==> Input File <==

--------------------------------------------------------------------------
set {
	reference rhf
	basis 6-31G*
}

set_num_threads( 4 )
memory 2 gb

molecule MOL {
0 1

O	 -0.291628	 1.323815	 -0.000732
C	 -0.449655	 0.146360	 0.000961
C	 -1.783294	 -0.549321	 -0.000296
O	 0.550821	 -0.724572	 0.000672
H	 -1.863538	 -1.185371	 -0.874187
H	 -2.574672	 0.185258	 -0.002793
H	 -1.866414	 -1.182381	 0.875436
C	 0.889194	 -1.312889	 -1.242577
H	 0.050129	 -1.863514	 -1.642749
H	 1.711870	 -1.980263	 -1.038701
H	 1.188247	 -0.554911	 -1.952069

	symmetry c1
}
set optking {
	frozen_dihedral = ("
		8 4 2 1
	")
}

ee = optimize('scf')
oeprop('DIPOLE', 'QUADRUPOLE', 'MULLIKEN_CHARGES')
f=open( 'psi4out.xyz', 'w' )
f.write( "11  " )
f.write( str(ee) + "\n" )
f.write( MOL.save_string_xyz() )
f.close()
--------------------------------------------------------------------------

    Molecular point group: c1
  Charge       = 0
  Multiplicity = 1
  Basis Set: 6-31G*
  Basis Set:
  @DF-RHF Final Energy:  -266.81327653024846
    Total Energy =                       -266.8132765302487428
    Molecular point group: c1
  Basis Set: 6-31G*
  Basis Set:
  Basis Set: 6-31G*
  Basis Set:
  @DF-RHF Final Energy:  -266.81203294371596
    Total Energy =                       -266.8120329437158489
  Basis Set: 6-31G*
  Basis Set:
  Basis Set: 6-31G*
  Basis Set:
  @DF-RHF Final Energy:  -266.81445599975729
    Total Energy =                       -266.8144559997571719
  Basis Set: 6-31G*
  Basis Set:
  Basis Set: 6-31G*
  Basis Set:
  @DF-RHF Final Energy:  -266.81528270697362
    Total Energy =                       -266.8152827069737327
  Basis Set: 6-31G*
  Basis Set:
  @DF-RHF Final Energy:  -266.81530877065290
    Total Energy =                       -266.8153087706525639
  Basis Set: 6-31G*
  Basis Set:
  @DF-RHF Final Energy:  -266.81531356421033
    Total Energy =                       -266.8153135642104985
  Basis Set: 6-31G*
  Basis Set:
  Basis Set: 6-31G*
  Basis Set:
  @DF-RHF Final Energy:  -266.81531587190113
    Total Energy =                       -266.8153158719012481
  Basis Set: 6-31G*
  Basis Set:
  Basis Set: 6-31G*
  Basis Set:
  @DF-RHF Final Energy:  -266.81531689687478
    Total Energy =                       -266.8153168968746058
  Basis Set: 6-31G*
  Basis Set:
  Charge       = 0
  Multiplicity = 1
  Basis Set: 6-31G*
  Basis Set:

    Orbital Energies (a.u.)
    -----------------------

    Doubly Occupied:

       1A    -20.588188     2A    -20.558501     3A    -11.379594
       4A    -11.294748     5A    -11.239867     6A     -1.460809
       7A     -1.369931     8A     -1.025370     9A     -0.967498
      10A     -0.779674    11A     -0.694932    12A     -0.683798
      13A     -0.669666    14A     -0.615887    15A     -0.589437
      16A     -0.579187    17A     -0.543334    18A     -0.492594
      19A     -0.461959    20A     -0.441071

  @DF-RHF Final Energy:  -266.81531733580846

   => Energetics <=

    Nuclear Repulsion Energy =            182.2886854374724521
    One-Electron Energy =                -725.3359151030878138
    Two-Electron Energy =                 276.2319123298071304
    DFT Exchange-Correlation Energy =       0.0000000000000000
    Empirical Dispersion Energy =           0.0000000000000000
    PCM Polarization Energy =               0.0000000000000000
    EFP Energy =                            0.0000000000000000
    Total Energy =                       -266.8153173358081744
    Molecular point group: c1
  Basis Set: 6-31G*
  Basis Set:

  -Total Gradient:
     Atom            X                  Y                   Z
    ------   -----------------  -----------------  -----------------
       1       -0.000026300390    -0.000067346968     0.001284710769
       2       -0.000350592960    -0.000224301937    -0.001832050286
       3        0.000009574141    -0.000021378685     0.000010332063
       4        0.001035530673     0.001077493396     0.000411522533
       5        0.000000910855     0.000021604306     0.000001305512
       6       -0.000005944457     0.000000466969    -0.000001829046
       7        0.000007157353    -0.000005942420    -0.000001183086
       8       -0.000676237448    -0.000788590036     0.000122459451
       9        0.000003816603     0.000005560055     0.000000851756
      10        0.000001437865     0.000004087968     0.000004587571
      11        0.000000647765    -0.000001652644    -0.000000707237

  **** Optimization is complete! (in 9 steps) ****
    Final optimized geometry and variables:
    Molecular point group: c1

    Geometry (in Angstrom), charge = 0, multiplicity = 1:

    O           -0.077096256115     1.536814299308     0.289809189817
    C           -0.263623025077     0.371920200738     0.248380605510
    C           -1.625688762186    -0.271550389855     0.287119710504
    O            0.764563886125    -0.507963122239     0.245438338432
    H           -1.760873233717    -0.946852876389    -0.550176906186
    H           -2.392506469894     0.488516761836     0.269258413784
    H           -1.709931800978    -0.859726664312     1.194552269316
    C            1.147622181970    -1.057062313057    -0.996461423564
    H            0.348391063773    -1.644136031599    -1.436089165691
    H            1.990508343161    -1.700644069198    -0.799431301244
    H            1.444972993123    -0.274598192970    -1.684295065403

  Mulliken Charges: (a.u.)
   Center  Symbol    Alpha    Beta     Spin     Total
       1     O     4.24580  4.24580  0.00000 -0.49160
       2     C     2.63057  2.63057  0.00000  0.73887
       3     C     3.28909  3.28909  0.00000 -0.57818
       4     O     4.30819  4.30819  0.00000 -0.61639
       5     H     0.40732  0.40732  0.00000  0.18537
       6     H     0.39534  0.39534  0.00000  0.20931
       7     H     0.39688  0.39688  0.00000  0.20625
       8     C     3.09240  3.09240  0.00000 -0.18480
       9     H     0.42268  0.42268  0.00000  0.15465
      10     H     0.40127  0.40127  0.00000  0.19747
      11     H     0.41047  0.41047  0.00000  0.17906

   Total alpha = 20.00000, Total beta = 20.00000, Total charge = -0.00000
