  ==> Input File <==

--------------------------------------------------------------------------
set {
	reference rhf
	basis 6-31G*
}

set_num_threads( 1 )
memory 2 gb

molecule MOL {
0 1

H	 3.580699	 -0.881506	 -0.776002
O	 2.669654	 -1.109473	 -0.618573
C	 2.077727	 -0.067559	 -0.035091
C	 0.624473	 -0.343591	 0.253101
O	 2.663873	 0.936341	 0.209109
C	 -0.265902	 0.883932	 0.072916
H	 0.324016	 -1.163849	 -0.390541
H	 0.565024	 -0.726111	 1.268924
C	 -1.728698	 0.646073	 0.462102
H	 -0.209144	 1.219470	 -0.958188
H	 0.135059	 1.692851	 0.673903
C	 -2.482460	 -0.343073	 -0.431425
H	 -2.245265	 1.602650	 0.432430
H	 -1.779332	 0.308348	 1.496285
C	 -3.960546	 -0.461025	 -0.060175
H	 -2.395034	 -0.026811	 -1.468912
H	 -2.024850	 -1.327147	 -0.371646
H	 -4.472726	 -1.168004	 -0.705284
H	 -4.465146	 0.496508	 -0.151489
H	 -4.081218	 -0.800940	 0.964585

	symmetry c1
}
set optking {
	frozen_dihedral = ("
		16 12 9 6,
		7 4 6 10,
		12 9 6 10,
		1 2 3 5
	")
}

ee = energy('scf')
oeprop('DIPOLE', 'QUADRUPOLE', 'MULLIKEN_CHARGES')
f=open( 'psi4out.xyz', 'w' )
f.write( "20  " )
f.write( str(ee) + "\n" )
f.write( MOL.save_string_xyz() )
f.close()
--------------------------------------------------------------------------

    Molecular point group: c1

    Geometry (in Angstrom), charge = 0, multiplicity = 1:

       Center              X                  Y                   Z               Mass
    ------------   -----------------  -----------------  -----------------  -----------------
           H          3.586875895023    -0.883463644148    -0.746729761145     1.007825032070
           O          2.675830895023    -1.111430644148    -0.589300761145    15.994914619560
           C          2.083903895023    -0.069516644148    -0.005818761145    12.000000000000
           C          0.630649895023    -0.345548644148     0.282373238855    12.000000000000
           O          2.670049895023     0.934383355852     0.238381238855    15.994914619560
           C         -0.259725104977     0.881974355852     0.102188238855    12.000000000000
           H          0.330192895023    -1.165806644148    -0.361268761145     1.007825032070
           H          0.571200895023    -0.728068644148     1.298196238855     1.007825032070
           C         -1.722521104977     0.644115355852     0.491374238855    12.000000000000
           H         -0.202967104977     1.217512355852    -0.928915761145     1.007825032070
           H          0.141235895023     1.690893355852     0.703175238855     1.007825032070
           C         -2.476283104977    -0.345030644148    -0.402152761145    12.000000000000
           H         -2.239088104977     1.600692355852     0.461702238855     1.007825032070
           H         -1.773155104977     0.306390355852     1.525557238855     1.007825032070
           C         -3.954369104977    -0.462982644148    -0.030902761145    12.000000000000
           H         -2.388857104977    -0.028768644148    -1.439639761145     1.007825032070
           H         -2.018673104977    -1.329104644148    -0.342373761145     1.007825032070
           H         -4.466549104977    -1.169961644148    -0.676011761145     1.007825032070
           H         -4.458969104977     0.494550355852    -0.122216761145     1.007825032070
           H         -4.075041104977    -0.802897644148     0.993857238855     1.007825032070

  Charge       = 0
  Multiplicity = 1
  Basis Set: 6-31G*
  Basis Set:

    Orbital Energies (a.u.)
    -----------------------

    Doubly Occupied:

       1A    -20.613594     2A    -20.550491     3A    -11.381064
       4A    -11.239117     5A    -11.226050     6A    -11.221774
       7A    -11.220763     8A    -11.212823     9A     -1.474669
      10A     -1.365341    11A     -1.097254    12A     -1.041321
      13A     -0.961561    14A     -0.869081    15A     -0.816639
      16A     -0.781175    17A     -0.701474    18A     -0.688735
      19A     -0.653359    20A     -0.639320    21A     -0.607196
      22A     -0.594001    23A     -0.575465    24A     -0.555437
      25A     -0.543409    26A     -0.512604    27A     -0.498701
      28A     -0.478513    29A     -0.472008    30A     -0.467734
      31A     -0.457404    32A     -0.441676

  @DF-RHF Final Energy:  -383.94757061103877

   => Energetics <=

    Nuclear Repulsion Energy =            375.9115225023724065
    One-Electron Energy =               -1267.7986704835764158
    Two-Electron Energy =                 507.9395773701665462
    DFT Exchange-Correlation Energy =       0.0000000000000000
    Empirical Dispersion Energy =           0.0000000000000000
    PCM Polarization Energy =               0.0000000000000000
    EFP Energy =                            0.0000000000000000
    Total Energy =                       -383.9475706110374063

  Mulliken Charges: (a.u.)
   Center  Symbol    Alpha    Beta     Spin     Total
       1     H     0.26843  0.26843  0.00000  0.46313
       2     O     4.35017  4.35017  0.00000 -0.70033
       3     C     2.62097  2.62097  0.00000  0.75805
       4     C     3.21523  3.21523  0.00000 -0.43047
       5     O     4.27925  4.27925  0.00000 -0.55849
       6     C     3.15928  3.15928  0.00000 -0.31857
       7     H     0.39680  0.39680  0.00000  0.20641
       8     H     0.39828  0.39828  0.00000  0.20343
       9     C     3.15532  3.15532  0.00000 -0.31064
      10     H     0.41602  0.41602  0.00000  0.16796
      11     H     0.40202  0.40202  0.00000  0.19597
      12     C     3.15471  3.15471  0.00000 -0.30943
      13     H     0.41775  0.41775  0.00000  0.16449
      14     H     0.42259  0.42259  0.00000  0.15481
      15     C     3.23937  3.23937  0.00000 -0.47873
      16     H     0.42184  0.42184  0.00000  0.15632
      17     H     0.42185  0.42185  0.00000  0.15629
      18     H     0.41817  0.41817  0.00000  0.16366
      19     H     0.42072  0.42072  0.00000  0.15856
      20     H     0.42121  0.42121  0.00000  0.15758

   Total alpha = 32.00000, Total beta = 32.00000, Total charge =  0.00000
