  ==> Input File <==

--------------------------------------------------------------------------
set {
	reference rhf
	basis cc-pvtz
}

set_num_threads( 4 )
memory 2 gb

molecule MOL {
0 1

H	 -2.816458	 -0.841657	 -0.064679
N	 -1.878861	 -0.711874	 0.250184
C	 -1.341419	 0.551458	 -0.220231
H	 -1.333674	 -1.468530	 -0.105118
C	 0.082190	 0.731516	 0.254705
H	 -1.357065	 0.652078	 -1.304747
H	 -1.939897	 1.357530	 0.189797
O	 0.640207	 -0.525613	 0.491244
H	 0.659958	 1.260887	 -0.501683
H	 0.090993	 1.323833	 1.166852
C	 1.932117	 -0.495915	 1.000464
H	 2.258330	 -1.516571	 1.139144
H	 2.617836	 -0.000118	 0.316599
H	 1.970531	 0.017612	 1.958262

	symmetry c1
}
set optking {
	frozen_dihedral = ("
		8 5 3 6
	")
}

ee = optimize('scf')
oeprop('DIPOLE', 'QUADRUPOLE', 'MULLIKEN_CHARGES')
f=open( 'psi4out.xyz', 'w' )
f.write( "14  " )
f.write( str(ee) + "\n" )
f.write( MOL.save_string_xyz() )
f.close()
--------------------------------------------------------------------------

    Molecular point group: c1
  Charge       = 0
  Multiplicity = 1
  Basis Set: CC-PVTZ
  Basis Set:
  @DF-RHF Final Energy:  -248.21625801143821
    Total Energy =                       -248.2162580114381285
    Molecular point group: c1
  Basis Set: CC-PVTZ
  Basis Set:
  Basis Set: CC-PVTZ
  Basis Set:
  @DF-RHF Final Energy:  -248.21806390342351
    Total Energy =                       -248.2180639034235128
  Basis Set: CC-PVTZ
  Basis Set:
  Basis Set: CC-PVTZ
  Basis Set:
  @DF-RHF Final Energy:  -248.21832364500364
    Total Energy =                       -248.2183236450034087
  Basis Set: CC-PVTZ
  Basis Set:
  Basis Set: CC-PVTZ
  Basis Set:
  @DF-RHF Final Energy:  -248.21833944495572
    Total Energy =                       -248.2183394449556886
  Basis Set: CC-PVTZ
  Basis Set:
  Charge       = 0
  Multiplicity = 1
  Basis Set: CC-PVTZ
  Basis Set:

    Orbital Energies (a.u.)
    -----------------------

    Doubly Occupied:

       1A    -20.550592     2A    -15.520526     3A    -11.266946
       4A    -11.263932     5A    -11.240767     6A     -1.385572
       7A     -1.173169     8A     -0.997608     9A     -0.910481
      10A     -0.814084    11A     -0.684106    12A     -0.678703
      13A     -0.648195    14A     -0.610040    15A     -0.603407
      16A     -0.553491    17A     -0.523335    18A     -0.493970
      19A     -0.473745    20A     -0.423180    21A     -0.374475

  @DF-RHF Final Energy:  -248.21834035611198

   => Energetics <=

    Nuclear Repulsion Energy =            195.0886470002245687
    One-Electron Energy =                -724.2333258015843285
    Two-Electron Energy =                 280.9263384452480636
    DFT Exchange-Correlation Energy =       0.0000000000000000
    Empirical Dispersion Energy =           0.0000000000000000
    PCM Polarization Energy =               0.0000000000000000
    EFP Energy =                            0.0000000000000000
    Total Energy =                       -248.2183403561116961
    Molecular point group: c1
  Basis Set: CC-PVTZ
  Basis Set:

  -Total Gradient:
     Atom            X                  Y                   Z
    ------   -----------------  -----------------  -----------------
       1       -0.000001885500    -0.000025513738    -0.000012781209
       2       -0.000063169647    -0.000007544631     0.000010039659
       3        0.001066036844    -0.011041236503     0.000732804953
       4        0.000073833363     0.000034329170     0.000015353374
       5        0.002862290224     0.002103124613    -0.008667359901
       6       -0.001472955679     0.008941645268     0.001154253905
       7        0.000014165642     0.000016397881     0.000017573576
       8       -0.002469623125     0.000008428251     0.006759507511
       9        0.000003842635    -0.000033497391     0.000004345464
      10       -0.000009327404    -0.000009223432    -0.000004617454
      11        0.000006036654     0.000019678217    -0.000012976350
      12       -0.000010672587    -0.000001675332    -0.000001508041
      13        0.000005299603    -0.000003603351     0.000001431209
      14       -0.000003871022    -0.000001309023     0.000003933305

  **** Optimization is complete! (in 5 steps) ****
    Final optimized geometry and variables:
    Molecular point group: c1

    Geometry (in Angstrom), charge = 0, multiplicity = 1:

    H           -2.755966676533    -0.702750292456    -0.520173232680
    N           -1.859108773973    -0.571015896341    -0.105282918440
    C           -1.240374860145     0.640955591445    -0.592075401518
    H           -1.294620468382    -1.365744708901    -0.310776536167
    C            0.191766888843     0.811526827591    -0.077746511799
    H           -1.254920809047     0.775545555402    -1.674046025480
    H           -1.810715734745     1.483536654472    -0.212490044384
    O            0.784097373954    -0.430962718497     0.138524669092
    H            0.772266868879     1.395457412928    -0.788531561163
    H            0.177624123879     1.358776885202     0.862838699478
    C            2.078688908458    -0.367706545361     0.635670671721
    H            2.429659195310    -1.379672739325     0.776794748174
    H            2.748076296330     0.141897902658    -0.054183602812
    H            2.110514117679     0.150298799013     1.591551260782

  Mulliken Charges: (a.u.)
   Center  Symbol    Alpha    Beta     Spin     Total
       1     H     0.43056  0.43056  0.00000  0.13889
       2     N     3.68876  3.68876  0.00000 -0.37753
       3     C     3.02651  3.02651  0.00000 -0.05303
       4     H     0.42042  0.42042  0.00000  0.15915
       5     C     2.95694  2.95694  0.00000  0.08612
       6     H     0.47046  0.47046  0.00000  0.05908
       7     H     0.46266  0.46266  0.00000  0.07467
       8     O     4.17631  4.17631  0.00000 -0.35262
       9     H     0.47286  0.47286  0.00000  0.05428
      10     H     0.47484  0.47484  0.00000  0.05032
      11     C     3.03009  3.03009  0.00000 -0.06017
      12     H     0.44734  0.44734  0.00000  0.10533
      13     H     0.47158  0.47158  0.00000  0.05684
      14     H     0.47067  0.47067  0.00000  0.05867

   Total alpha = 21.00000, Total beta = 21.00000, Total charge =  0.00000
