                              Psi4 1.0.54 Driver

  ==> Input File <==

--------------------------------------------------------------------------
set {
	reference rhf
	basis cc-pvtz
}

set_num_threads( 4 )
memory 2 gb

molecule MOL {
0 1

H	 5.269878	 0.195679	 1.068175
C	 4.673900	 -0.208485	 0.258034
C	 3.190199	 -0.204714	 0.610086
H	 4.865136	 0.391893	 -0.624684
H	 5.027838	 -1.214511	 0.056939
C	 2.319208	 -0.778154	 -0.505491
H	 2.876954	 0.809861	 0.827925
H	 3.035335	 -0.782733	 1.518235
C	 2.861358	 -0.516782	 -1.907150
H	 2.206429	 -1.845975	 -0.364538
H	 1.325998	 -0.343697	 -0.437931
C	 4.096689	 -1.323386	 -2.270235
H	 2.106816	 -0.770466	 -2.647472
H	 3.071985	 0.538754	 -2.052054
C	 4.916901	 -0.851014	 -3.454924
O	 4.403669	 -2.300537	 -1.666734
C	 4.161439	 -0.899643	 -4.787319
H	 5.796408	 -1.478787	 -3.501910
H	 5.242518	 0.167845	 -3.262321
C	 5.042954	 -0.509824	 -5.970806
H	 3.775987	 -1.903633	 -4.942321
H	 3.301306	 -0.238587	 -4.753014
C	 4.305213	 -0.561209	 -7.304306
H	 5.903658	 -1.170780	 -6.008197
H	 5.433423	 0.491613	 -5.811966
H	 3.929896	 -1.558866	 -7.505549
H	 3.458779	 0.117442	 -7.310799
H	 4.958137	 -0.282524	 -8.123047

	symmetry c1
}
set optking {
	frozen_dihedral = ("
		10 6 3 2
	")
}

ee,wfn = optimize('scf', return_wfn=True)
oeprop( wfn, 'DIPOLE', 'QUADRUPOLE', 'MULLIKEN_CHARGES')
f=open( 'psi4out.xyz', 'w' )
f.write( "28  " )
f.write( str(ee) + "\n" )
f.write( MOL.save_string_xyz() )
f.close()
--------------------------------------------------------------------------

    Molecular point group: c1
  Charge       = 0
  Multiplicity = 1
  Basis Set: CC-PVTZ
  Basis Set:
  @DF-RHF Final Energy:  -426.30431851136143
    Total Energy =                       -426.3043185113613163
    Molecular point group: c1
  Basis Set: CC-PVTZ
  Basis Set:
  Basis Set: CC-PVTZ
  Basis Set:
  @DF-RHF Final Energy:  -426.25926752337568
    Total Energy =                       -426.2592675233761383
  Basis Set: CC-PVTZ
  Basis Set:
  Basis Set: CC-PVTZ
  Basis Set:
  @DF-RHF Final Energy:  -426.30916447816753
    Total Energy =                       -426.3091644781670766
  Basis Set: CC-PVTZ
  Basis Set:
  Basis Set: CC-PVTZ
  Basis Set:
  @DF-RHF Final Energy:  -426.31224338857794
    Total Energy =                       -426.3122433885780538
  Basis Set: CC-PVTZ
  Basis Set:
  @DF-RHF Final Energy:  -426.31279458473989
    Total Energy =                       -426.3127945847395495
  @DF-RHF Final Energy:  -426.31300933098009
    Total Energy =                       -426.3130093309803215
  @DF-RHF Final Energy:  -426.31318650442324
    Total Energy =                       -426.3131865044233564
  Basis Set: CC-PVTZ
  Basis Set:
  @DF-RHF Final Energy:  -426.31331229921375
    Total Energy =                       -426.3133122992145445
  Basis Set: CC-PVTZ
  Basis Set:
  Basis Set: CC-PVTZ
  Basis Set:
  @DF-RHF Final Energy:  -426.31334009988984
    Total Energy =                       -426.3133400998897287
  Basis Set: CC-PVTZ
  Basis Set:
  Basis Set: CC-PVTZ
  Basis Set:
  @DF-RHF Final Energy:  -426.31334483568332
    Total Energy =                       -426.3133448356832105
  Basis Set: CC-PVTZ
  Basis Set:
  Charge       = 0
  Multiplicity = 1
  Basis Set: CC-PVTZ
  Basis Set:

    Orbital Energies (a.u.)
    -----------------------

    Doubly Occupied:

       1A    -20.535274     2A    -11.316114     3A    -11.229618
       4A    -11.228529     5A    -11.226530     6A    -11.223593
       7A    -11.215460     8A    -11.214595     9A    -11.214040
      10A    -11.204748    11A     -1.395675    12A     -1.095838
      13A     -1.077287    14A     -1.021834    15A     -0.989878
      16A     -0.913681    17A     -0.881987    18A     -0.808672
      19A     -0.791091    20A     -0.722603    21A     -0.669327
      22A     -0.650662    23A     -0.639308    24A     -0.626828
      25A     -0.603915    26A     -0.594835    27A     -0.579694
      28A     -0.554686    29A     -0.551503    30A     -0.537595
      31A     -0.524444    32A     -0.512120    33A     -0.506815
      34A     -0.484705    35A     -0.478044    36A     -0.475500
      37A     -0.471928    38A     -0.458135    39A     -0.454979
      40A     -0.393560

  @DF-RHF Final Energy:  -426.31334533263816

   => Energetics <=

    Nuclear Repulsion Energy =            542.5476646751399130
    One-Electron Energy =               -1653.5707605082404825
    Two-Electron Energy =                 684.7097505004624054
    DFT Exchange-Correlation Energy =       0.0000000000000000
    Empirical Dispersion Energy =           0.0000000000000000
    PCM Polarization Energy =               0.0000000000000000
    EFP Energy =                            0.0000000000000000
    Total Energy =                       -426.3133453326381641
    Molecular point group: c1
  Basis Set: CC-PVTZ
  Basis Set:

  -Total Gradient:
     Atom            X                  Y                   Z
    ------   -----------------  -----------------  -----------------
       1        0.000012048487     0.000016546510     0.000017874161
       2       -0.001547894899     0.003265118968    -0.001932332584
       3        0.001061491937    -0.004837488899     0.003459409423
       4       -0.000004040736     0.000005288355    -0.000023121686
       5        0.000008844554    -0.000025704359    -0.000001385527
       6        0.005137301160     0.002164192711    -0.004294026086
       7        0.000013359939     0.000000607623     0.000001704056
       8       -0.000005714897    -0.000010132236    -0.000008125202
       9        0.000029351338     0.000022278852     0.000015832878
      10       -0.004681540798    -0.000580991709     0.002740566620
      11       -0.000005325531    -0.000001477566    -0.000006009377
      12       -0.000025494038     0.000024336375    -0.000004122657
      13       -0.000000172518    -0.000005290867    -0.000003369494
      14       -0.000010438872     0.000005926191     0.000014652862
      15       -0.000008218912     0.000018452905     0.000009622406
      16        0.000026883680    -0.000024879790    -0.000000781720
      17        0.000006237562    -0.000030766330    -0.000000019443
      18       -0.000007274425    -0.000008104067    -0.000001331888
      19        0.000004556511    -0.000001753746     0.000009402326
      20        0.000005777988     0.000003219930     0.000006322230
      21       -0.000003257342    -0.000001867021    -0.000006894772
      22        0.000003162785    -0.000003274917     0.000004851899
      23       -0.000008984748     0.000005893996    -0.000001520604
      24       -0.000003119371    -0.000001034240     0.000003767883
      25        0.000001066157    -0.000002307530    -0.000004217793
      26        0.000003383635     0.000005006311     0.000003768787
      27       -0.000001635178    -0.000001661681    -0.000002339677
      28       -0.000000353467    -0.000000133773     0.000001822988

  **** Optimization is complete! (in 11 steps) ****
    Final optimized geometry and variables:
    Molecular point group: c1

    Geometry (in Angstrom), charge = 0, multiplicity = 1:

    H            0.730521295882     1.676836344378     4.033239228962
    C            0.462784663932     1.052947661321     3.188096869320
    C           -0.948928666113     0.500266344222     3.372328433410
    H            0.539381642662     1.670897888874     2.300215155405
    H            1.198866647674     0.262879466002     3.110657176818
    C           -1.493676009512    -0.411793605046     2.256907460990
    H           -1.621251308115     1.347789715428     3.477887480794
    H           -1.003158060452    -0.041093357385     4.310077234971
    C           -1.099429860356    -0.060673784928     0.824498940995
    H           -1.246053046150    -1.444309314522     2.463791901892
    H           -2.576955443301    -0.367438474077     2.314266804413
    C            0.265719579129    -0.560756187339     0.381296844020
    H           -1.807455998901    -0.523492581063     0.141341009506
    H           -1.174475618522     1.006279174268     0.642851414944
    C            0.906179355584     0.123377826415    -0.810420457529
    O            0.797631336229    -1.479117873548     0.916310675717
    C            0.132664598287    -0.083395069086    -2.117469316641
    H            1.908126164744    -0.272808972262    -0.904726046738
    H            0.982992066682     1.186774216658    -0.601377400505
    C            0.837997170944     0.543262808004    -3.317137582018
    H            0.005927540665    -1.148297830019    -2.291147488044
    H           -0.863873070967     0.338285816932    -2.031704796318
    C            0.080412587741     0.340560498543    -4.624808137827
    H            1.833979553598     0.120168725388    -3.407018487991
    H            0.972547711670     1.606491845086    -3.138368719747
    H           -0.041005457036    -0.714191154270    -4.847014241399
    H           -0.908615090564     0.784061070290    -4.578046409795
    H            0.607050885928     0.794803957278    -5.455844648339

  Mulliken Charges: (a.u.)
   Center  Symbol    Alpha    Beta     Spin     Total
       1     H     0.44372  0.44372  0.00000  0.11257
       2     C     3.16174  3.16174  0.00000 -0.32349
       3     C     3.08541  3.08541  0.00000 -0.17083
       4     H     0.46037  0.46037  0.00000  0.07926
       5     H     0.44158  0.44158  0.00000  0.11684
       6     C     3.09703  3.09703  0.00000 -0.19407
       7     H     0.45542  0.45542  0.00000  0.08917
       8     H     0.44890  0.44890  0.00000  0.10220
       9     C     3.13132  3.13132  0.00000 -0.26265
      10     H     0.44075  0.44075  0.00000  0.11850
      11     H     0.44682  0.44682  0.00000  0.10636
      12     C     2.86042  2.86042  0.00000  0.27916
      13     H     0.43214  0.43214  0.00000  0.13573
      14     H     0.44100  0.44100  0.00000  0.11800
      15     C     3.09403  3.09403  0.00000 -0.18806
      16     O     4.18130  4.18130  0.00000 -0.36261
      17     C     3.10029  3.10029  0.00000 -0.20058
      18     H     0.43808  0.43808  0.00000  0.12385
      19     H     0.44862  0.44862  0.00000  0.10275
      20     C     3.08712  3.08712  0.00000 -0.17424
      21     H     0.44522  0.44522  0.00000  0.10957
      22     H     0.45041  0.45041  0.00000  0.09918
      23     C     3.14942  3.14942  0.00000 -0.29885
      24     H     0.44981  0.44981  0.00000  0.10039
      25     H     0.45365  0.45365  0.00000  0.09270
      26     H     0.45338  0.45338  0.00000  0.09324
      27     H     0.45522  0.45522  0.00000  0.08956
      28     H     0.44683  0.44683  0.00000  0.10634

   Total alpha = 40.00000, Total beta = 40.00000, Total charge =  0.00000

*** Psi4 exiting successfully. Buy a developer a beer!
