                              Psi4 1.0.54 Driver

  ==> Input File <==

--------------------------------------------------------------------------
set {
	reference rhf
	basis cc-pvtz
}

set_num_threads( 4 )
memory 2 gb

molecule MOL {
0 1

H	 -3.341585	 -2.913301	 -4.183500
O	 -3.747183	 -3.752311	 -4.067815
C	 -2.902275	 -4.603898	 -3.339666
C	 -2.804027	 -4.244539	 -1.864575
H	 -3.321773	 -5.595490	 -3.443339
H	 -1.909766	 -4.625810	 -3.785643
C	 -2.143123	 -2.895524	 -1.590327
H	 -3.803022	 -4.255691	 -1.439084
H	 -2.239849	 -5.029340	 -1.366390
C	 -2.032349	 -2.583964	 -0.098518
H	 -2.709968	 -2.111950	 -2.081960
H	 -1.147865	 -2.885752	 -2.031521
C	 -1.311023	 -1.277304	 0.237018
H	 -3.028337	 -2.566104	 0.337274
H	 -1.505452	 -3.401114	 0.386369
C	 -2.041121	 -0.006551	 -0.194127
H	 -1.157075	 -1.239260	 1.311904
H	 -0.318933	 -1.290809	 -0.208773
C	 -3.489218	 0.042606	 0.286507
H	 -2.022185	 0.066287	 -1.279394
H	 -1.518764	 0.869305	 0.178730
C	 -4.219984	 1.311773	 -0.139038
H	 -4.022855	 -0.824300	 -0.093339
H	 -3.510372	 -0.038577	 1.370031
H	 -4.244251	 1.405725	 -1.219696
H	 -5.244345	 1.313233	 0.215630
H	 -3.732090	 2.196311	 0.257073

	symmetry c1
}
set optking {
	frozen_dihedral = ("
		10 13 16 20
	")
}

ee,wfn = optimize('scf', return_wfn=True)
oeprop( wfn, 'DIPOLE', 'QUADRUPOLE', 'MULLIKEN_CHARGES')
f=open( 'psi4out.xyz', 'w' )
f.write( "27  " )
f.write( str(ee) + "\n" )
f.write( MOL.save_string_xyz() )
f.close()
--------------------------------------------------------------------------

    Molecular point group: c1
  Charge       = 0
  Multiplicity = 1
  Basis Set: CC-PVTZ
  Basis Set:
  @DF-RHF Final Energy:  -388.42443514884536
    Total Energy =                       -388.4244351488449638
    Molecular point group: c1
  Basis Set: CC-PVTZ
  Basis Set:
  Basis Set: CC-PVTZ
  Basis Set:
  @DF-RHF Final Energy:  -388.39366362362767
    Total Energy =                       -388.3936636236275035
  Basis Set: CC-PVTZ
  Basis Set:
  Basis Set: CC-PVTZ
  Basis Set:
  @DF-RHF Final Energy:  -388.42416190410728
    Total Energy =                       -388.4241619041071090
  Basis Set: CC-PVTZ
  Basis Set:
  Basis Set: CC-PVTZ
  Basis Set:
  @DF-RHF Final Energy:  -388.42578396563221
    Total Energy =                       -388.4257839656323767
  Basis Set: CC-PVTZ
  Basis Set:
  Basis Set: CC-PVTZ
  Basis Set:
  @DF-RHF Final Energy:  -388.42588324056391
    Total Energy =                       -388.4258832405629391
  Basis Set: CC-PVTZ
  Basis Set:
  Basis Set: CC-PVTZ
  Basis Set:
  @DF-RHF Final Energy:  -388.42590646130895
    Total Energy =                       -388.4259064613087276
  Basis Set: CC-PVTZ
  Basis Set:
  Charge       = 0
  Multiplicity = 1
  Basis Set: CC-PVTZ
  Basis Set:

    Orbital Energies (a.u.)
    -----------------------

    Doubly Occupied:

       1A    -20.545553     2A    -11.265108     3A    -11.216777
       4A    -11.213988     5A    -11.213675     6A    -11.213397
       7A    -11.213342     8A    -11.212204     9A    -11.207178
      10A     -1.363450    11A     -1.096449    12A     -1.060951
      13A     -1.011229    14A     -0.950349    15A     -0.888433
      16A     -0.832086    17A     -0.803021    18A     -0.763739
      19A     -0.696404    20A     -0.651520    21A     -0.640834
      22A     -0.614791    23A     -0.601110    24A     -0.589138
      25A     -0.576834    26A     -0.567466    27A     -0.533204
      28A     -0.522271    29A     -0.512784    30A     -0.496459
      31A     -0.488986    32A     -0.478243    33A     -0.469757
      34A     -0.453421    35A     -0.447467    36A     -0.445832
      37A     -0.425675

  @DF-RHF Final Energy:  -388.42590718467596

   => Energetics <=

    Nuclear Repulsion Energy =            470.0272349850819751
    One-Electron Energy =               -1458.3400272552169099
    Two-Electron Energy =                 599.8868850854590846
    DFT Exchange-Correlation Energy =       0.0000000000000000
    Empirical Dispersion Energy =           0.0000000000000000
    PCM Polarization Energy =               0.0000000000000000
    EFP Energy =                            0.0000000000000000
    Total Energy =                       -388.4259071846757934
    Molecular point group: c1
  Basis Set: CC-PVTZ
  Basis Set:

  -Total Gradient:
     Atom            X                  Y                   Z
    ------   -----------------  -----------------  -----------------
       1       -0.000005929459    -0.000039483617     0.000003114766
       2        0.000024221187    -0.000016520821     0.000008067405
       3        0.000022327000     0.000050280385    -0.000028332144
       4       -0.000011438629     0.000005436498     0.000005706313
       5        0.000000000213     0.000021802704    -0.000000897035
       6       -0.000008095055    -0.000016119303    -0.000003873531
       7       -0.000008554317    -0.000030800810     0.000002195480
       8        0.000008707720     0.000017170680     0.000004028258
       9       -0.000015834619     0.000004574948    -0.000000179055
      10       -0.000944452052    -0.000131570533     0.001151091915
      11       -0.000002088942     0.000001691111     0.000023445560
      12       -0.000019053153    -0.000002634245    -0.000002872057
      13        0.001724430258     0.000520025347    -0.001582004736
      14        0.000014150209    -0.000000174340    -0.000005088922
      15       -0.000016691606     0.000009594441    -0.000018201109
      16       -0.002123332274    -0.001832756792    -0.000009907918
      17       -0.000006530058     0.000003786197    -0.000016564258
      18        0.000007469895     0.000003643896     0.000023789474
      19       -0.000001738558     0.000067611461     0.000072559173
      20        0.001373860826     0.001408378625     0.000374409664
      21       -0.000022861080    -0.000020338354     0.000003257796
      22       -0.000004712561    -0.000014225714    -0.000012180040
      23        0.000024476277     0.000080602179     0.000039145182
      24       -0.000032501812     0.000003594568    -0.000043429438
      25        0.000013133334    -0.000002073303     0.000044910037
      26        0.000019841727    -0.000001211117    -0.000008620058
      27       -0.000008804468    -0.000090284090    -0.000023570721

  **** Optimization is complete! (in 7 steps) ****
    Final optimized geometry and variables:
    Molecular point group: c1

    Geometry (in Angstrom), charge = 0, multiplicity = 1:

    H            0.084087446198    -1.047162035540    -2.930848267707
    O           -0.080923083598    -1.967672851116    -2.847454221617
    C            0.861519784380    -2.554269823142    -1.989050289271
    C            0.647358655583    -2.204886118535    -0.523950515394
    H            0.760270734461    -3.622552338620    -2.124854317937
    H            1.871078851244    -2.285219044777    -2.293465383520
    C            0.845711538363    -0.727026201462    -0.195487083375
    H           -0.354445146739    -2.511613168552    -0.238633890726
    H            1.339725616828    -2.800471595222     0.066141394141
    C            0.668012797696    -0.420777012275     1.290638364825
    H            0.144001228742    -0.132962566911    -0.772330441076
    H            1.842573960572    -0.419445533899    -0.506470735118
    C            0.936895716167     1.034832747216     1.680833345772
    H           -0.331853438313    -0.708856220713     1.598803046488
    H            1.347257891906    -1.050943925647     1.858006476469
    C            0.022412090585     2.094598916080     1.057464814924
    H            0.860172854321     1.110762515314     2.762262185641
    H            1.966416241689     1.281394805327     1.435730469724
    C           -1.473187570863     1.877984391182     1.274016230416
    H            0.230284700907     2.189663939263    -0.004895689004
    H            0.295859851796     3.054945344656     1.487236017894
    C           -2.316796647197     3.037729763193     0.754353136539
    H           -1.793188705842     0.963669049474     0.786030116030
    H           -1.665663647494     1.740180138609     2.334927583726
    H           -2.162868794877     3.187180320334    -0.309286483288
    H           -3.373700804146     2.856414323101     0.912174193282
    H           -2.060935124669     3.964389764765     1.256836296975

  Mulliken Charges: (a.u.)
   Center  Symbol    Alpha    Beta     Spin     Total
       1     H     0.39220  0.39220  0.00000  0.21559
       2     O     4.20565  4.20565  0.00000 -0.41130
       3     C     2.98024  2.98024  0.00000  0.03951
       4     C     3.08898  3.08898  0.00000 -0.17797
       5     H     0.44844  0.44844  0.00000  0.10311
       6     H     0.46952  0.46952  0.00000  0.06095
       7     C     3.10219  3.10219  0.00000 -0.20439
       8     H     0.45058  0.45058  0.00000  0.09884
       9     H     0.45510  0.45510  0.00000  0.08980
      10     C     3.10818  3.10818  0.00000 -0.21636
      11     H     0.45640  0.45640  0.00000  0.08720
      12     H     0.45231  0.45231  0.00000  0.09539
      13     C     3.10377  3.10377  0.00000 -0.20755
      14     H     0.44782  0.44782  0.00000  0.10436
      15     H     0.44335  0.44335  0.00000  0.11330
      16     C     3.10483  3.10483  0.00000 -0.20966
      17     H     0.44719  0.44719  0.00000  0.10561
      18     H     0.44806  0.44806  0.00000  0.10388
      19     C     3.08643  3.08643  0.00000 -0.17286
      20     H     0.45224  0.45224  0.00000  0.09551
      21     H     0.44465  0.44465  0.00000  0.11069
      22     C     3.14979  3.14979  0.00000 -0.29957
      23     H     0.45183  0.45183  0.00000  0.09633
      24     H     0.45237  0.45237  0.00000  0.09526
      25     H     0.45545  0.45545  0.00000  0.08911
      26     H     0.44789  0.44789  0.00000  0.10422
      27     H     0.45450  0.45450  0.00000  0.09099

   Total alpha = 37.00000, Total beta = 37.00000, Total charge = -0.00000

*** Psi4 exiting successfully. Buy a developer a beer!
