  ==> Input File <==

--------------------------------------------------------------------------
set {
	reference rhf
	basis 6-31G*
}

set_num_threads( 4 )
memory 2 gb

molecule MOL {
0 1

H	 2.419119	 -0.710277	 0.353736
C	 1.696523	 0.086296	 0.427098
O	 0.464886	 -0.454746	 -0.000158
H	 2.003038	 0.907527	 -0.209812
H	 1.638215	 0.423257	 1.455260
C	 -0.590998	 0.343045	 0.000118
O	 -1.699443	 -0.054298	 0.000227
H	 -0.340329	 1.404368	 0.000207

	symmetry c1
}
set optking {
	frozen_dihedral = ("
		2 3 6 7
	")
}

ee = optimize('scf')
oeprop('DIPOLE', 'QUADRUPOLE', 'MULLIKEN_CHARGES')
f=open( 'psi4out.xyz', 'w' )
f.write( "8  " )
f.write( str(ee) + "\n" )
f.write( MOL.save_string_xyz() )
f.close()
--------------------------------------------------------------------------

    Molecular point group: c1
  Charge       = 0
  Multiplicity = 1
  Basis Set: 6-31G*
  Basis Set:
  @DF-RHF Final Energy:  -227.77793847261876
    Total Energy =                       -227.7779384726188425
    Molecular point group: c1
  Basis Set: 6-31G*
  Basis Set:
  Basis Set: 6-31G*
  Basis Set:
  @DF-RHF Final Energy:  -227.77794336638937
    Total Energy =                       -227.7779433663893656
  Basis Set: 6-31G*
  Basis Set:
  Basis Set: 6-31G*
  Basis Set:
  @DF-RHF Final Energy:  -227.77805202171402
    Total Energy =                       -227.7780520217141600
  Basis Set: 6-31G*
  Basis Set:
  Basis Set: 6-31G*
  Basis Set:
  @DF-RHF Final Energy:  -227.77807379330721
    Total Energy =                       -227.7780737933071578
  Basis Set: 6-31G*
  Basis Set:
  Basis Set: 6-31G*
  Basis Set:
  @DF-RHF Final Energy:  -227.77807616023821
    Total Energy =                       -227.7780761602382142
  Basis Set: 6-31G*
  Basis Set:
  Charge       = 0
  Multiplicity = 1
  Basis Set: 6-31G*
  Basis Set:

    Orbital Energies (a.u.)
    -----------------------

    Doubly Occupied:

       1A    -20.615504     2A    -20.559293     3A    -11.382462
       4A    -11.304630     5A     -1.476323     6A     -1.383250
       7A     -0.993439     8A     -0.848729     9A     -0.738465
      10A     -0.685452    11A     -0.681434    12A     -0.608210
      13A     -0.570931    14A     -0.537511    15A     -0.462682
      16A     -0.453761

  @DF-RHF Final Energy:  -227.77807631357868

   => Energetics <=

    Nuclear Repulsion Energy =            121.2073286326796335
    One-Electron Energy =                -551.3666521610630298
    Two-Electron Energy =                 202.3812472148046879
    DFT Exchange-Correlation Energy =       0.0000000000000000
    Empirical Dispersion Energy =           0.0000000000000000
    PCM Polarization Energy =               0.0000000000000000
    EFP Energy =                            0.0000000000000000
    Total Energy =                       -227.7780763135787367
    Molecular point group: c1
  Basis Set: 6-31G*
  Basis Set:

  -Total Gradient:
     Atom            X                  Y                   Z
    ------   -----------------  -----------------  -----------------
       1       -0.000023152556    -0.000011350393    -0.000010151562
       2       -0.000544265799    -0.000322241485     0.002453965900
       3        0.000846305468     0.000700716189    -0.002097201950
       4       -0.000009196670    -0.000005893898    -0.000007466041
       5        0.000005600022    -0.000003305710    -0.000001935995
       6       -0.000323840549    -0.000763691264    -0.003492444553
       7        0.000035559357     0.000414855368     0.003154447884
       8        0.000012990726    -0.000009088807     0.000000786318

  **** Optimization is complete! (in 6 steps) ****
    Final optimized geometry and variables:
    Molecular point group: c1

    Geometry (in Angstrom), charge = 0, multiplicity = 1:

    H            2.454371790284    -0.661684850382     0.122981663551
    C            1.710547632253     0.095699232118     0.311255058906
    O            0.466403486903    -0.462042043897    -0.050641547420
    H            1.936600681918     0.973846137248    -0.283671478374
    H            1.718896658823     0.356394155314     1.362189119369
    C           -0.569937762781     0.356061125693    -0.161851728824
    O           -1.688881763003    -0.007307853094    -0.118521516976
    H           -0.289298069412     1.401334835354    -0.295678570022

  Mulliken Charges: (a.u.)
   Center  Symbol    Alpha    Beta     Spin     Total
       1     H     0.39730  0.39730  0.00000  0.20540
       2     C     3.09909  3.09909  0.00000 -0.19817
       3     O     4.27803  4.27803  0.00000 -0.55605
       4     H     0.41655  0.41655  0.00000  0.16691
       5     H     0.41022  0.41022  0.00000  0.17956
       6     C     2.72212  2.72212  0.00000  0.55576
       7     O     4.24475  4.24475  0.00000 -0.48951
       8     H     0.43195  0.43195  0.00000  0.13611

   Total alpha = 16.00000, Total beta = 16.00000, Total charge =  0.00000
