  ==> Input File <==

--------------------------------------------------------------------------
set {
	reference rhf
	basis 6-31G*
}

set_num_threads( 1 )
memory 2 gb

molecule MOL {
0 1

O	 0.749854	 1.307668	 -0.000040
C	 0.576249	 0.131685	 -0.000108
C	 -0.766779	 -0.556801	 -0.000461
O	 1.568443	 -0.749345	 -0.000005
C	 -1.945214	 0.412366	 0.000161
H	 -0.796911	 -1.211249	 -0.867467
H	 -0.796854	 -1.212390	 0.865687
C	 -3.287791	 -0.317055	 0.000105
H	 -1.876087	 1.060580	 -0.866812
H	 -1.875822	 1.059691	 0.867761
H	 -3.394745	 -0.949193	 -0.877058
H	 -4.111778	 0.388953	 0.000015
H	 -3.394954	 -0.949187	 0.877259
C	 1.903690	 -1.339860	 -1.242627
H	 1.060173	 -1.881667	 -1.645698
H	 2.718999	 -2.015934	 -1.037542
H	 2.212394	 -0.584823	 -1.951239

	symmetry c1
}
set optking {
	frozen_dihedral = ("
		1 2 3 6,
		9 5 3 6
	")
}

ee = energy('scf')
oeprop('DIPOLE', 'QUADRUPOLE', 'MULLIKEN_CHARGES')
f=open( 'psi4out.xyz', 'w' )
f.write( "17  " )
f.write( str(ee) + "\n" )
f.write( MOL.save_string_xyz() )
f.close()
--------------------------------------------------------------------------

    Molecular point group: c1

    Geometry (in Angstrom), charge = 0, multiplicity = 1:

       Center              X                  Y                   Z               Mass
    ------------   -----------------  -----------------  -----------------  -----------------
           O          0.901644969033     1.478633601104     0.191863713823    15.994914619560
           C          0.728039969033     0.302650601104     0.191795713823    12.000000000000
           C         -0.614988030967    -0.385835398896     0.191442713823    12.000000000000
           O          1.720233969033    -0.578379398896     0.191898713823    15.994914619560
           C         -1.793423030967     0.583331601104     0.192064713823    12.000000000000
           H         -0.645120030967    -1.040283398896    -0.675563286177     1.007825032070
           H         -0.645063030967    -1.041424398896     1.057590713823     1.007825032070
           C         -3.136000030967    -0.146089398896     0.192008713823    12.000000000000
           H         -1.724296030967     1.231545601104    -0.674908286177     1.007825032070
           H         -1.724031030967     1.230656601104     1.059664713823     1.007825032070
           H         -3.242954030967    -0.778227398896    -0.685154286177     1.007825032070
           H         -3.959987030967     0.559918601104     0.191918713823     1.007825032070
           H         -3.243163030967    -0.778221398896     1.069162713823     1.007825032070
           C          2.055480969033    -1.168894398896    -1.050723286177    12.000000000000
           H          1.211963969033    -1.710701398896    -1.453794286177     1.007825032070
           H          2.870789969033    -1.844968398896    -0.845638286177     1.007825032070
           H          2.364184969033    -0.413857398896    -1.759335286177     1.007825032070

  Charge       = 0
  Multiplicity = 1
  Basis Set: 6-31G*
  Basis Set:

    Orbital Energies (a.u.)
    -----------------------

    Doubly Occupied:

       1A    -20.588647     2A    -20.555427     3A    -11.374254
       4A    -11.296826     5A    -11.238098     6A    -11.223401
       7A    -11.216295     8A     -1.464550     9A     -1.368599
      10A     -1.080440    11A     -0.994671    12A     -0.958307
      13A     -0.835226    14A     -0.768552    15A     -0.699101
      16A     -0.682541    17A     -0.677381    18A     -0.636440
      19A     -0.618092    20A     -0.578127    21A     -0.566361
      22A     -0.547108    23A     -0.518070    24A     -0.492257
      25A     -0.489180    26A     -0.481035    27A     -0.456241
      28A     -0.434182

  @DF-RHF Final Energy:  -344.88377717466153

   => Energetics <=

    Nuclear Repulsion Energy =            314.2307445082199138
    One-Electron Energy =               -1092.5503463544714577
    Two-Electron Energy =                 433.4358246715902396
    DFT Exchange-Correlation Energy =       0.0000000000000000
    Empirical Dispersion Energy =           0.0000000000000000
    PCM Polarization Energy =               0.0000000000000000
    EFP Energy =                            0.0000000000000000
    Total Energy =                       -344.8837771746613043

  Mulliken Charges: (a.u.)
   Center  Symbol    Alpha    Beta     Spin     Total
       1     O     4.25754  4.25754  0.00000 -0.51507
       2     C     2.61518  2.61518  0.00000  0.76963
       3     C     3.21343  3.21343  0.00000 -0.42686
       4     O     4.30867  4.30867  0.00000 -0.61734
       5     C     3.15202  3.15202  0.00000 -0.30405
       6     H     0.40868  0.40868  0.00000  0.18263
       7     H     0.39885  0.39885  0.00000  0.20230
       8     C     3.24249  3.24249  0.00000 -0.48497
       9     H     0.41206  0.41206  0.00000  0.17589
      10     H     0.40927  0.40927  0.00000  0.18147
      11     H     0.42281  0.42281  0.00000  0.15438
      12     H     0.41485  0.41485  0.00000  0.17029
      13     H     0.42108  0.42108  0.00000  0.15785
      14     C     3.09410  3.09410  0.00000 -0.18821
      15     H     0.42052  0.42052  0.00000  0.15896
      16     H     0.39990  0.39990  0.00000  0.20020
      17     H     0.40855  0.40855  0.00000  0.18289

   Total alpha = 28.00000, Total beta = 28.00000, Total charge =  0.00000
