  ==> Input File <==

--------------------------------------------------------------------------
set {
	reference rhf
	basis cc-pvtz
}

set_num_threads( 4 )
memory 2 gb

molecule MOL {
0 1

H	 -0.000342	 -0.223902	 -3.352295
C	 -0.027146	 0.371068	 -2.446756
C	 0.024493	 -0.518541	 -1.216015
H	 -0.932586	 0.964979	 -2.449855
H	 0.819708	 1.049865	 -2.473332
N	 -0.042516	 0.263377	 -0.000000
H	 -0.822211	 -1.197105	 -1.225584
H	 0.921114	 -1.142847	 -1.255206
C	 0.024493	 -0.518541	 1.216015
H	 0.682568	 0.950412	 -0.000000
C	 -0.048930	 0.369378	 2.446870
H	 -0.813391	 -1.208029	 1.218073
H	 0.928776	 -1.131203	 1.262271
H	 -0.961990	 0.951501	 2.442809
H	 -0.021959	 -0.225890	 3.352208
H	 0.788799	 1.059074	 2.480957

	symmetry c1
}
set optking {
	frozen_dihedral = ("
		12 9 6 3
	")
}

ee = optimize('scf')
oeprop('DIPOLE', 'QUADRUPOLE', 'MULLIKEN_CHARGES')
f=open( 'psi4out.xyz', 'w' )
f.write( "16  " )
f.write( str(ee) + "\n" )
f.write( MOL.save_string_xyz() )
f.close()
--------------------------------------------------------------------------

    Molecular point group: c1
  Charge       = 0
  Multiplicity = 1
  Basis Set: CC-PVTZ
  Basis Set:
  @DF-RHF Final Energy:  -212.39468613112504
    Total Energy =                       -212.3946861311252405
    Molecular point group: c1
  Basis Set: CC-PVTZ
  Basis Set:
  Charge       = 0
  Multiplicity = 1
  Basis Set: CC-PVTZ
  Basis Set:

    Orbital Energies (a.u.)
    -----------------------

    Doubly Occupied:

       1A    -15.528832     2A    -11.239008     3A    -11.238985
       4A    -11.206583     5A    -11.206469     6A     -1.207484
       7A     -1.029214     8A     -0.963981     9A     -0.832385
      10A     -0.822443    11A     -0.662717    12A     -0.629570
      13A     -0.599368    14A     -0.590579    15A     -0.553993
      16A     -0.521578    17A     -0.508524    18A     -0.489436
      19A     -0.482185    20A     -0.475335    21A     -0.362205

  @DF-RHF Final Energy:  -212.39468637895811

   => Energetics <=

    Nuclear Repulsion Energy =            189.4330268595888924
    One-Electron Energy =                -661.3536715839293265
    Two-Electron Energy =                 259.5259583453820937
    DFT Exchange-Correlation Energy =       0.0000000000000000
    Empirical Dispersion Energy =           0.0000000000000000
    PCM Polarization Energy =               0.0000000000000000
    EFP Energy =                            0.0000000000000000
    Total Energy =                       -212.3946863789583404
    Molecular point group: c1
  Basis Set: CC-PVTZ
  Basis Set:

  -Total Gradient:
     Atom            X                  Y                   Z
    ------   -----------------  -----------------  -----------------
       1       -0.000001012631    -0.000001910181    -0.000003132854
       2       -0.000007122886    -0.000012582092     0.000010570804
       3       -0.000099610883    -0.000030835407    -0.000043654718
       4        0.000001042021     0.000003605174    -0.000000793168
       5       -0.000001889280    -0.000001944939     0.000003167759
       6        0.000161236104     0.000014756128    -0.000013379605
       7        0.000002261022     0.000006153337    -0.000001506198
       8       -0.000000636523    -0.000002506025    -0.000008693161
       9       -0.000172474577     0.000094273373     0.000106348460
      10        0.000017125330    -0.000000630951     0.000005090886
      11        0.000022106997     0.000013616398     0.000024818631
      12        0.000098226348    -0.000097807863    -0.000088553267
      13       -0.000017604158     0.000020045886    -0.000006260143
      14        0.000000814592    -0.000008949560    -0.000008333271
      15        0.000001861787    -0.000001669752     0.000015604645
      16       -0.000004323261     0.000006386474     0.000008705197

  **** Optimization is complete! (in 2 steps) ****
    Final optimized geometry and variables:
    Molecular point group: c1

    Geometry (in Angstrom), charge = 0, multiplicity = 1:

    H            0.004078141752    -0.223321818528    -3.352397552237
    C           -0.022195349865     0.371476442539    -2.446725426726
    C            0.029142843974    -0.518335317912    -1.216152978770
    H           -0.927246930139     0.965987397579    -2.449451478010
    H            0.825120712513     1.049683841261    -2.473249577151
    N           -0.038561885978     0.263448922849    -0.000125291308
    H           -0.817539427652    -1.196864433778    -1.226242205105
    H            0.925847211793    -1.142571385476    -1.255308309145
    C            0.028527458590    -0.518041425280     1.216096029997
    H            0.685576054503     0.951469926430     0.000106866320
    C           -0.044161904772     0.369910676855     2.446979524983
    H           -0.809033791846    -1.207832778808     1.217894988509
    H            0.932573463615    -1.131086768784     1.262095284784
    H           -0.957602191549     0.951392754791     2.443646002801
    H           -0.015620144251    -0.225156524557     3.352453278202
    H            0.793073302168     1.060239092013     2.479846117209

  Mulliken Charges: (a.u.)
   Center  Symbol    Alpha    Beta     Spin     Total
       1     H     0.45387  0.45387  0.00000  0.09226
       2     C     3.14204  3.14204  0.00000 -0.28408
       3     C     3.02188  3.02188  0.00000 -0.04376
       4     H     0.44951  0.44951  0.00000  0.10099
       5     H     0.45948  0.45948  0.00000  0.08103
       6     N     3.63625  3.63625  0.00000 -0.27250
       7     H     0.45854  0.45854  0.00000  0.08292
       8     H     0.47412  0.47412  0.00000  0.05175
       9     C     3.02218  3.02218  0.00000 -0.04435
      10     H     0.44494  0.44494  0.00000  0.11012
      11     C     3.14181  3.14181  0.00000 -0.28361
      12     H     0.45854  0.45854  0.00000  0.08291
      13     H     0.47387  0.47387  0.00000  0.05227
      14     H     0.44956  0.44956  0.00000  0.10088
      15     H     0.45397  0.45397  0.00000  0.09205
      16     H     0.45945  0.45945  0.00000  0.08111

   Total alpha = 21.00000, Total beta = 21.00000, Total charge = -0.00000
