  ==> Input File <==

--------------------------------------------------------------------------
set {
	reference rhf
	basis 6-31G*
}

set_num_threads( 4 )
memory 2 gb

molecule MOL {
0 1

H	 -0.639012	 4.415861	 1.078611
O	 0.042451	 3.813811	 0.815842
C	 -0.472249	 2.507760	 0.772192
C	 0.645275	 1.571400	 0.347789
H	 -0.854422	 2.213759	 1.748826
H	 -1.299266	 2.445262	 0.066163
C	 0.198102	 0.111031	 0.262842
H	 1.463087	 1.671981	 1.056164
H	 1.023382	 1.904523	 -0.614781
C	 1.331804	 -0.827780	 -0.158768
H	 -0.199092	 -0.197731	 1.226728
H	 -0.621287	 0.022526	 -0.449398
C	 2.723619	 -0.410569	 0.329459
H	 1.342964	 -0.912588	 -1.244120
H	 1.116806	 -1.824343	 0.220779
C	 3.243875	 0.895854	 -0.272975
H	 3.424222	 -1.207124	 0.091250
H	 2.714788	 -0.329854	 1.414619
H	 3.251977	 0.848779	 -1.358681
H	 2.637085	 1.747371	 0.016682
H	 4.259473	 1.094070	 0.055697

	symmetry c1
}
set optking {
	frozen_dihedral = ("
		4 7 10 14
	")
}

ee = optimize('scf')
oeprop('DIPOLE', 'QUADRUPOLE', 'MULLIKEN_CHARGES')
f=open( 'psi4out.xyz', 'w' )
f.write( "21  " )
f.write( str(ee) + "\n" )
f.write( MOL.save_string_xyz() )
f.close()
--------------------------------------------------------------------------

    Molecular point group: c1
  Charge       = 0
  Multiplicity = 1
  Basis Set: 6-31G*
  Basis Set:
  @DF-RHF Final Energy:  -310.18075809029347
    Total Energy =                       -310.1807580902933523
    Molecular point group: c1
  Basis Set: 6-31G*
  Basis Set:
  Basis Set: 6-31G*
  Basis Set:
  @DF-RHF Final Energy:  -310.19813089907859
    Total Energy =                       -310.1981308990787625
  Basis Set: 6-31G*
  Basis Set:
  Basis Set: 6-31G*
  Basis Set:
  @DF-RHF Final Energy:  -310.20282410148741
    Total Energy =                       -310.2028241014874652
  Basis Set: 6-31G*
  Basis Set:
  Basis Set: 6-31G*
  Basis Set:
  @DF-RHF Final Energy:  -310.20421073943686
    Total Energy =                       -310.2042107394365758
  Basis Set: 6-31G*
  Basis Set:
  @DF-RHF Final Energy:  -310.20446252559094
    Total Energy =                       -310.2044625255906567
  Basis Set: 6-31G*
  Basis Set:
  @DF-RHF Final Energy:  -310.20496876529637
    Total Energy =                       -310.2049687652964849
  Basis Set: 6-31G*
  Basis Set:
  Basis Set: 6-31G*
  Basis Set:
  @DF-RHF Final Energy:  -310.20502176766911
    Total Energy =                       -310.2050217676689954
  Basis Set: 6-31G*
  Basis Set:
  Basis Set: 6-31G*
  Basis Set:
  @DF-RHF Final Energy:  -310.20502764590248
    Total Energy =                       -310.2050276459021347
  Basis Set: 6-31G*
  Basis Set:
  Charge       = 0
  Multiplicity = 1
  Basis Set: 6-31G*
  Basis Set:

    Orbital Energies (a.u.)
    -----------------------

    Doubly Occupied:

       1A    -20.552038     2A    -11.267139     3A    -11.217050
       4A    -11.214586     5A    -11.213983     6A    -11.210348
       7A    -11.204150     8A     -1.358845     9A     -1.083024
      10A     -1.028982    11A     -0.957766    12A     -0.873342
      13A     -0.815729    14A     -0.770006    15A     -0.689917
      16A     -0.659089    17A     -0.623931    18A     -0.606670
      19A     -0.582407    20A     -0.566630    21A     -0.539538
      22A     -0.523549    23A     -0.504423    24A     -0.490029
      25A     -0.483888    26A     -0.452366    27A     -0.447835
      28A     -0.442468    29A     -0.434228

  @DF-RHF Final Energy:  -310.20502816970804

   => Energetics <=

    Nuclear Repulsion Energy =            319.3869274799945970
    One-Electron Energy =               -1053.5559984466290189
    Two-Electron Energy =                 423.9640427969266057
    DFT Exchange-Correlation Energy =       0.0000000000000000
    Empirical Dispersion Energy =           0.0000000000000000
    PCM Polarization Energy =               0.0000000000000000
    EFP Energy =                            0.0000000000000000
    Total Energy =                       -310.2050281697078162
    Molecular point group: c1
  Basis Set: 6-31G*
  Basis Set:

  -Total Gradient:
     Atom            X                  Y                   Z
    ------   -----------------  -----------------  -----------------
       1       -0.000000479374     0.000020572658     0.000007393032
       2       -0.000025423924    -0.000000670914     0.000007452906
       3        0.000007811649     0.000003378316    -0.000029585983
       4        0.001083362522    -0.000676891808     0.004276285030
       5        0.000008079332     0.000007325897    -0.000003751414
       6       -0.000000920296     0.000008520234     0.000004731666
       7       -0.002454388324    -0.000093783273    -0.006125078049
       8       -0.000057274545     0.000026207161    -0.000042213418
       9        0.000022879060    -0.000001509752     0.000015984301
      10        0.004989959833     0.005361872605     0.001650328663
      11        0.000010650016    -0.000011555459     0.000014135707
      12        0.000014031925    -0.000006653111     0.000006403813
      13        0.000019112033    -0.000005667501     0.000069675238
      14       -0.003628046285    -0.004615242834     0.000210579182
      15       -0.000003299823     0.000026675273    -0.000000498782
      16        0.000014680911     0.000035381486    -0.000029224014
      17       -0.000009521925    -0.000017504681    -0.000012712177
      18        0.000015857217    -0.000047111189    -0.000013464328
      19        0.000007735904     0.000013484346    -0.000002689484
      20        0.000012352138    -0.000055034435    -0.000009188946
      21       -0.000027158044     0.000028206976     0.000005437055

  **** Optimization is complete! (in 9 steps) ****
    Final optimized geometry and variables:
    Molecular point group: c1

    Geometry (in Angstrom), charge = 0, multiplicity = 1:

    H           -2.105357903306     3.184001294966     0.944719887347
    O           -1.361196365743     2.673417332587     0.659278021992
    C           -1.734443228753     1.325521277470     0.530353164614
    C           -0.517898550189     0.539339977177     0.071969857089
    H           -2.094178358077     0.935243849051     1.481502061843
    H           -2.542262254735     1.219211868662    -0.192327219055
    C           -0.826818586665    -0.951469265986    -0.085093308218
    H            0.273277074653     0.694164081760     0.797067088188
    H           -0.176704499306     0.966571617459    -0.866354832817
    C            0.328002038193    -1.875779554753    -0.527468084204
    H           -1.190951711123    -1.311355473953     0.876201351502
    H           -1.651886251228    -1.080230993170    -0.781606049175
    C            1.734100356741    -1.593974768498     0.024941967775
    H            0.352874433269    -1.941405693937    -1.613375627022
    H            0.045117134142    -2.877492976679    -0.211568999928
    C            2.562365770666    -0.585346593228    -0.775040653346
    H            2.280795560560    -2.533268905974     0.040133389912
    H            1.664939320213    -1.276371826522     1.062825545991
    H            2.677481218264    -0.915565315414    -1.803763025231
    H            2.113859654055     0.400019341625    -0.793975302045
    H            3.556455464742    -0.484804009636    -0.349495833671

  Mulliken Charges: (a.u.)
   Center  Symbol    Alpha    Beta     Spin     Total
       1     H     0.28114  0.28114  0.00000  0.43773
       2     O     4.37215  4.37215  0.00000 -0.74429
       3     C     2.98864  2.98864  0.00000  0.02272
       4     C     3.16352  3.16352  0.00000 -0.32703
       5     H     0.43293  0.43293  0.00000  0.13413
       6     H     0.43280  0.43280  0.00000  0.13440
       7     C     3.16055  3.16055  0.00000 -0.32111
       8     H     0.41239  0.41239  0.00000  0.17522
       9     H     0.41451  0.41451  0.00000  0.17099
      10     C     3.15404  3.15404  0.00000 -0.30807
      11     H     0.42450  0.42450  0.00000  0.15099
      12     H     0.42153  0.42153  0.00000  0.15694
      13     C     3.15717  3.15717  0.00000 -0.31433
      14     H     0.42203  0.42203  0.00000  0.15594
      15     H     0.42086  0.42086  0.00000  0.15828
      16     C     3.24130  3.24130  0.00000 -0.48259
      17     H     0.42052  0.42052  0.00000  0.15896
      18     H     0.42142  0.42142  0.00000  0.15715
      19     H     0.42278  0.42278  0.00000  0.15444
      20     H     0.41464  0.41464  0.00000  0.17072
      21     H     0.42058  0.42058  0.00000  0.15883

   Total alpha = 29.00000, Total beta = 29.00000, Total charge =  0.00000
