  ==> Input File <==

--------------------------------------------------------------------------
set {
	reference rhf
	basis 6-31G*
}

set_num_threads( 4 )
memory 2 gb

molecule MOL {
0 1

O	 2.862325	 1.357334	 0.000267
C	 2.843464	 0.164689	 -0.000222
C	 1.546494	 -0.624492	 -0.000609
C	 4.124123	 -0.644674	 -0.000428
C	 0.291004	 0.242674	 0.000989
H	 1.557904	 -1.283758	 -0.867573
H	 1.558622	 -1.285963	 0.864672
C	 0.159496	 1.086243	 -1.268208
H	 0.305616	 0.888156	 0.873496
H	 -0.580934	 -0.393939	 0.113221
C	 -1.095292	 1.960976	 -1.277092
H	 1.038754	 1.719683	 -1.376399
H	 0.147100	 0.432814	 -2.139382
C	 -1.233883	 2.807924	 -2.543380
H	 -1.083615	 2.615092	 -0.407025
H	 -1.974933	 1.328733	 -1.169868
C	 -2.489551	 3.679118	 -2.544738
H	 -0.355711	 3.441213	 -2.651002
H	 -1.247192	 2.155067	 -3.413701
H	 -2.489891	 4.367515	 -1.704345
H	 -2.559472	 4.267769	 -3.454299
H	 -3.387747	 3.072215	 -2.473622
H	 4.165367	 -1.288615	 -0.874074
H	 4.976217	 0.020734	 -0.001915
H	 4.166763	 -1.286207	 0.874930

	symmetry c1
}
set optking {
	frozen_dihedral = ("
		9 5 3 6
	")
}

ee = optimize('scf')
oeprop('DIPOLE', 'QUADRUPOLE', 'MULLIKEN_CHARGES')
f=open( 'psi4out.xyz', 'w' )
f.write( "25  " )
f.write( str(ee) + "\n" )
f.write( MOL.save_string_xyz() )
f.close()
--------------------------------------------------------------------------

    Molecular point group: c1
  Charge       = 0
  Multiplicity = 1
  Basis Set: 6-31G*
  Basis Set:
  @DF-RHF Final Energy:  -387.13426131220331
    Total Energy =                       -387.1342613122031935
    Molecular point group: c1
  Basis Set: 6-31G*
  Basis Set:
  Basis Set: 6-31G*
  Basis Set:
  @DF-RHF Final Energy:  -387.13546972721247
    Total Energy =                       -387.1354697272122394
  Basis Set: 6-31G*
  Basis Set:
  Basis Set: 6-31G*
  Basis Set:
  @DF-RHF Final Energy:  -387.13336683202192
    Total Energy =                       -387.1333668320213519
  Basis Set: 6-31G*
  Basis Set:
  Basis Set: 6-31G*
  Basis Set:
  @DF-RHF Final Energy:  -387.13580026052682
    Total Energy =                       -387.1358002605264801
  Basis Set: 6-31G*
  Basis Set:
  @DF-RHF Final Energy:  -387.13592406263911
    Total Energy =                       -387.1359240626392193
  @DF-RHF Final Energy:  -387.13597193440671
    Total Energy =                       -387.1359719344070527
  @DF-RHF Final Energy:  -387.13599226829592
    Total Energy =                       -387.1359922682953538
  Basis Set: 6-31G*
  Basis Set:
  @DF-RHF Final Energy:  -387.13600148538217
    Total Energy =                       -387.1360014853814846
  Basis Set: 6-31G*
  Basis Set:
  Basis Set: 6-31G*
  Basis Set:
  @DF-RHF Final Energy:  -387.13600531458127
    Total Energy =                       -387.1360053145805296
  Basis Set: 6-31G*
  Basis Set:
  Basis Set: 6-31G*
  Basis Set:
  @DF-RHF Final Energy:  -387.13600668689361
    Total Energy =                       -387.1360066868928698
  Basis Set: 6-31G*
  Basis Set:
  Charge       = 0
  Multiplicity = 1
  Basis Set: 6-31G*
  Basis Set:

    Orbital Energies (a.u.)
    -----------------------

    Doubly Occupied:

       1A    -20.550694     2A    -11.327313     3A    -11.232360
       4A    -11.228936     5A    -11.218161     6A    -11.211844
       7A    -11.210528     8A    -11.209873     9A    -11.205713
      10A     -1.396285    11A     -1.090730    12A     -1.054725
      13A     -1.013627    14A     -0.967612    15A     -0.888840
      16A     -0.815416    17A     -0.787720    18A     -0.727228
      19A     -0.667939    20A     -0.637455    21A     -0.631254
      22A     -0.623270    23A     -0.592201    24A     -0.584915
      25A     -0.572396    26A     -0.557188    27A     -0.534128
      28A     -0.525980    29A     -0.515805    30A     -0.496253
      31A     -0.481754    32A     -0.474816    33A     -0.460309
      34A     -0.458522    35A     -0.439740    36A     -0.400438

  @DF-RHF Final Energy:  -387.13600684545918

   => Energetics <=

    Nuclear Repulsion Energy =            448.1423550353365499
    One-Electron Energy =               -1412.9727898868600278
    Two-Electron Energy =                 577.6944280060642996
    DFT Exchange-Correlation Energy =       0.0000000000000000
    Empirical Dispersion Energy =           0.0000000000000000
    PCM Polarization Energy =               0.0000000000000000
    EFP Energy =                            0.0000000000000000
    Total Energy =                       -387.1360068454591783
    Molecular point group: c1
  Basis Set: 6-31G*
  Basis Set:

  -Total Gradient:
     Atom            X                  Y                   Z
    ------   -----------------  -----------------  -----------------
       1        0.000002620285     0.000006086708     0.000011531030
       2       -0.000001297484    -0.000003463400     0.000003200322
       3        0.000638271743     0.000834999811    -0.000670169990
       4        0.000003344298     0.000007593792    -0.000006688979
       5        0.000600268928     0.000790456500    -0.000636045946
       6       -0.000623542436    -0.000816288951     0.000653910007
       7       -0.000002108194     0.000004737631    -0.000002337555
       8       -0.000004491389    -0.000002624169    -0.000003152584
       9       -0.000608541165    -0.000810784347     0.000650091566
      10       -0.000000551977     0.000001733318    -0.000000810660
      11       -0.000007071941     0.000002335970    -0.000001103993
      12        0.000002089761    -0.000004329799     0.000001463356
      13        0.000001754134     0.000003491897    -0.000001515693
      14       -0.000007800060    -0.000009059264    -0.000004351984
      15        0.000000557106     0.000000095109     0.000000742492
      16       -0.000001335222     0.000002688717    -0.000003227347
      17        0.000004672913     0.000004221993     0.000004901049
      18       -0.000002827102    -0.000000713435     0.000002724733
      19        0.000001713329    -0.000001861450    -0.000000881892
      20       -0.000002414110     0.000001298563     0.000001236171
      21        0.000001769812    -0.000000090049     0.000000275571
      22        0.000002678419    -0.000001054818    -0.000000732007
      23        0.000002420131    -0.000007860292     0.000000981480
      24        0.000001428001    -0.000001409073    -0.000002556196
      25       -0.000001607779    -0.000000200963     0.000002517047

  **** Optimization is complete! (in 11 steps) ****
    Final optimized geometry and variables:
    Molecular point group: c1

    Geometry (in Angstrom), charge = 0, multiplicity = 1:

    O            2.153106698162     0.177415854113     1.249662379349
    C            2.081863985446    -0.977567636735     0.958785963785
    C            0.755832033885    -1.713818468651     0.880374850606
    C            3.322647089845    -1.796837849029     0.672922855873
    C           -0.480028411179    -0.816030311807     0.834597721574
    H            0.771450361584    -2.399286666845     0.035646390381
    H            0.715954898863    -2.351148941836     1.764062987174
    C           -0.617413503751    -0.010969635762    -0.459316335392
    H           -0.463348708679    -0.147537043625     1.688639329363
    H           -1.357241434504    -1.448205732037     0.953528062517
    C           -1.883344273867     0.847057623435    -0.490774007320
    H            0.251187474666     0.627759240166    -0.582348080543
    H           -0.628038479629    -0.695336088142    -1.307327260716
    C           -2.034002680074     1.653558030630    -1.781835542690
    H           -1.874676509895     1.528290081845     0.358069736506
    H           -2.757159035335     0.209765888437    -0.362214866056
    C           -3.297836395800     2.512534791515    -1.805650898752
    H           -1.162129872759     2.291062339427    -1.910506919062
    H           -2.043752663609     0.974426756466    -2.632005450621
    H           -3.301495604442     3.226626012564    -0.987009386480
    H           -3.376362513043     3.072211515233    -2.732673756525
    H           -4.190375071637     1.899991435580    -1.712620446179
    H            3.358913591131    -2.044067884970    -0.384686119399
    H            4.205278166556    -1.230472382756     0.935762734810
    H            3.307284534314    -2.733059986486     1.222421643428

  Mulliken Charges: (a.u.)
   Center  Symbol    Alpha    Beta     Spin     Total
       1     O     4.26350  4.26350  0.00000 -0.52700
       2     C     2.73409  2.73409  0.00000  0.53182
       3     C     3.21237  3.21237  0.00000 -0.42474
       4     C     3.28734  3.28734  0.00000 -0.57468
       5     C     3.14969  3.14969  0.00000 -0.29937
       6     H     0.41209  0.41209  0.00000  0.17582
       7     H     0.40474  0.40474  0.00000  0.19052
       8     C     3.15751  3.15751  0.00000 -0.31501
       9     H     0.40820  0.40820  0.00000  0.18360
      10     H     0.42137  0.42137  0.00000  0.15726
      11     C     3.15144  3.15144  0.00000 -0.30287
      12     H     0.40859  0.40859  0.00000  0.18282
      13     H     0.42865  0.42865  0.00000  0.14271
      14     C     3.15157  3.15157  0.00000 -0.30314
      15     H     0.42097  0.42097  0.00000  0.15806
      16     H     0.42601  0.42601  0.00000  0.14798
      17     C     3.23929  3.23929  0.00000 -0.47858
      18     H     0.42128  0.42128  0.00000  0.15743
      19     H     0.42454  0.42454  0.00000  0.15091
      20     H     0.42117  0.42117  0.00000  0.15767
      21     H     0.41981  0.41981  0.00000  0.16037
      22     H     0.42265  0.42265  0.00000  0.15470
      23     H     0.40624  0.40624  0.00000  0.18752
      24     H     0.39673  0.39673  0.00000  0.20655
      25     H     0.41017  0.41017  0.00000  0.17966

   Total alpha = 36.00000, Total beta = 36.00000, Total charge = -0.00000
