  ==> Input File <==

--------------------------------------------------------------------------
set {
	reference rhf
	basis 6-31G*
}

set_num_threads( 1 )
memory 2 gb

molecule MOL {
0 1

O	 0.182608	 -4.503900	 -2.584464
C	 0.417374	 -3.439248	 -3.070093
C	 0.374212	 -2.174271	 -2.230881
C	 0.798878	 -3.297820	 -4.526742
C	 1.656059	 -2.026929	 -1.395237
H	 -0.482373	 -2.247362	 -1.569653
H	 0.240357	 -1.300793	 -2.862661
C	 1.631333	 -0.777471	 -0.511575
H	 1.770214	 -2.919766	 -0.790923
H	 2.520724	 -1.981567	 -2.055573
C	 2.915987	 -0.544314	 0.291766
H	 0.786532	 -0.839154	 0.171970
H	 1.452551	 0.092818	 -1.139653
C	 3.373361	 0.914346	 0.347591
H	 3.708709	 -1.142521	 -0.150311
H	 2.780642	 -0.921148	 1.303579
H	 3.506512	 1.320010	 -0.651625
H	 4.322697	 0.999599	 0.867103
H	 2.660624	 1.545032	 0.868198
H	 0.021556	 -2.753639	 -5.056745
H	 0.921844	 -4.274452	 -4.973792
H	 1.716806	 -2.726376	 -4.630009

	symmetry c1
}
set optking {
	frozen_dihedral = ("
		6 3 2 1,
		6 3 5 8,
		3 5 8 12
	")
}

ee = energy('scf')
oeprop('DIPOLE', 'QUADRUPOLE', 'MULLIKEN_CHARGES')
f=open( 'psi4out.xyz', 'w' )
f.write( "22  " )
f.write( str(ee) + "\n" )
f.write( MOL.save_string_xyz() )
f.close()
--------------------------------------------------------------------------

    Molecular point group: c1

    Geometry (in Angstrom), charge = 0, multiplicity = 1:

       Center              X                  Y                   Z               Mass
    ------------   -----------------  -----------------  -----------------  -----------------
           O         -1.246411670425    -2.527890623060    -0.872767862112    15.994914619560
           C         -1.011645670425    -1.463238623060    -1.358396862112    12.000000000000
           C         -1.054807670425    -0.198261623060    -0.519184862112    12.000000000000
           C         -0.630141670425    -1.321810623060    -2.815045862112    12.000000000000
           C          0.227039329575    -0.050919623060     0.316459137888    12.000000000000
           H         -1.911392670425    -0.271352623060     0.142043137888     1.007825032070
           H         -1.188662670425     0.675216376940    -1.150964862112     1.007825032070
           C          0.202313329575     1.198538376940     1.200121137888    12.000000000000
           H          0.341194329575    -0.943756623060     0.920773137888     1.007825032070
           H          1.091704329575    -0.005557623060    -0.343876862112     1.007825032070
           C          1.486967329575     1.431695376940     2.003462137888    12.000000000000
           H         -0.642487670425     1.136855376940     1.883666137888     1.007825032070
           H          0.023531329575     2.068827376940     0.572043137888     1.007825032070
           C          1.944341329575     2.890355376940     2.059287137888    12.000000000000
           H          2.279689329575     0.833488376940     1.561385137888     1.007825032070
           H          1.351622329575     1.054861376940     3.015275137888     1.007825032070
           H          2.077492329575     3.296019376940     1.060071137888     1.007825032070
           H          2.893677329575     2.975608376940     2.578799137888     1.007825032070
           H          1.231604329575     3.521041376940     2.579894137888     1.007825032070
           H         -1.407463670425    -0.777629623060    -3.345048862112     1.007825032070
           H         -0.507175670425    -2.298442623060    -3.262095862112     1.007825032070
           H          0.287786329575    -0.750366623060    -2.918312862112     1.007825032070

  Charge       = 0
  Multiplicity = 1
  Basis Set: 6-31G*
  Basis Set:

    Orbital Energies (a.u.)
    -----------------------

    Doubly Occupied:

       1A    -20.547425     2A    -11.324597     3A    -11.230470
       4A    -11.229123     5A    -11.228305     6A    -11.221261
       7A    -11.219610     8A    -11.213563     9A     -1.393164
      10A     -1.095126    11A     -1.045111    12A     -1.001018
      13A     -0.939046    14A     -0.848037    15A     -0.797244
      16A     -0.732489    17A     -0.663901    18A     -0.646707
      19A     -0.629565    20A     -0.610605    21A     -0.593007
      22A     -0.586140    23A     -0.560995    24A     -0.548099
      25A     -0.536805    26A     -0.513053    27A     -0.498127
      28A     -0.489805    29A     -0.470095    30A     -0.465051
      31A     -0.459616    32A     -0.396391

  @DF-RHF Final Energy:  -348.09509830621460

   => Energetics <=

    Nuclear Repulsion Energy =            368.8598309283228218
    One-Electron Energy =               -1202.4429310499253916
    Two-Electron Energy =                 485.4880018153874062
    DFT Exchange-Correlation Energy =       0.0000000000000000
    Empirical Dispersion Energy =           0.0000000000000000
    PCM Polarization Energy =               0.0000000000000000
    EFP Energy =                            0.0000000000000000
    Total Energy =                       -348.0950983062151636

  Mulliken Charges: (a.u.)
   Center  Symbol    Alpha    Beta     Spin     Total
       1     O     4.26235  4.26235  0.00000 -0.52470
       2     C     2.73722  2.73722  0.00000  0.52557
       3     C     3.20064  3.20064  0.00000 -0.40128
       4     C     3.28953  3.28953  0.00000 -0.57906
       5     C     3.16381  3.16381  0.00000 -0.32762
       6     H     0.40108  0.40108  0.00000  0.19783
       7     H     0.41676  0.41676  0.00000  0.16648
       8     C     3.15339  3.15339  0.00000 -0.30679
       9     H     0.40491  0.40491  0.00000  0.19018
      10     H     0.42071  0.42071  0.00000  0.15858
      11     C     3.15490  3.15490  0.00000 -0.30979
      12     H     0.41814  0.41814  0.00000  0.16372
      13     H     0.42225  0.42225  0.00000  0.15550
      14     C     3.24033  3.24033  0.00000 -0.48066
      15     H     0.42065  0.42065  0.00000  0.15869
      16     H     0.41845  0.41845  0.00000  0.16310
      17     H     0.42228  0.42228  0.00000  0.15545
      18     H     0.41867  0.41867  0.00000  0.16265
      19     H     0.42023  0.42023  0.00000  0.15954
      20     H     0.40689  0.40689  0.00000  0.18621
      21     H     0.39704  0.39704  0.00000  0.20591
      22     H     0.40976  0.40976  0.00000  0.18048

   Total alpha = 32.00000, Total beta = 32.00000, Total charge = -0.00000
