                              Psi4 1.0.54 Driver

  ==> Input File <==

--------------------------------------------------------------------------
set {
	reference rhf
	basis cc-pvtz
}

set_num_threads( 4 )
memory 2 gb

molecule MOL {
0 1

O	 0.749630	 1.305591	 -0.000460
C	 0.576499	 0.134701	 -0.003900
C	 -0.765656	 -0.550508	 -0.002152
O	 1.564816	 -0.744612	 -0.000631
C	 -1.945526	 0.411052	 0.000603
H	 -0.794329	 -1.203792	 -0.868145
H	 -0.791555	 -1.205429	 0.862701
C	 -1.534884	 1.822464	 0.405833
H	 -2.707450	 0.039770	 0.675151
H	 -2.396601	 0.425880	 -0.984126
H	 -1.108444	 1.838429	 1.403433
H	 -2.388516	 2.489365	 0.401573
H	 -0.794727	 2.229265	 -0.275348
C	 2.884339	 -0.237801	 0.002883
H	 3.064150	 0.362814	 -0.876312
H	 3.533055	 -1.098529	 0.004958
H	 3.059365	 0.363432	 0.882614

	symmetry c1
}
set optking {
	frozen_dihedral = ("
		9 5 3 6
	")
}

ee,wfn = optimize('scf', return_wfn=True)
oeprop( wfn, 'DIPOLE', 'QUADRUPOLE', 'MULLIKEN_CHARGES')
f=open( 'psi4out.xyz', 'w' )
f.write( "17  " )
f.write( str(ee) + "\n" )
f.write( MOL.save_string_xyz() )
f.close()
--------------------------------------------------------------------------

    Molecular point group: c1
  Charge       = 0
  Multiplicity = 1
  Basis Set: CC-PVTZ
  Basis Set:
  @DF-RHF Final Energy:  -345.00077156666674
    Total Energy =                       -345.0007715666667423
    Molecular point group: c1
  Basis Set: CC-PVTZ
  Basis Set:
  Basis Set: CC-PVTZ
  Basis Set:
  @DF-RHF Final Energy:  -345.01896705254904
    Total Energy =                       -345.0189670525491010
  Basis Set: CC-PVTZ
  Basis Set:
  Basis Set: CC-PVTZ
  Basis Set:
  @DF-RHF Final Energy:  -345.02195899093715
    Total Energy =                       -345.0219589909373212
  Basis Set: CC-PVTZ
  Basis Set:
  Basis Set: CC-PVTZ
  Basis Set:
  @DF-RHF Final Energy:  -345.00733208696511
    Total Energy =                       -345.0073320869650502
  Basis Set: CC-PVTZ
  Basis Set:
  @DF-RHF Final Energy:  -345.02107770323539
    Total Energy =                       -345.0210777032355054
  @DF-RHF Final Energy:  -345.02397246309039
    Total Energy =                       -345.0239724630903311
  @DF-RHF Final Energy:  -345.02431603342092
    Total Energy =                       -345.0243160334212575
  @DF-RHF Final Energy:  -345.02374326558089
    Total Energy =                       -345.0237432655808334
  @DF-RHF Final Energy:  -345.02510901091813
    Total Energy =                       -345.0251090109180723
  @DF-RHF Final Energy:  -345.02446586615713
    Total Energy =                       -345.0244658661571293
  @DF-RHF Final Energy:  -345.02550238194567
    Total Energy =                       -345.0255023819452731
  @DF-RHF Final Energy:  -345.02635239985591
    Total Energy =                       -345.0263523998556821
  @DF-RHF Final Energy:  -345.02673619012637
    Total Energy =                       -345.0267361901263143
  @DF-RHF Final Energy:  -345.02693099670785
    Total Energy =                       -345.0269309967079607
  @DF-RHF Final Energy:  -345.02710349808046
    Total Energy =                       -345.0271034980801232
  @DF-RHF Final Energy:  -345.02718518312963
    Total Energy =                       -345.0271851831292338
  @DF-RHF Final Energy:  -345.02725923820390
    Total Energy =                       -345.0272592382037828
  Basis Set: CC-PVTZ
  Basis Set:
  @DF-RHF Final Energy:  -345.02731633042038
    Total Energy =                       -345.0273163304206605
  Basis Set: CC-PVTZ
  Basis Set:
  Basis Set: CC-PVTZ
  Basis Set:
  @DF-RHF Final Energy:  -345.02733341787621
    Total Energy =                       -345.0273334178767186
  Basis Set: CC-PVTZ
  Basis Set:
  Basis Set: CC-PVTZ
  Basis Set:
  @DF-RHF Final Energy:  -345.02733460262147
    Total Energy =                       -345.0273346026214085
  Basis Set: CC-PVTZ
  Basis Set:
  Charge       = 0
  Multiplicity = 1
  Basis Set: CC-PVTZ
  Basis Set:

    Orbital Energies (a.u.)
    -----------------------

    Doubly Occupied:

       1A    -20.598314     2A    -20.531122     3A    -11.363668
       4A    -11.278566     5A    -11.232726     6A    -11.230869
       7A    -11.212211     8A     -1.472284     9A     -1.364289
      10A     -1.079924    11A     -0.997931    12A     -0.944263
      13A     -0.834939    14A     -0.770756    15A     -0.692907
      16A     -0.682845    17A     -0.674930    18A     -0.634853
      19A     -0.608257    20A     -0.579690    21A     -0.556516
      22A     -0.540709    23A     -0.528060    24A     -0.500572
      25A     -0.484743    26A     -0.481080    27A     -0.458309
      28A     -0.434923

  @DF-RHF Final Energy:  -345.02733482475367

   => Energetics <=

    Nuclear Repulsion Energy =            322.8807354186955081
    One-Electron Energy =               -1110.2756266029264225
    Two-Electron Energy =                 442.3675563594771916
    DFT Exchange-Correlation Energy =       0.0000000000000000
    Empirical Dispersion Energy =           0.0000000000000000
    PCM Polarization Energy =               0.0000000000000000
    EFP Energy =                            0.0000000000000000
    Total Energy =                       -345.0273348247537228
    Molecular point group: c1
  Basis Set: CC-PVTZ
  Basis Set:

  -Total Gradient:
     Atom            X                  Y                   Z
    ------   -----------------  -----------------  -----------------
       1       -0.000023134329    -0.000022131582     0.000024011019
       2        0.000014878528     0.000037991708    -0.000062864168
       3       -0.003257733754    -0.004675008874     0.001511406806
       4       -0.000007837649    -0.000024671849     0.000031710405
       5       -0.001227156214     0.000411206562    -0.005566565165
       6        0.002924359048     0.003874104754    -0.000453270586
       7       -0.000004788633    -0.000000736226    -0.000002163132
       8        0.000004553175    -0.000004958235     0.000002367978
       9        0.001574569450     0.000407529230     0.004530167723
      10       -0.000003074121    -0.000003731106    -0.000004140547
      11       -0.000003045109     0.000005847168    -0.000008456910
      12        0.000008528825    -0.000007456272    -0.000002724278
      13       -0.000010270494    -0.000005006075    -0.000003174736
      14        0.000010597074     0.000006306022    -0.000001171807
      15        0.000000162463    -0.000001174567     0.000000119236
      16        0.000000948307    -0.000001763898     0.000003621033
      17       -0.000001556567     0.000003653245     0.000001127128

  **** Optimization is complete! (in 21 steps) ****
    Final optimized geometry and variables:
    Molecular point group: c1

    Geometry (in Angstrom), charge = 0, multiplicity = 1:

    O            1.017778357860     0.573761886555    -1.075622545468
    C            0.448389692309    -0.226849671042    -0.413142853062
    C           -0.894941350952    -0.817904477056    -0.764806363063
    O            0.929764031510    -0.695221543822     0.725552366287
    C           -2.084805817864     0.119606937181    -0.431916646564
    H           -0.852133995750    -0.976170368064    -1.833336593303
    H           -1.002481089160    -1.767129065869    -0.262237647639
    C           -1.823638853199     1.158590548107     0.658828305492
    H           -2.904450453466    -0.501940048582    -0.092255786526
    H           -2.405651947299     0.624432069403    -1.333043129485
    H           -1.518335878219     0.689749561618     1.587379134310
    H           -2.727687239247     1.722419825280     0.855296589094
    H           -1.054436933109     1.862312902366     0.366020802467
    C            2.178663539439    -0.191795824692     1.156292847462
    H            2.946593904712    -0.405941056833     0.428103809946
    H            2.396341585952    -0.691810542204     2.086084099925
    H            2.126552722012     0.875839828396     1.309916926881

  Mulliken Charges: (a.u.)
   Center  Symbol    Alpha    Beta     Spin     Total
       1     O     4.20748  4.20748  0.00000 -0.41496
       2     C     2.79313  2.79313  0.00000  0.41374
       3     C     3.09560  3.09560  0.00000 -0.19119
       4     O     4.15114  4.15114  0.00000 -0.30228
       5     C     3.08437  3.08437  0.00000 -0.16875
       6     H     0.43805  0.43805  0.00000  0.12390
       7     H     0.44057  0.44057  0.00000  0.11886
       8     C     3.16044  3.16044  0.00000 -0.32088
       9     H     0.45047  0.45047  0.00000  0.09905
      10     H     0.44695  0.44695  0.00000  0.10610
      11     H     0.44973  0.44973  0.00000  0.10054
      12     H     0.44609  0.44609  0.00000  0.10783
      13     H     0.44711  0.44711  0.00000  0.10577
      14     C     3.03892  3.03892  0.00000 -0.07785
      15     H     0.45106  0.45106  0.00000  0.09787
      16     H     0.44512  0.44512  0.00000  0.10976
      17     H     0.45376  0.45376  0.00000  0.09248

   Total alpha = 28.00000, Total beta = 28.00000, Total charge =  0.00000

*** Psi4 exiting successfully. Buy a developer a beer!
