                              Psi4 1.0.54 Driver

  ==> Input File <==

--------------------------------------------------------------------------
set {
	reference rhf
	basis cc-pvtz
}

set_num_threads( 4 )
memory 2 gb

molecule MOL {
0 1

O	 1.498337	 1.900420	 0.455678
C	 0.691454	 1.876319	 1.321355
C	 -0.606351	 1.110680	 1.287571
O	 0.830374	 2.536366	 2.459536
C	 -0.824290	 0.329213	 -0.000115
H	 -0.614191	 0.454450	 2.151719
H	 -1.405230	 1.826079	 1.453214
C	 -2.146151	 -0.432825	 -0.000068
H	 -0.000997	 -0.361567	 -0.142539
H	 -0.792695	 1.011639	 -0.841891
C	 -3.366283	 0.483552	 0.000557
H	 -2.189286	 -1.084450	 -0.869996
H	 -2.188867	 -1.085083	 0.869399
C	 -4.687436	 -0.278003	 0.000108
H	 -3.325150	 1.134819	 -0.867957
H	 -3.325087	 1.133730	 0.869885
H	 -4.773783	 -0.912098	 -0.876078
H	 -5.531922	 0.401392	 0.000363
H	 -4.773901	 -0.912898	 0.875703
C	 2.007452	 3.300383	 2.627137
H	 2.882210	 2.669175	 2.576260
H	 1.931762	 3.753609	 3.602177
H	 2.078565	 4.063108	 1.865949

	symmetry c1
}
set optking {
	frozen_dihedral = ("
		9 5 8 12
	")
}

ee,wfn = optimize('scf', return_wfn=True)
oeprop( wfn, 'DIPOLE', 'QUADRUPOLE', 'MULLIKEN_CHARGES')
f=open( 'psi4out.xyz', 'w' )
f.write( "23  " )
f.write( str(ee) + "\n" )
f.write( MOL.save_string_xyz() )
f.close()
--------------------------------------------------------------------------

    Molecular point group: c1
  Charge       = 0
  Multiplicity = 1
  Basis Set: CC-PVTZ
  Basis Set:
  @DF-RHF Final Energy:  -423.12867401531406
    Total Energy =                       -423.1286740153138908
    Molecular point group: c1
  Basis Set: CC-PVTZ
  Basis Set:
  Basis Set: CC-PVTZ
  Basis Set:
  @DF-RHF Final Energy:  -423.12884872026302
    Total Energy =                       -423.1288487202625674
  Basis Set: CC-PVTZ
  Basis Set:
  Basis Set: CC-PVTZ
  Basis Set:
  @DF-RHF Final Energy:  -423.12934296211796
    Total Energy =                       -423.1293429621185851
  Basis Set: CC-PVTZ
  Basis Set:
  Basis Set: CC-PVTZ
  Basis Set:
  @DF-RHF Final Energy:  -423.12934354436976
    Total Energy =                       -423.1293435443698172
  Basis Set: CC-PVTZ
  Basis Set:
  Basis Set: CC-PVTZ
  Basis Set:
  @DF-RHF Final Energy:  -423.12925572874957
    Total Energy =                       -423.1292557287491718
  Basis Set: CC-PVTZ
  Basis Set:
  Basis Set: CC-PVTZ
  Basis Set:
  @DF-RHF Final Energy:  -423.12935971808048
    Total Energy =                       -423.1293597180806501
  Basis Set: CC-PVTZ
  Basis Set:
  Charge       = 0
  Multiplicity = 1
  Basis Set: CC-PVTZ
  Basis Set:

    Orbital Energies (a.u.)
    -----------------------

    Doubly Occupied:

       1A    -20.596178     2A    -20.534031     3A    -11.364471
       4A    -11.278396     5A    -11.233273     6A    -11.217405
       7A    -11.216605     8A    -11.215806     9A    -11.209056
      10A     -1.472083    11A     -1.365672    12A     -1.094743
      13A     -1.043343    14A     -0.988166    15A     -0.933672
      16A     -0.850689    17A     -0.793174    18A     -0.765825
      19A     -0.703362    20A     -0.685585    21A     -0.676150
      22A     -0.638309    23A     -0.621856    24A     -0.601195
      25A     -0.577432    26A     -0.557908    27A     -0.556988
      28A     -0.529192    29A     -0.522030    30A     -0.508535
      31A     -0.491889    32A     -0.468775    33A     -0.466312
      34A     -0.461317    35A     -0.454047    36A     -0.440417

  @DF-RHF Final Energy:  -423.12936011186702

   => Energetics <=

    Nuclear Repulsion Energy =            457.8908615694570585
    One-Electron Energy =               -1483.7726633013912760
    Two-Electron Energy =                 602.7524416200672022
    DFT Exchange-Correlation Energy =       0.0000000000000000
    Empirical Dispersion Energy =           0.0000000000000000
    PCM Polarization Energy =               0.0000000000000000
    EFP Energy =                            0.0000000000000000
    Total Energy =                       -423.1293601118670722
    Molecular point group: c1
  Basis Set: CC-PVTZ
  Basis Set:

  -Total Gradient:
     Atom            X                  Y                   Z
    ------   -----------------  -----------------  -----------------
       1       -0.000000569981     0.000003884009    -0.000005032513
       2       -0.000007367876    -0.000001735786     0.000012702229
       3        0.000006441234    -0.000001795057     0.000001605583
       4       -0.000000168467    -0.000012167275    -0.000001148767
       5        0.000006060809    -0.000026390783     0.000074850575
       6       -0.000002487226     0.000004500260    -0.000008254042
       7       -0.000001494491     0.000008412087     0.000002024099
       8       -0.000023287689     0.000049956065    -0.000054201215
       9        0.000004273967     0.000002764126    -0.000058811197
      10       -0.000004264194    -0.000005708222     0.000011144289
      11       -0.000010087483    -0.000003599893    -0.000010645977
      12        0.000015949181    -0.000044615006     0.000026847136
      13        0.000007861930     0.000009232215    -0.000000644761
      14        0.000005188066     0.000008920845     0.000012401688
      15        0.000011462153     0.000006758853    -0.000000714115
      16       -0.000007255668    -0.000003683346    -0.000000286075
      17        0.000001912006     0.000001101419    -0.000004775974
      18       -0.000004767724    -0.000000789383    -0.000001543226
      19       -0.000003963567    -0.000007492573     0.000004804154
      20        0.000005464138     0.000012605712    -0.000001914759
      21       -0.000003621978    -0.000001820609     0.000000110860
      22        0.000000523271    -0.000000692550     0.000000026346
      23        0.000004199597     0.000002354890     0.000001455668

  **** Optimization is complete! (in 7 steps) ****
    Final optimized geometry and variables:
    Molecular point group: c1

    Geometry (in Angstrom), charge = 0, multiplicity = 1:

    O            2.213564079901     0.669072607715    -0.485989460706
    C            1.418364040726     0.673024451474     0.390721401873
    C            0.093892960296    -0.046728980641     0.377082033569
    O            1.595961772198     1.328977875412     1.526130769275
    C           -0.161412477148    -0.822721041181    -0.909003702336
    H            0.078948736763    -0.705042725110     1.239976156322
    H           -0.670283115561     0.699100131727     0.560132943911
    C           -1.461299575518    -1.628046693976    -0.896841771414
    H            0.670717392236    -1.495219454389    -1.077451825341
    H           -0.163454321536    -0.135236195299    -1.747691427644
    C           -2.740645674114    -0.793203113798    -0.873019698166
    H           -1.476350110855    -2.257165206041    -1.781984022918
    H           -1.459466823803    -2.306484944676    -0.046351764079
    C           -4.002530757466    -1.645799314482    -0.959485161675
    H           -2.723153831870    -0.090789542071    -1.702139621570
    H           -2.781476797940    -0.196198684447     0.032411567265
    H           -4.020491949357    -2.226005117945    -1.875911890968
    H           -4.894535230456    -1.030355352244    -0.940043886023
    H           -4.062526243253    -2.341001827156    -0.128603455943
    C            2.801044301956     2.051675616564     1.676328160760
    H            3.652613948824     1.390508861336     1.613596945779
    H            2.755102258697     2.507613578960     2.651989992845
    H            2.887877603598     2.811278041787     0.913630826395

  Mulliken Charges: (a.u.)
   Center  Symbol    Alpha    Beta     Spin     Total
       1     O     4.19693  4.19693  0.00000 -0.39387
       2     C     2.80490  2.80490  0.00000  0.39021
       3     C     3.10129  3.10129  0.00000 -0.20257
       4     O     4.14718  4.14718  0.00000 -0.29437
       5     C     3.09230  3.09230  0.00000 -0.18459
       6     H     0.43996  0.43996  0.00000  0.12008
       7     H     0.43916  0.43916  0.00000  0.12167
       8     C     3.09971  3.09971  0.00000 -0.19942
       9     H     0.43990  0.43990  0.00000  0.12021
      10     H     0.44627  0.44627  0.00000  0.10745
      11     C     3.08649  3.08649  0.00000 -0.17299
      12     H     0.44593  0.44593  0.00000  0.10815
      13     H     0.45452  0.45452  0.00000  0.09096
      14     C     3.14967  3.14967  0.00000 -0.29935
      15     H     0.45283  0.45283  0.00000  0.09434
      16     H     0.45440  0.45440  0.00000  0.09121
      17     H     0.45375  0.45375  0.00000  0.09250
      18     H     0.44798  0.44798  0.00000  0.10404
      19     H     0.45497  0.45497  0.00000  0.09007
      20     C     3.03804  3.03804  0.00000 -0.07607
      21     H     0.45423  0.45423  0.00000  0.09155
      22     H     0.44526  0.44526  0.00000  0.10948
      23     H     0.45434  0.45434  0.00000  0.09132

   Total alpha = 36.00000, Total beta = 36.00000, Total charge = -0.00000

*** Psi4 exiting successfully. Buy a developer a beer!
