  ==> Input File <==

--------------------------------------------------------------------------
set {
	reference rhf
	basis cc-pvtz
}

set_num_threads( 4 )
memory 2 gb

molecule MOL {
0 1

H	 2.176198	 -0.647276	 -0.247937
O	 1.342438	 -0.550768	 0.172984
C	 0.700177	 0.619554	 -0.266242
C	 -0.713111	 0.588314	 0.266177
H	 0.678228	 0.660360	 -1.351036
H	 1.210217	 1.504849	 0.104554
O	 -1.421673	 -0.521378	 -0.196983
H	 -1.244794	 1.469161	 -0.069059
H	 -0.685100	 0.604721	 1.352683
H	 -0.933408	 -1.297830	 0.014544

	symmetry c1
}
set optking {
	frozen_dihedral = ("
		5 3 4 7
	")
}

ee = optimize('scf')
oeprop('DIPOLE', 'QUADRUPOLE', 'MULLIKEN_CHARGES')
f=open( 'psi4out.xyz', 'w' )
f.write( "10  " )
f.write( str(ee) + "\n" )
f.write( MOL.save_string_xyz() )
f.close()
--------------------------------------------------------------------------

    Molecular point group: c1
  Charge       = 0
  Multiplicity = 1
  Basis Set: CC-PVTZ
  Basis Set:
  @DF-RHF Final Energy:  -229.02887239592962
    Total Energy =                       -229.0288723959296817
    Molecular point group: c1
  Basis Set: CC-PVTZ
  Basis Set:
  Basis Set: CC-PVTZ
  Basis Set:
  @DF-RHF Final Energy:  -229.02887774227099
    Total Energy =                       -229.0288777422709927
  Basis Set: CC-PVTZ
  Basis Set:
  Charge       = 0
  Multiplicity = 1
  Basis Set: CC-PVTZ
  Basis Set:

    Orbital Energies (a.u.)
    -----------------------

    Doubly Occupied:

       1A    -20.561231     2A    -20.542269     3A    -11.274135
       4A    -11.266805     5A     -1.385704     6A     -1.355789
       7A     -1.003842     8A     -0.844994     9A     -0.730280
      10A     -0.682356    11A     -0.651520    12A     -0.606684
      13A     -0.577973    14A     -0.534601    15A     -0.492806
      16A     -0.456197    17A     -0.436259

  @DF-RHF Final Energy:  -229.02887957909948

   => Energetics <=

    Nuclear Repulsion Energy =            134.6127430876539677
    One-Electron Energy =                -580.4763572414057080
    Two-Electron Energy =                 216.8347345746522592
    DFT Exchange-Correlation Energy =       0.0000000000000000
    Empirical Dispersion Energy =           0.0000000000000000
    PCM Polarization Energy =               0.0000000000000000
    EFP Energy =                            0.0000000000000000
    Total Energy =                       -229.0288795790995096
    Molecular point group: c1
  Basis Set: CC-PVTZ
  Basis Set:

  -Total Gradient:
     Atom            X                  Y                   Z
    ------   -----------------  -----------------  -----------------
       1       -0.000007665568     0.000018784511    -0.000011611456
       2       -0.000004238694    -0.000066534937     0.000038608955
       3        0.000062895059    -0.000735547843     0.000061480006
       4       -0.000190696572     0.000481113165    -0.000502828328
       5        0.000003443680     0.000592571030     0.000051128240
       6        0.000005647183    -0.000002453554    -0.000016348420
       7        0.000123830402    -0.000298731712     0.000378029310
       8        0.000015289921     0.000001039940     0.000010211938
       9       -0.000003134694     0.000000927643    -0.000000239773
      10       -0.000005370720     0.000008831755    -0.000008430472

  **** Optimization is complete! (in 3 steps) ****
    Final optimized geometry and variables:
    Molecular point group: c1

    Geometry (in Angstrom), charge = 0, multiplicity = 1:

    H            2.181638391733    -0.641296360206    -0.235757661781
    O            1.347429161492    -0.544384084250     0.184191541175
    C            0.703512741004     0.622652055502    -0.259802775745
    C           -0.709486835084     0.593958624068     0.274995572203
    H            0.681700191384     0.662389452887    -1.344677042209
    H            1.212702630053     1.510328827437     0.106889777094
    O           -1.420562854434    -0.514952353072    -0.185682407092
    H           -1.239787913126     1.476651589150    -0.057527115663
    H           -0.678925555392     0.609119953878     1.361583653100
    H           -0.925510451112    -1.290730397724     0.012251488814

  Mulliken Charges: (a.u.)
   Center  Symbol    Alpha    Beta     Spin     Total
       1     H     0.39072  0.39072  0.00000  0.21857
       2     O     4.20700  4.20700  0.00000 -0.41400
       3     C     2.97312  2.97312  0.00000  0.05376
       4     C     2.96363  2.96363  0.00000  0.07275
       5     H     0.46956  0.46956  0.00000  0.06088
       6     H     0.47203  0.47203  0.00000  0.05594
       7     O     4.20966  4.20966  0.00000 -0.41933
       8     H     0.45851  0.45851  0.00000  0.08297
       9     H     0.47057  0.47057  0.00000  0.05886
      10     H     0.38519  0.38519  0.00000  0.22961

   Total alpha = 17.00000, Total beta = 17.00000, Total charge = -0.00000
