  ==> Input File <==

--------------------------------------------------------------------------
set {
	reference rhf
	basis 6-31G*
}

set_num_threads( 1 )
memory 2 gb

molecule MOL {
0 1

H	 -0.806119	 -1.200383	 -0.546436
O	 -1.422729	 -0.573567	 -0.196946
C	 -0.731407	 0.539437	 0.309156
C	 0.680193	 0.672443	 -0.251532
H	 -1.319765	 1.404033	 0.030086
H	 -0.700012	 0.506517	 1.397677
C	 1.599139	 -0.492137	 0.118598
H	 0.616402	 0.758534	 -1.332349
H	 1.107032	 1.602637	 0.117369
H	 1.239738	 -1.428634	 -0.297334
H	 2.601428	 -0.335055	 -0.265730
H	 1.674954	 -0.608418	 1.197020

	symmetry c1
}
set optking {
	frozen_dihedral = ("
		8 4 3 2
	")
}

ee = energy('scf')
oeprop('DIPOLE', 'QUADRUPOLE', 'MULLIKEN_CHARGES')
f=open( 'psi4out.xyz', 'w' )
f.write( "12  " )
f.write( str(ee) + "\n" )
f.write( MOL.save_string_xyz() )
f.close()
--------------------------------------------------------------------------

    Molecular point group: c1

    Geometry (in Angstrom), charge = 0, multiplicity = 1:

       Center              X                  Y                   Z               Mass
    ------------   -----------------  -----------------  -----------------  -----------------
           H         -0.810562509429    -1.203171382299    -0.534234070307     1.007825032070
           O         -1.427172509429    -0.576355382299    -0.184744070307    15.994914619560
           C         -0.735850509429     0.536648617701     0.321357929693    12.000000000000
           C          0.675749490571     0.669654617701    -0.239330070307    12.000000000000
           H         -1.324208509429     1.401244617701     0.042287929693     1.007825032070
           H         -0.704455509429     0.503728617701     1.409878929693     1.007825032070
           C          1.594695490571    -0.494925382299     0.130799929693    12.000000000000
           H          0.611958490571     0.755745617701    -1.320147070307     1.007825032070
           H          1.102588490571     1.599848617701     0.129570929693     1.007825032070
           H          1.235294490571    -1.431422382299    -0.285132070307     1.007825032070
           H          2.596984490571    -0.337843382299    -0.253528070307     1.007825032070
           H          1.670510490571    -0.611206382299     1.209221929693     1.007825032070

  Charge       = 0
  Multiplicity = 1
  Basis Set: 6-31G*
  Basis Set:

    Orbital Energies (a.u.)
    -----------------------

    Doubly Occupied:

       1A    -20.549812     2A    -11.266862     3A    -11.227066
       4A    -11.224383     5A     -1.358434     6A     -1.056393
       7A     -0.930757     8A     -0.817952     9A     -0.677245
      10A     -0.645777    11A     -0.620601    12A     -0.583228
      13A     -0.550523    14A     -0.510615    15A     -0.496772
      16A     -0.466477    17A     -0.430705

  @DF-RHF Final Energy:  -193.10693418563326

   => Energetics <=

    Nuclear Repulsion Energy =            133.3990209936686995
    One-Electron Energy =                -526.1846550572709020
    Two-Electron Energy =                 199.6786998779687110
    DFT Exchange-Correlation Energy =       0.0000000000000000
    Empirical Dispersion Energy =           0.0000000000000000
    PCM Polarization Energy =               0.0000000000000000
    EFP Energy =                            0.0000000000000000
    Total Energy =                       -193.1069341856334631

  Mulliken Charges: (a.u.)
   Center  Symbol    Alpha    Beta     Spin     Total
       1     H     0.27793  0.27793  0.00000  0.44415
       2     O     4.37768  4.37768  0.00000 -0.75535
       3     C     2.97834  2.97834  0.00000  0.04332
       4     C     3.18376  3.18376  0.00000 -0.36751
       5     H     0.41939  0.41939  0.00000  0.16122
       6     H     0.42963  0.42963  0.00000  0.14074
       7     C     3.24534  3.24534  0.00000 -0.49068
       8     H     0.41541  0.41541  0.00000  0.16918
       9     H     0.41667  0.41667  0.00000  0.16666
      10     H     0.42781  0.42781  0.00000  0.14439
      11     H     0.41258  0.41258  0.00000  0.17483
      12     H     0.41547  0.41547  0.00000  0.16905

   Total alpha = 17.00000, Total beta = 17.00000, Total charge = -0.00000
