  ==> Input File <==

--------------------------------------------------------------------------
set {
	reference rhf
	basis 6-31G*
}

set_num_threads( 1 )
memory 2 gb

molecule MOL {
0 1

O	 3.674889	 0.022349	 -0.843566
C	 2.843464	 0.164689	 -0.000222
C	 1.546494	 -0.624492	 -0.000609
C	 3.031233	 1.150866	 1.134394
C	 0.291004	 0.242674	 0.000989
H	 1.557904	 -1.283758	 -0.867573
H	 1.558622	 -1.285963	 0.864672
C	 -0.994322	 -0.586602	 0.000262
H	 0.309117	 0.896430	 -0.865270
H	 0.309661	 0.894078	 0.869017
C	 -2.259874	 0.272531	 0.000494
H	 -1.004862	 -1.240012	 -0.870939
H	 -1.005220	 -1.241071	 0.870675
C	 -3.549786	 -0.549746	 -0.000374
H	 -2.250389	 0.926680	 -0.869574
H	 -2.250838	 0.925513	 0.871430
C	 -4.809590	 0.315458	 -0.000369
H	 -3.560515	 -1.202009	 -0.871156
H	 -3.561123	 -1.202955	 0.869711
H	 -4.844746	 0.956611	 -0.876632
H	 -5.706986	 -0.295590	 -0.001609
H	 -4.845960	 0.954827	 0.877144
H	 2.991364	 0.639332	 2.091662
H	 3.985184	 1.648929	 1.030733
H	 2.234584	 1.889084	 1.130192

	symmetry c1
}
set optking {
	frozen_dihedral = ("
		9 5 8 12,
		15 11 8 12,
		15 11 14 18,
		9 5 3 6
	")
}

ee = energy('scf')
oeprop('DIPOLE', 'QUADRUPOLE', 'MULLIKEN_CHARGES')
f=open( 'psi4out.xyz', 'w' )
f.write( "25  " )
f.write( str(ee) + "\n" )
f.write( MOL.save_string_xyz() )
f.close()
--------------------------------------------------------------------------

    Molecular point group: c1

    Geometry (in Angstrom), charge = 0, multiplicity = 1:

       Center              X                  Y                   Z               Mass
    ------------   -----------------  -----------------  -----------------  -----------------
           O          3.708037975932    -0.032112603387    -0.877969439814    15.994914619560
           C          2.876612975932     0.110227396613    -0.034625439814    12.000000000000
           C          1.579642975932    -0.678953603387    -0.035012439814    12.000000000000
           C          3.064381975932     1.096404396613     1.099990560186    12.000000000000
           C          0.324152975932     0.188212396613    -0.033414439814    12.000000000000
           H          1.591052975932    -1.338219603387    -0.901976439814     1.007825032070
           H          1.591770975932    -1.340424603387     0.830268560186     1.007825032070
           C         -0.961173024068    -0.641063603387    -0.034141439814    12.000000000000
           H          0.342265975932     0.841968396613    -0.899673439814     1.007825032070
           H          0.342809975932     0.839616396613     0.834613560186     1.007825032070
           C         -2.226725024068     0.218069396613    -0.033909439814    12.000000000000
           H         -0.971713024068    -1.294473603387    -0.905342439814     1.007825032070
           H         -0.972071024068    -1.295532603387     0.836271560186     1.007825032070
           C         -3.516637024068    -0.604207603387    -0.034777439814    12.000000000000
           H         -2.217240024068     0.872218396613    -0.903977439814     1.007825032070
           H         -2.217689024068     0.871051396613     0.837026560186     1.007825032070
           C         -4.776441024068     0.260996396613    -0.034772439814    12.000000000000
           H         -3.527366024068    -1.256470603387    -0.905559439814     1.007825032070
           H         -3.527974024068    -1.257416603387     0.835307560186     1.007825032070
           H         -4.811597024068     0.902149396613    -0.911035439814     1.007825032070
           H         -5.673837024068    -0.350051603387    -0.036012439814     1.007825032070
           H         -4.812811024068     0.900365396613     0.842740560186     1.007825032070
           H          3.024512975932     0.584870396613     2.057258560186     1.007825032070
           H          4.018332975932     1.594467396613     0.996329560186     1.007825032070
           H          2.267732975932     1.834622396613     1.095788560186     1.007825032070

  Charge       = 0
  Multiplicity = 1
  Basis Set: 6-31G*
  Basis Set:

    Orbital Energies (a.u.)
    -----------------------

    Doubly Occupied:

       1A    -20.548689     2A    -11.324534     3A    -11.232122
       4A    -11.229490     5A    -11.226575     6A    -11.224817
       7A    -11.220588     8A    -11.219975     9A    -11.212524
      10A     -1.393418    11A     -1.102824    12A     -1.062649
      13A     -1.011460    14A     -0.970527    15A     -0.897163
      16A     -0.822652    17A     -0.797842    18A     -0.732527
      19A     -0.667999    20A     -0.648751    21A     -0.637780
      22A     -0.616206    23A     -0.604898    24A     -0.589005
      25A     -0.565092    26A     -0.559276    27A     -0.545606
      28A     -0.536420    29A     -0.511272    30A     -0.501878
      31A     -0.486864    32A     -0.479897    33A     -0.470086
      34A     -0.468771    35A     -0.457923    36A     -0.395925

  @DF-RHF Final Energy:  -387.13301374918268

   => Energetics <=

    Nuclear Repulsion Energy =            439.4818424403637778
    One-Electron Energy =               -1395.2815567829045449
    Two-Electron Energy =                 568.6667005933585415
    DFT Exchange-Correlation Energy =       0.0000000000000000
    Empirical Dispersion Energy =           0.0000000000000000
    PCM Polarization Energy =               0.0000000000000000
    EFP Energy =                            0.0000000000000000
    Total Energy =                       -387.1330137491821688

  Mulliken Charges: (a.u.)
   Center  Symbol    Alpha    Beta     Spin     Total
       1     O     4.26058  4.26058  0.00000 -0.52116
       2     C     2.73142  2.73142  0.00000  0.53717
       3     C     3.20610  3.20610  0.00000 -0.41221
       4     C     3.29213  3.29213  0.00000 -0.58426
       5     C     3.16491  3.16491  0.00000 -0.32982
       6     H     0.40022  0.40022  0.00000  0.19957
       7     H     0.41208  0.41208  0.00000  0.17583
       8     C     3.15209  3.15209  0.00000 -0.30417
       9     H     0.41323  0.41323  0.00000  0.17354
      10     H     0.41899  0.41899  0.00000  0.16203
      11     C     3.15149  3.15149  0.00000 -0.30298
      12     H     0.41917  0.41917  0.00000  0.16167
      13     H     0.42196  0.42196  0.00000  0.15608
      14     C     3.15206  3.15206  0.00000 -0.30411
      15     H     0.42227  0.42227  0.00000  0.15546
      16     H     0.42377  0.42377  0.00000  0.15247
      17     C     3.23958  3.23958  0.00000 -0.47915
      18     H     0.42191  0.42191  0.00000  0.15618
      19     H     0.42274  0.42274  0.00000  0.15453
      20     H     0.42109  0.42109  0.00000  0.15782
      21     H     0.41836  0.41836  0.00000  0.16327
      22     H     0.42165  0.42165  0.00000  0.15671
      23     H     0.40929  0.40929  0.00000  0.18143
      24     H     0.39642  0.39642  0.00000  0.20716
      25     H     0.40652  0.40652  0.00000  0.18696

   Total alpha = 36.00000, Total beta = 36.00000, Total charge =  0.00000
