                              Psi4 1.0.54 Driver

  ==> Input File <==

--------------------------------------------------------------------------
set {
	reference rhf
	basis cc-pvtz
}

set_num_threads( 4 )
memory 2 gb

molecule MOL {
0 1

O	 3.219313	 0.959291	 -0.614106
C	 2.698710	 0.058177	 -0.050237
C	 1.246364	 -0.005813	 0.348416
O	 3.344101	 -1.038700	 0.312317
C	 0.453207	 1.232821	 -0.049003
H	 0.839270	 -0.907818	 -0.092281
H	 1.216683	 -0.160521	 1.422434
C	 -0.998367	 1.217982	 0.432195
H	 0.481498	 1.345443	 -1.127236
H	 0.951413	 2.105557	 0.354893
C	 -1.882951	 0.151251	 -0.211235
H	 -1.429490	 2.193659	 0.228843
H	 -1.019755	 1.099323	 1.513279
C	 -3.342450	 0.243269	 0.226009
H	 -1.826223	 0.246578	 -1.293162
H	 -1.508033	 -0.839650	 0.027695
C	 -4.234517	 -0.821434	 -0.405970
H	 -3.730149	 1.228245	 -0.022691
H	 -3.398860	 0.159952	 1.308941
C	 -4.892210	 -0.360490	 -1.702407
H	 -3.645796	 -1.714129	 -0.598903
H	 -5.004119	 -1.112535	 0.303839
H	 -5.517848	 -1.138737	 -2.124181
H	 -4.147955	 -0.095469	 -2.446017
H	 -5.516168	 0.511451	 -1.536265
C	 4.720529	 -1.114346	 0.001449
H	 4.874321	 -1.055557	 -1.065852
H	 5.057824	 -2.067950	 0.373977
H	 5.264321	 -0.313596	 0.480350

	symmetry c1
}
set optking {
	frozen_dihedral = ("
		21 17 14 11
	")
}

ee,wfn = optimize('scf', return_wfn=True)
oeprop( wfn, 'DIPOLE', 'QUADRUPOLE', 'MULLIKEN_CHARGES')
f=open( 'psi4out.xyz', 'w' )
f.write( "29  " )
f.write( str(ee) + "\n" )
f.write( MOL.save_string_xyz() )
f.close()
--------------------------------------------------------------------------

    Molecular point group: c1
  Charge       = 0
  Multiplicity = 1
  Basis Set: CC-PVTZ
  Basis Set:
  @DF-RHF Final Energy:  -501.22121333398934
    Total Energy =                       -501.2212133339891125
    Molecular point group: c1
  Basis Set: CC-PVTZ
  Basis Set:
  Basis Set: CC-PVTZ
  Basis Set:
  @DF-RHF Final Energy:  -501.22143967843181
    Total Energy =                       -501.2214396784321480
  Basis Set: CC-PVTZ
  Basis Set:
  Basis Set: CC-PVTZ
  Basis Set:
  @DF-RHF Final Energy:  -501.22150120679692
    Total Energy =                       -501.2215012067961197
  Basis Set: CC-PVTZ
  Basis Set:
  Basis Set: CC-PVTZ
  Basis Set:
  @DF-RHF Final Energy:  -501.22124459662075
    Total Energy =                       -501.2212445966207497
  Basis Set: CC-PVTZ
  Basis Set:
  Basis Set: CC-PVTZ
  Basis Set:
  @DF-RHF Final Energy:  -501.22151189742624
    Total Energy =                       -501.2215118974263532
  Basis Set: CC-PVTZ
  Basis Set:
  Charge       = 0
  Multiplicity = 1
  Basis Set: CC-PVTZ
  Basis Set:

    Orbital Energies (a.u.)
    -----------------------

    Doubly Occupied:

       1A    -20.596062     2A    -20.533914     3A    -11.364327
       4A    -11.278305     5A    -11.233025     6A    -11.217148
       7A    -11.215506     8A    -11.214020     9A    -11.213915
      10A    -11.212293    11A    -11.206923    12A     -1.471925
      13A     -1.365544    14A     -1.099172    15A     -1.067089
      16A     -1.019520    17A     -0.977227    18A     -0.928763
      19A     -0.866196    20A     -0.801946    21A     -0.786345
      22A     -0.765930    23A     -0.702868    24A     -0.685553
      25A     -0.676079    26A     -0.643188    27A     -0.630594
      28A     -0.608675    29A     -0.602355    30A     -0.582865
      31A     -0.563283    32A     -0.555512    33A     -0.535061
      34A     -0.525454    35A     -0.516518    36A     -0.512195
      37A     -0.501021    38A     -0.476378    39A     -0.474179
      40A     -0.461183    41A     -0.459375    42A     -0.453960
      43A     -0.443797    44A     -0.437426

  @DF-RHF Final Energy:  -501.22151205217676

   => Energetics <=

    Nuclear Repulsion Energy =            614.7920172669927297
    One-Electron Energy =               -1901.0618249654448846
    Two-Electron Energy =                 785.0482956462749371
    DFT Exchange-Correlation Energy =       0.0000000000000000
    Empirical Dispersion Energy =           0.0000000000000000
    PCM Polarization Energy =               0.0000000000000000
    EFP Energy =                            0.0000000000000000
    Total Energy =                       -501.2215120521771041
    Molecular point group: c1
  Basis Set: CC-PVTZ
  Basis Set:

  -Total Gradient:
     Atom            X                  Y                   Z
    ------   -----------------  -----------------  -----------------
       1       -0.000031863589     0.000051380546    -0.000065458409
       2        0.000030613290     0.000035776006     0.000095946746
       3       -0.000003313866    -0.000030440037    -0.000043821649
       4       -0.000011893989    -0.000079601434     0.000006062129
       5        0.000012403366     0.000038983716     0.000036132035
       6       -0.000029587119    -0.000041102267    -0.000001741368
       7        0.000016902950     0.000010173348    -0.000001902134
       8       -0.000022283979     0.000026259863    -0.000039442477
       9        0.000005433929     0.000018921663    -0.000023740474
      10        0.000018501098    -0.000002396385     0.000010523359
      11        0.000476003652    -0.001538326562     0.001826715324
      12       -0.000019055898    -0.000006294429    -0.000003755920
      13       -0.000003582880     0.000009114765    -0.000003881851
      14       -0.000469498545     0.002412996824    -0.003179622264
      15        0.000012594956     0.000009510543     0.000009911995
      16        0.000031026466    -0.000045163019    -0.000009451734
      17       -0.000730110669    -0.002096524885     0.004335622859
      18       -0.000016703832     0.000026560116    -0.000006580495
      19        0.000008832924     0.000003598346     0.000029544852
      20       -0.000002349997    -0.000032332249    -0.000000778944
      21        0.000752085369     0.001193975094    -0.002949653784
      22       -0.000002502155     0.000002142414     0.000011235557
      23       -0.000006337828    -0.000000359596    -0.000013246703
      24        0.000006747423     0.000003768489    -0.000018800362
      25       -0.000011960385     0.000025236954     0.000003978885
      26       -0.000011326263     0.000016415885    -0.000012260584
      27        0.000004157157    -0.000003200225    -0.000006704909
      28       -0.000005994832    -0.000014297231     0.000008593026
      29        0.000003063249     0.000005223751     0.000006577292

  **** Optimization is complete! (in 6 steps) ****
    Final optimized geometry and variables:
    Molecular point group: c1

    Geometry (in Angstrom), charge = 0, multiplicity = 1:

    O            3.145741879330     0.907116374510    -0.460364282600
    C            2.624240722070     0.020214664158     0.124847916309
    C            1.171021314958    -0.034351553725     0.521728902918
    O            3.268918381180    -1.067535942232     0.515252896773
    C            0.378727026629     1.194505884306     0.093215228521
    H            0.765035718713    -0.946724570020     0.101715227808
    H            1.138907818706    -0.163493478557     1.599044078392
    C           -1.074964904928     1.189347533480     0.568438043841
    H            0.411646643458     1.283023237396    -0.987168219473
    H            0.874697096740     2.076439106801     0.479579969983
    C           -1.955515834983     0.106740209119    -0.053092727122
    H           -1.506415801891     2.159373890681     0.340522471906
    H           -1.100916902613     1.096055463374     1.652013115594
    C           -3.413284983632     0.192964268243     0.397126321229
    H           -1.899640955889     0.184073923904    -1.136511204788
    H           -1.576330829484    -0.877927309987     0.202332592563
    C           -4.326337198856    -0.852028767245    -0.260652568136
    H           -3.800348114296     1.189186804375     0.201725888342
    H           -3.440651227941     0.066870479910     1.475795799004
    C           -4.968893092870    -0.361883352114    -1.557514232636
    H           -3.747613275479    -1.743297023736    -0.484907882766
    H           -5.108264588813    -1.147590551549     0.429813394713
    H           -5.568602447674    -1.139761322376    -2.016573360788
    H           -4.219757910163    -0.055982785582    -2.280087423406
    H           -5.615437596323     0.489623859248    -1.373778952587
    C            4.645900038517    -1.150814199030     0.208787784946
    H            4.801634578852    -1.118150623495    -0.859363559478
    H            4.982450384613    -2.095066348316     0.605127994429
    H            5.188914729343    -0.338625239950     0.668977514643

  Mulliken Charges: (a.u.)
   Center  Symbol    Alpha    Beta     Spin     Total
       1     O     4.19696  4.19696  0.00000 -0.39392
       2     C     2.80484  2.80484  0.00000  0.39032
       3     C     3.10178  3.10178  0.00000 -0.20356
       4     O     4.14721  4.14721  0.00000 -0.29443
       5     C     3.09238  3.09238  0.00000 -0.18475
       6     H     0.43922  0.43922  0.00000  0.12157
       7     H     0.43985  0.43985  0.00000  0.12030
       8     C     3.10424  3.10424  0.00000 -0.20847
       9     H     0.44622  0.44622  0.00000  0.10757
      10     H     0.43961  0.43961  0.00000  0.12078
      11     C     3.09338  3.09338  0.00000 -0.18676
      12     H     0.44474  0.44474  0.00000  0.11051
      13     H     0.45348  0.45348  0.00000  0.09303
      14     C     3.09532  3.09532  0.00000 -0.19064
      15     H     0.45239  0.45239  0.00000  0.09523
      16     H     0.45310  0.45310  0.00000  0.09380
      17     C     3.09021  3.09021  0.00000 -0.18042
      18     H     0.45374  0.45374  0.00000  0.09251
      19     H     0.44886  0.44886  0.00000  0.10228
      20     C     3.14779  3.14779  0.00000 -0.29559
      21     H     0.45652  0.45652  0.00000  0.08697
      22     H     0.44736  0.44736  0.00000  0.10527
      23     H     0.44861  0.44861  0.00000  0.10278
      24     H     0.45518  0.45518  0.00000  0.08963
      25     H     0.45503  0.45503  0.00000  0.08993
      26     C     3.03812  3.03812  0.00000 -0.07625
      27     H     0.45435  0.45435  0.00000  0.09130
      28     H     0.44527  0.44527  0.00000  0.10946
      29     H     0.45423  0.45423  0.00000  0.09155

   Total alpha = 44.00000, Total beta = 44.00000, Total charge = -0.00000

*** Psi4 exiting successfully. Buy a developer a beer!
