  ==> Input File <==

--------------------------------------------------------------------------
set {
	reference rhf
	basis 6-31G*
}

set_num_threads( 1 )
memory 2 gb

molecule MOL {
0 1

H	 -3.261111	 -0.295142	 1.469456
C	 -3.306842	 -0.277400	 0.373456
C	 -2.660244	 0.921717	 -0.272021
O	 -3.838538	 -1.161155	 -0.216482
C	 -1.551638	 1.531687	 0.596991
H	 -2.286453	 0.626216	 -1.245504
H	 -3.443311	 1.663165	 -0.426022
C	 -0.334405	 0.618459	 0.763298
H	 -1.239929	 2.470098	 0.148096
H	 -1.957413	 1.784409	 1.575375
C	 0.766840	 1.243672	 1.621892
H	 0.064982	 0.375333	 -0.219162
H	 -0.640477	 -0.327532	 1.205971
C	 1.989225	 0.334309	 1.772834
H	 1.061079	 2.192673	 1.180812
H	 0.367264	 1.474917	 2.608426
C	 3.085425	 0.883858	 2.692841
H	 2.412811	 0.134188	 0.789868
H	 1.661556	 -0.627089	 2.162783
C	 3.777303	 2.145503	 2.174019
H	 3.834973	 0.109127	 2.833968
H	 2.664654	 1.080813	 3.676753
H	 4.193976	 1.982714	 1.183487
H	 3.095225	 2.986862	 2.111906
H	 4.591892	 2.435554	 2.830761

	symmetry c1
}
set optking {
	frozen_dihedral = ("
		6 3 5 8,
		3 5 8 12,
		12 8 11 14,
		8 11 14 18,
		20 17 14 18
	")
}

ee = energy('scf')
oeprop('DIPOLE', 'QUADRUPOLE', 'MULLIKEN_CHARGES')
f=open( 'psi4out.xyz', 'w' )
f.write( "25  " )
f.write( str(ee) + "\n" )
f.write( MOL.save_string_xyz() )
f.close()
--------------------------------------------------------------------------

    Molecular point group: c1

    Geometry (in Angstrom), charge = 0, multiplicity = 1:

       Center              X                  Y                   Z               Mass
    ------------   -----------------  -----------------  -----------------  -----------------
           H         -3.034742256935    -0.985562549866     0.413608141709     1.007825032070
           C         -3.080473256935    -0.967820549866    -0.682391858291    12.000000000000
           C         -2.433875256935     0.231296450134    -1.327868858291    12.000000000000
           O         -3.612169256935    -1.851575549866    -1.272329858291    15.994914619560
           C         -1.325269256935     0.841266450134    -0.458856858291    12.000000000000
           H         -2.060084256935    -0.064204549866    -2.301351858291     1.007825032070
           H         -3.216942256935     0.972744450134    -1.481869858291     1.007825032070
           C         -0.108036256935    -0.071961549866    -0.292549858291    12.000000000000
           H         -1.013560256935     1.779677450134    -0.907751858291     1.007825032070
           H         -1.731044256935     1.093988450134     0.519527141709     1.007825032070
           C          0.993208743065     0.553251450134     0.566044141709    12.000000000000
           H          0.291350743065    -0.315087549866    -1.275009858291     1.007825032070
           H         -0.414108256935    -1.017952549866     0.150123141709     1.007825032070
           C          2.215593743065    -0.356111549866     0.716986141709    12.000000000000
           H          1.287447743065     1.502252450134     0.124964141709     1.007825032070
           H          0.593632743065     0.784496450134     1.552578141709     1.007825032070
           C          3.311793743065     0.193437450134     1.636993141709    12.000000000000
           H          2.639179743065    -0.556232549866    -0.265979858291     1.007825032070
           H          1.887924743065    -1.317509549866     1.106935141709     1.007825032070
           C          4.003671743065     1.455082450134     1.118171141709    12.000000000000
           H          4.061341743065    -0.581293549866     1.778120141709     1.007825032070
           H          2.891022743065     0.390392450134     2.620905141709     1.007825032070
           H          4.420344743065     1.292293450134     0.127639141709     1.007825032070
           H          3.321593743065     2.296441450134     1.056058141709     1.007825032070
           H          4.818260743065     1.745133450134     1.774913141709     1.007825032070

  Charge       = 0
  Multiplicity = 1
  Basis Set: 6-31G*
  Basis Set:

    Orbital Energies (a.u.)
    -----------------------

    Doubly Occupied:

       1A    -20.561166     2A    -11.326402     3A    -11.235286
       4A    -11.233914     5A    -11.226385     6A    -11.221440
       7A    -11.219242     8A    -11.218463     9A    -11.211700
      10A     -1.401520    11A     -1.105507    12A     -1.070893
      13A     -1.014325    14A     -0.942827    15A     -0.875246
      16A     -0.823069    17A     -0.789398    18A     -0.783177
      19A     -0.664519    20A     -0.656286    21A     -0.633774
      22A     -0.630591    23A     -0.608082    24A     -0.596654
      25A     -0.570923    26A     -0.550864    27A     -0.538849
      28A     -0.525634    29A     -0.506911    30A     -0.497874
      31A     -0.491096    32A     -0.480897    33A     -0.466265
      34A     -0.460448    35A     -0.442265    36A     -0.409262

  @DF-RHF Final Energy:  -387.12126839277181

   => Energetics <=

    Nuclear Repulsion Energy =            437.7540010004261717
    One-Electron Energy =               -1391.7679402054486673
    Two-Electron Energy =                 566.8926708122503442
    DFT Exchange-Correlation Energy =       0.0000000000000000
    Empirical Dispersion Energy =           0.0000000000000000
    PCM Polarization Energy =               0.0000000000000000
    EFP Energy =                            0.0000000000000000
    Total Energy =                       -387.1212683927722082

  Mulliken Charges: (a.u.)
   Center  Symbol    Alpha    Beta     Spin     Total
       1     H     0.43135  0.43135  0.00000  0.13730
       2     C     2.83283  2.83283  0.00000  0.33435
       3     C     3.20769  3.20769  0.00000 -0.41538
       4     O     4.24005  4.24005  0.00000 -0.48011
       5     C     3.16811  3.16811  0.00000 -0.33622
       6     H     0.39863  0.39863  0.00000  0.20275
       7     H     0.40056  0.40056  0.00000  0.19888
       8     C     3.15543  3.15543  0.00000 -0.31086
       9     H     0.41328  0.41328  0.00000  0.17344
      10     H     0.41963  0.41963  0.00000  0.16074
      11     C     3.15381  3.15381  0.00000 -0.30762
      12     H     0.41852  0.41852  0.00000  0.16296
      13     H     0.42114  0.42114  0.00000  0.15773
      14     C     3.15313  3.15313  0.00000 -0.30625
      15     H     0.42026  0.42026  0.00000  0.15948
      16     H     0.42334  0.42334  0.00000  0.15331
      17     C     3.15280  3.15280  0.00000 -0.30560
      18     H     0.42306  0.42306  0.00000  0.15387
      19     H     0.42114  0.42114  0.00000  0.15772
      20     C     3.24142  3.24142  0.00000 -0.48284
      21     H     0.41988  0.41988  0.00000  0.16024
      22     H     0.42308  0.42308  0.00000  0.15384
      23     H     0.42185  0.42185  0.00000  0.15630
      24     H     0.42056  0.42056  0.00000  0.15889
      25     H     0.41844  0.41844  0.00000  0.16311

   Total alpha = 36.00000, Total beta = 36.00000, Total charge =  0.00000
