  ==> Input File <==

--------------------------------------------------------------------------
set {
	reference rhf
	basis cc-pvtz
}

set_num_threads( 4 )
memory 2 gb

molecule MOL {
0 1

H	 -1.999473	 0.515863	 -0.992545
N	 -1.851927	 0.161443	 -0.071573
C	 -0.561396	 -0.500007	 0.035200
H	 -2.596179	 -0.475789	 0.121713
C	 0.575129	 0.507849	 -0.048832
H	 -0.478089	 -1.200753	 -0.788956
H	 -0.456191	 -1.081816	 0.952176
C	 1.951750	 -0.141983	 0.035101
H	 0.478254	 1.061643	 -0.975981
H	 0.467676	 1.231891	 0.755499
H	 2.101550	 -0.848142	 -0.774949
H	 2.738260	 0.600794	 -0.026526
H	 2.078939	 -0.679792	 0.968824

	symmetry c1
}
set optking {
	frozen_dihedral = ("
		1 2 3 6
	")
}

ee = optimize('scf')
oeprop('DIPOLE', 'QUADRUPOLE', 'MULLIKEN_CHARGES')
f=open( 'psi4out.xyz', 'w' )
f.write( "13  " )
f.write( str(ee) + "\n" )
f.write( MOL.save_string_xyz() )
f.close()
--------------------------------------------------------------------------

    Molecular point group: c1
  Charge       = 0
  Multiplicity = 1
  Basis Set: CC-PVTZ
  Basis Set:
  @DF-RHF Final Energy:  -173.35056482134041
    Total Energy =                       -173.3505648213403845
    Molecular point group: c1
  Basis Set: CC-PVTZ
  Basis Set:
  Basis Set: CC-PVTZ
  Basis Set:
  @DF-RHF Final Energy:  -173.35221658886360
    Total Energy =                       -173.3522165888636266
  Basis Set: CC-PVTZ
  Basis Set:
  Basis Set: CC-PVTZ
  Basis Set:
  @DF-RHF Final Energy:  -173.35245330013529
    Total Energy =                       -173.3524533001351529
  Basis Set: CC-PVTZ
  Basis Set:
  Basis Set: CC-PVTZ
  Basis Set:
  @DF-RHF Final Energy:  -173.35245779415675
    Total Energy =                       -173.3524577941566918
  Basis Set: CC-PVTZ
  Basis Set:
  Charge       = 0
  Multiplicity = 1
  Basis Set: CC-PVTZ
  Basis Set:

    Orbital Energies (a.u.)
    -----------------------

    Doubly Occupied:

       1A    -15.527221     2A    -11.238596     3A    -11.209105
       4A    -11.206447     5A     -1.178552     6A     -1.035932
       7A     -0.899313     8A     -0.798849     9A     -0.666239
      10A     -0.627055    11A     -0.603976    12A     -0.567759
      13A     -0.528837    14A     -0.491911    15A     -0.478848
      16A     -0.468061    17A     -0.385009

  @DF-RHF Final Energy:  -173.35245873457998

   => Energetics <=

    Nuclear Repulsion Energy =            131.9208273597581353
    One-Electron Energy =                -494.7231499033372302
    Two-Electron Energy =                 189.4498638089991118
    DFT Exchange-Correlation Energy =       0.0000000000000000
    Empirical Dispersion Energy =           0.0000000000000000
    PCM Polarization Energy =               0.0000000000000000
    EFP Energy =                            0.0000000000000000
    Total Energy =                       -173.3524587345799546
    Molecular point group: c1
  Basis Set: CC-PVTZ
  Basis Set:

  -Total Gradient:
     Atom            X                  Y                   Z
    ------   -----------------  -----------------  -----------------
       1       -0.000486725158    -0.001003412073    -0.000273684657
       2        0.000731216810     0.001465402695     0.000160849987
       3       -0.000627976297    -0.001192764594     0.000701402434
       4       -0.000018113115    -0.000009018052     0.000001376079
       5       -0.000013541138    -0.000012587778     0.000026380467
       6        0.000406999014     0.000757517796    -0.000626455568
       7        0.000010453004     0.000016433014     0.000002700931
       8        0.000009780085    -0.000005537064    -0.000002940052
       9       -0.000013915353    -0.000020965000     0.000008309488
      10       -0.000002019266     0.000002565878     0.000004145338
      11       -0.000002015507    -0.000001277418     0.000002051032
      12        0.000005368699     0.000000171041    -0.000002342529
      13        0.000000488223     0.000003471553    -0.000001792950

  **** Optimization is complete! (in 5 steps) ****
    Final optimized geometry and variables:
    Molecular point group: c1

    Geometry (in Angstrom), charge = 0, multiplicity = 1:

    H           -2.025745128717     0.512848842179    -0.953931047735
    N           -1.852902006334     0.168635831684    -0.032478409011
    C           -0.561228599356    -0.497662996541     0.037942995006
    H           -2.592916130743    -0.466235330775     0.180338927720
    C            0.576462942598     0.511582730822    -0.021226272467
    H           -0.421011541864    -1.233994231587    -0.754538874352
    H           -0.513214784476    -1.034768486217     0.979055389985
    C            1.952466354560    -0.139939522085     0.059988112053
    H            0.498204048366     1.079026344241    -0.945412767384
    H            0.449670864352     1.222898693802     0.787116883827
    H            2.109929937877    -0.835125947839    -0.758149876255
    H            2.739655111729     0.603410329376     0.016043966518
    H            2.071222002869    -0.690649502241     0.987432463945

  Mulliken Charges: (a.u.)
   Center  Symbol    Alpha    Beta     Spin     Total
       1     H     0.43101  0.43101  0.00000  0.13798
       2     N     3.68935  3.68935  0.00000 -0.37871
       3     C     3.02551  3.02551  0.00000 -0.05102
       4     H     0.42954  0.42954  0.00000  0.14093
       5     C     3.07521  3.07521  0.00000 -0.15042
       6     H     0.46881  0.46881  0.00000  0.06239
       7     H     0.45708  0.45708  0.00000  0.08583
       8     C     3.15323  3.15323  0.00000 -0.30646
       9     H     0.45992  0.45992  0.00000  0.08016
      10     H     0.44996  0.44996  0.00000  0.10008
      11     H     0.45714  0.45714  0.00000  0.08572
      12     H     0.44775  0.44775  0.00000  0.10450
      13     H     0.45549  0.45549  0.00000  0.08901

   Total alpha = 17.00000, Total beta = 17.00000, Total charge = -0.00000
