  ==> Input File <==

--------------------------------------------------------------------------
set {
	reference rhf
	basis cc-pvtz
}

set_num_threads( 4 )
memory 2 gb

molecule MOL {
0 1

H	 0.078194	 -0.121313	 -0.435279
N	 -0.625934	 -0.663929	 -0.000707
C	 -1.978635	 -0.158664	 0.001017
C	 -0.266635	 -1.840960	 0.557937
H	 -2.519057	 -0.493535	 -0.876362
H	 -1.938890	 0.917202	 -0.004137
H	 -2.514266	 -0.485137	 0.884506
C	 1.204034	 -2.173857	 0.434920
O	 -1.040176	 -2.571774	 1.102567
H	 1.805653	 -1.413667	 0.919445
H	 1.386913	 -3.127740	 0.901534
H	 1.496354	 -2.219815	 -0.607700

	symmetry c1
}
set optking {
	frozen_dihedral = ("
		4 2 3 5
	")
}

ee = optimize('scf')
oeprop('DIPOLE', 'QUADRUPOLE', 'MULLIKEN_CHARGES')
f=open( 'psi4out.xyz', 'w' )
f.write( "12  " )
f.write( str(ee) + "\n" )
f.write( MOL.save_string_xyz() )
f.close()
--------------------------------------------------------------------------

    Molecular point group: c1
  Charge       = 0
  Multiplicity = 1
  Basis Set: CC-PVTZ
  Basis Set:
  @DF-RHF Final Energy:  -247.10084148450440
    Total Energy =                       -247.1008414845042012
    Molecular point group: c1
  Basis Set: CC-PVTZ
  Basis Set:
  Basis Set: CC-PVTZ
  Basis Set:
  @DF-RHF Final Energy:  -247.10101554714262
    Total Energy =                       -247.1010155471426515
  Basis Set: CC-PVTZ
  Basis Set:
  Basis Set: CC-PVTZ
  Basis Set:
  @DF-RHF Final Energy:  -247.10077206195655
    Total Energy =                       -247.1007720619565475
  Basis Set: CC-PVTZ
  Basis Set:
  Basis Set: CC-PVTZ
  Basis Set:
  @DF-RHF Final Energy:  -247.10110926121618
    Total Energy =                       -247.1011092612162088
  Basis Set: CC-PVTZ
  Basis Set:
  @DF-RHF Final Energy:  -247.10112438070374
    Total Energy =                       -247.1011243807038227
  @DF-RHF Final Energy:  -247.10114792542805
    Total Energy =                       -247.1011479254280516
  @DF-RHF Final Energy:  -247.10115160268120
    Total Energy =                       -247.1011516026811705
  @DF-RHF Final Energy:  -247.10115305687225
    Total Energy =                       -247.1011530568719650
  @DF-RHF Final Energy:  -247.10115514478898
    Total Energy =                       -247.1011551447890611
  @DF-RHF Final Energy:  -247.10116368354485
    Total Energy =                       -247.1011636835447121
  @DF-RHF Final Energy:  -247.00564507716174
    Total Energy =                       -247.0056450771616596
  @DF-RHF Final Energy:  -247.08795448907577
    Total Energy =                       -247.0879544890757984
  @DF-RHF Final Energy:  -247.10083792769277
    Total Energy =                       -247.1008379276927371
  @DF-RHF Final Energy:  -247.10119276206544
    Total Energy =                       -247.1011927620654660
  @DF-RHF Final Energy:  -247.10124446782496
    Total Energy =                       -247.1012444678250404
  @DF-RHF Final Energy:  -247.10125647848133
    Total Energy =                       -247.1012564784814458
  @DF-RHF Final Energy:  -247.10126611776505
    Total Energy =                       -247.1012661177646805
  @DF-RHF Final Energy:  -247.10127437349021
    Total Energy =                       -247.1012743734902415
  @DF-RHF Final Energy:  -247.10128229406121
    Total Energy =                       -247.1012822940612068
  @DF-RHF Final Energy:  -247.10128965404093
    Total Energy =                       -247.1012896540407837
  @DF-RHF Final Energy:  -247.10129644463785
    Total Energy =                       -247.1012964446379101
  @DF-RHF Final Energy:  -247.10129806012358
    Total Energy =                       -247.1012980601234403
  @DF-RHF Final Energy:  -247.10129963168944
    Total Energy =                       -247.1012996316895283
  Basis Set: CC-PVTZ
  Basis Set:
  @DF-RHF Final Energy:  -247.10130116587604
    Total Energy =                       -247.1013011658760092
  Basis Set: CC-PVTZ
  Basis Set:
  Basis Set: CC-PVTZ
  Basis Set:
  @DF-RHF Final Energy:  -247.10130553513270
    Total Energy =                       -247.1013055351327239
  Basis Set: CC-PVTZ
  Basis Set:
  Basis Set: CC-PVTZ
  Basis Set:
  @DF-RHF Final Energy:  -247.10130955959383
    Total Energy =                       -247.1013095595938012
  Basis Set: CC-PVTZ
  Basis Set:
  Charge       = 0
  Multiplicity = 1
  Basis Set: CC-PVTZ
  Basis Set:

    Orbital Energies (a.u.)
    -----------------------

    Doubly Occupied:

       1A    -20.505199     2A    -15.576270     3A    -11.336224
       4A    -11.253319     5A    -11.228353     6A     -1.387926
       7A     -1.231554     8A     -1.016324     9A     -0.933755
      10A     -0.789244    11A     -0.690898    12A     -0.651995
      13A     -0.635531    14A     -0.586523    15A     -0.583056
      16A     -0.555266    17A     -0.546940    18A     -0.508023
      19A     -0.417143    20A     -0.390317

  @DF-RHF Final Energy:  -247.10131051065557

   => Energetics <=

    Nuclear Repulsion Energy =            181.7546984277479680
    One-Electron Energy =                -696.0642950972355720
    Two-Electron Energy =                 267.2082861588319247
    DFT Exchange-Correlation Energy =       0.0000000000000000
    Empirical Dispersion Energy =           0.0000000000000000
    PCM Polarization Energy =               0.0000000000000000
    EFP Energy =                            0.0000000000000000
    Total Energy =                       -247.1013105106557077
    Molecular point group: c1
  Basis Set: CC-PVTZ
  Basis Set:

  -Total Gradient:
     Atom            X                  Y                   Z
    ------   -----------------  -----------------  -----------------
       1        0.000000322224    -0.000000972757    -0.000002962822
       2       -0.000003362106    -0.000069405717    -0.000421635427
       3       -0.000108051852    -0.000284909578     0.000240430475
       4        0.000014723673     0.000080203835     0.000231165815
       5        0.000091387155     0.000255701595    -0.000095034728
       6       -0.000000710340     0.000000797191     0.000000856872
       7        0.000000275094    -0.000000739556    -0.000000454062
       8       -0.000000291122    -0.000001776365     0.000005470125
       9        0.000005922742     0.000017303778     0.000046386420
      10        0.000001328209    -0.000002855905     0.000032869068
      11       -0.000007877350    -0.000024647725    -0.000021236274
      12        0.000006333679     0.000031301204    -0.000015855461

  **** Optimization is complete! (in 27 steps) ****
    Final optimized geometry and variables:
    Molecular point group: c1

    Geometry (in Angstrom), charge = 0, multiplicity = 1:

    H            0.656385672098     1.445291932944    -0.673575122839
    N           -0.052420660374     0.870975082686    -0.291672065240
    C           -1.421643669768     1.324425750639    -0.368011039693
    C            0.282947480175    -0.368914494914     0.124415820966
    H           -1.864943706049     1.118889515805    -1.336209330046
    H           -1.458138988601     2.390661663418    -0.189048416053
    H           -2.001631694757     0.820717108740     0.387486446778
    C            1.754403827112    -0.706659312575     0.038176005778
    O           -0.520685118371    -1.160198806794     0.522005496651
    H            2.389433420756     0.166658669816     0.112079444602
    H            1.997102412822    -1.402505828167     0.826146526440
    H            1.942669221520    -1.191186391735    -0.913000375937

  Mulliken Charges: (a.u.)
   Center  Symbol    Alpha    Beta     Spin     Total
       1     H     0.41070  0.41070  0.00000  0.17861
       2     N     3.61691  3.61691  0.00000 -0.23382
       3     C     3.08135  3.08135  0.00000 -0.16270
       4     C     2.84021  2.84021  0.00000  0.31957
       5     H     0.45732  0.45732  0.00000  0.08536
       6     H     0.45520  0.45520  0.00000  0.08960
       7     H     0.43466  0.43466  0.00000  0.13068
       8     C     3.14726  3.14726  0.00000 -0.29451
       9     O     4.21867  4.21867  0.00000 -0.43734
      10     H     0.45747  0.45747  0.00000  0.08505
      11     H     0.43575  0.43575  0.00000  0.12849
      12     H     0.44449  0.44449  0.00000  0.11101

   Total alpha = 20.00000, Total beta = 20.00000, Total charge =  0.00000
