  ==> Input File <==

--------------------------------------------------------------------------
set {
	reference rhf
	basis 6-31G*
}

set_num_threads( 4 )
memory 2 gb

molecule MOL {
0 1

H	 -3.892951	 0.981613	 -0.358725
C	 -3.196921	 0.361773	 0.172313
C	 -2.076860	 -0.007332	 -0.404944
H	 -3.439953	 0.057760	 1.173024
O	 -1.180634	 -0.819263	 0.215062
H	 -1.811520	 0.292194	 -1.403480
C	 0.051604	 -1.018856	 -0.387932
C	 1.043764	 0.054862	 -0.001873
H	 -0.017620	 -1.041351	 -1.469781
H	 0.437898	 -1.966374	 -0.042284
F	 1.922635	 -0.444536	 0.854861
F	 1.714806	 0.502805	 -1.050148
F	 0.458890	 1.086202	 0.571406

	symmetry c1
}
set optking {
	frozen_dihedral = ("
		11 8 7 9
	")
}

ee = optimize('scf')
oeprop('DIPOLE', 'QUADRUPOLE', 'MULLIKEN_CHARGES')
f=open( 'psi4out.xyz', 'w' )
f.write( "13  " )
f.write( str(ee) + "\n" )
f.write( MOL.save_string_xyz() )
f.close()
--------------------------------------------------------------------------

    Molecular point group: c1
  Charge       = 0
  Multiplicity = 1
  Basis Set: 6-31G*
  Basis Set:
  @DF-RHF Final Energy:  -527.52896382528161
    Total Energy =                       -527.5289638252816076
    Molecular point group: c1
  Basis Set: 6-31G*
  Basis Set:
  Basis Set: 6-31G*
  Basis Set:
  @DF-RHF Final Energy:  -527.52971432590641
    Total Energy =                       -527.5297143259059567
  Basis Set: 6-31G*
  Basis Set:
  Basis Set: 6-31G*
  Basis Set:
  @DF-RHF Final Energy:  -527.52995730829230
    Total Energy =                       -527.5299573082922961
  Basis Set: 6-31G*
  Basis Set:
  Basis Set: 6-31G*
  Basis Set:
  @DF-RHF Final Energy:  -527.52997711946705
    Total Energy =                       -527.5299771194675031
  Basis Set: 6-31G*
  Basis Set:
  Basis Set: 6-31G*
  Basis Set:
  @DF-RHF Final Energy:  -527.52998380325880
    Total Energy =                       -527.5299838032590287
  Basis Set: 6-31G*
  Basis Set:
  Basis Set: 6-31G*
  Basis Set:
  @DF-RHF Final Energy:  -527.52999019131880
    Total Energy =                       -527.5299901913188023
  Basis Set: 6-31G*
  Basis Set:
  Basis Set: 6-31G*
  Basis Set:
  @DF-RHF Final Energy:  -527.52999428357157
    Total Energy =                       -527.5299942835713409
  Basis Set: 6-31G*
  Basis Set:
  Charge       = 0
  Multiplicity = 1
  Basis Set: 6-31G*
  Basis Set:

    Orbital Energies (a.u.)
    -----------------------

    Doubly Occupied:

       1A    -26.345059     2A    -26.341336     3A    -26.340989
       4A    -20.608079     5A    -11.504804     6A    -11.318593
       7A    -11.299687     8A    -11.216160     9A     -1.742099
      10A     -1.640903    11A     -1.636153    12A     -1.438357
      13A     -1.081037    14A     -1.015198    15A     -0.925749
      16A     -0.837058    17A     -0.830341    18A     -0.821290
      19A     -0.789250    20A     -0.726054    21A     -0.714763
      22A     -0.695166    23A     -0.674265    24A     -0.660433
      25A     -0.654498    26A     -0.642301    27A     -0.627890
      28A     -0.584248    29A     -0.561820    30A     -0.525476
      31A     -0.511931    32A     -0.351692

  @DF-RHF Final Energy:  -527.52999527474617

   => Energetics <=

    Nuclear Repulsion Energy =            412.3410982767217092
    One-Electron Energy =               -1548.4168340734154299
    Two-Electron Energy =                 608.5457405219474367
    DFT Exchange-Correlation Energy =       0.0000000000000000
    Empirical Dispersion Energy =           0.0000000000000000
    PCM Polarization Energy =               0.0000000000000000
    EFP Energy =                            0.0000000000000000
    Total Energy =                       -527.5299952747461703
    Molecular point group: c1
  Basis Set: 6-31G*
  Basis Set:

  -Total Gradient:
     Atom            X                  Y                   Z
    ------   -----------------  -----------------  -----------------
       1        0.000015521052     0.000030830761     0.000020679573
       2       -0.000001858218    -0.000004327812     0.000004543191
       3        0.000021448911    -0.000077729847    -0.000071697185
       4        0.000005693002     0.000003523379     0.000002701300
       5       -0.000009536176    -0.000008924462     0.000042261806
       6        0.000014008598     0.000028296129     0.000019588119
       7       -0.002473520700     0.002702488319    -0.000717872194
       8       -0.001641531091     0.000651667299     0.003006072850
       9        0.002482397910    -0.002425930033    -0.000026090912
      10       -0.000033953985     0.000008098464     0.000011148791
      11        0.001698098261    -0.000936765059    -0.002217138536
      12        0.000013447174    -0.000004937486    -0.000048348433
      13       -0.000090214739     0.000033710346    -0.000025848364

  **** Optimization is complete! (in 8 steps) ****
    Final optimized geometry and variables:
    Molecular point group: c1

    Geometry (in Angstrom), charge = 0, multiplicity = 1:

    H           -3.916933853009     0.993532132492    -0.337101621373
    C           -3.256387154011     0.315273561050     0.167154232603
    C           -2.074957068925     0.051886035078    -0.341496989167
    H           -3.582703804606    -0.129514995678     1.088480047325
    O           -1.209197591404    -0.808657434532     0.254801771395
    H           -1.728293573356     0.492100126534    -1.260176535942
    C            0.015009115972    -1.020859408176    -0.355154952263
    C            1.052931088045     0.052952190879    -0.013738969409
    H           -0.060325893427    -1.089749357201    -1.433808382145
    H            0.392101244141    -1.963359348342     0.012320057213
    F            1.941798818792    -0.389642110683     0.859548283133
    F            1.731426190511     0.392855358961    -1.103167893413
    F            0.509633313477     1.147075450874     0.474623158151

  Mulliken Charges: (a.u.)
   Center  Symbol    Alpha    Beta     Spin     Total
       1     H     0.40699  0.40699  0.00000  0.18603
       2     C     3.23645  3.23645  0.00000 -0.47290
       3     C     2.89413  2.89413  0.00000  0.21174
       4     H     0.40207  0.40207  0.00000  0.19586
       5     O     4.29839  4.29839  0.00000 -0.59678
       6     H     0.40739  0.40739  0.00000  0.18522
       7     C     3.08357  3.08357  0.00000 -0.16715
       8     C     2.44618  2.44618  0.00000  1.10764
       9     H     0.40038  0.40038  0.00000  0.19924
      10     H     0.38515  0.38515  0.00000  0.22970
      11     F     4.68062  4.68062  0.00000 -0.36124
      12     F     4.68584  4.68584  0.00000 -0.37167
      13     F     4.67284  4.67284  0.00000 -0.34568

   Total alpha = 32.00000, Total beta = 32.00000, Total charge = -0.00000
