                              Psi4 1.0.54 Driver

  ==> Input File <==

--------------------------------------------------------------------------
set {
	reference rhf
	basis cc-pvtz
}

set_num_threads( 4 )
memory 2 gb

molecule MOL {
0 1

O	 -0.694481	 1.313155	 -0.204815
C	 -0.862519	 0.151932	 -0.046791
C	 -2.171428	 -0.477048	 0.339095
O	 0.085519	 -0.757083	 -0.192238
H	 -2.467997	 -1.191667	 -0.417688
H	 -2.923379	 0.287970	 0.444097
H	 -2.053854	 -1.015120	 1.270901
C	 1.392036	 -0.330828	 -0.560749
C	 1.914074	 0.743405	 0.370593
H	 1.378355	 0.013783	 -1.582938
H	 1.998372	 -1.222000	 -0.498128
H	 2.933573	 0.994373	 0.100241
H	 1.313712	 1.640150	 0.301346
H	 1.909722	 0.395525	 1.396533

	symmetry c1
}
set optking {
	frozen_dihedral = ("
		10 8 4 2
	")
}

ee,wfn = optimize('scf', return_wfn=True)
oeprop( wfn, 'DIPOLE', 'QUADRUPOLE', 'MULLIKEN_CHARGES')
f=open( 'psi4out.xyz', 'w' )
f.write( "14  " )
f.write( str(ee) + "\n" )
f.write( MOL.save_string_xyz() )
f.close()
--------------------------------------------------------------------------

    Molecular point group: c1
  Charge       = 0
  Multiplicity = 1
  Basis Set: CC-PVTZ
  Basis Set:
  @DF-RHF Final Energy:  -305.98370987291952
    Total Energy =                       -305.9837098729195759
    Molecular point group: c1
  Basis Set: CC-PVTZ
  Basis Set:
  Basis Set: CC-PVTZ
  Basis Set:
  @DF-RHF Final Energy:  -305.98769716723672
    Total Energy =                       -305.9876971672367176
  Basis Set: CC-PVTZ
  Basis Set:
  Basis Set: CC-PVTZ
  Basis Set:
  @DF-RHF Final Energy:  -305.98756115054522
    Total Energy =                       -305.9875611505453321
  Basis Set: CC-PVTZ
  Basis Set:
  Basis Set: CC-PVTZ
  Basis Set:
  @DF-RHF Final Energy:  -305.98732169025470
    Total Energy =                       -305.9873216902549302
  Basis Set: CC-PVTZ
  Basis Set:
  Basis Set: CC-PVTZ
  Basis Set:
  @DF-RHF Final Energy:  -305.98802157170553
    Total Energy =                       -305.9880215717054170
  Basis Set: CC-PVTZ
  Basis Set:
  Basis Set: CC-PVTZ
  Basis Set:
  @DF-RHF Final Energy:  -305.98803064495195
    Total Energy =                       -305.9880306449522891
  Basis Set: CC-PVTZ
  Basis Set:
  Basis Set: CC-PVTZ
  Basis Set:
  @DF-RHF Final Energy:  -305.98803176714762
    Total Energy =                       -305.9880317671474472
  Basis Set: CC-PVTZ
  Basis Set:
  Charge       = 0
  Multiplicity = 1
  Basis Set: CC-PVTZ
  Basis Set:

    Orbital Energies (a.u.)
    -----------------------

    Doubly Occupied:

       1A    -20.593761     2A    -20.532433     3A    -11.367575
       4A    -11.286072     5A    -11.231004     6A    -11.215115
       7A     -1.469204     8A     -1.365670     9A     -1.055472
      10A     -0.998894    11A     -0.889448    12A     -0.757848
      13A     -0.699487    14A     -0.685159    15A     -0.664315
      16A     -0.613219    17A     -0.589031    18A     -0.571117
      19A     -0.554577    20A     -0.532346    21A     -0.516177
      22A     -0.494961    23A     -0.455738    24A     -0.438067

  @DF-RHF Final Energy:  -305.98803269182952

   => Energetics <=

    Nuclear Repulsion Energy =            250.0210957965967111
    One-Electron Energy =                -912.8648811815742192
    Two-Electron Energy =                 356.8557526931480766
    DFT Exchange-Correlation Energy =       0.0000000000000000
    Empirical Dispersion Energy =           0.0000000000000000
    PCM Polarization Energy =               0.0000000000000000
    EFP Energy =                            0.0000000000000000
    Total Energy =                       -305.9880326918294600
    Molecular point group: c1
  Basis Set: CC-PVTZ
  Basis Set:

  -Total Gradient:
     Atom            X                  Y                   Z
    ------   -----------------  -----------------  -----------------
       1       -0.000025126592    -0.000197509558     0.000007095150
       2        0.001001529043     0.000840679121     0.004830356171
       3        0.000007154441    -0.000006931764     0.000064060907
       4       -0.000944525786    -0.002077674689    -0.007638343841
       5       -0.000026195045    -0.000018675242    -0.000028421657
       6       -0.000001061467     0.000000876001    -0.000009948038
       7       -0.000008721185    -0.000041143019    -0.000000581286
       8       -0.001325665677     0.006669770860     0.004447810708
       9        0.000055984706    -0.000003882705     0.000040530455
      10        0.001365175584    -0.005141427246    -0.001662262187
      11       -0.000052880620    -0.000039670087    -0.000015418067
      12       -0.000042732139     0.000013267229    -0.000000524655
      13        0.000005315033    -0.000000107746    -0.000013783111
      14       -0.000008250296     0.000002428847    -0.000020570550

  **** Optimization is complete! (in 8 steps) ****
    Final optimized geometry and variables:
    Molecular point group: c1

    Geometry (in Angstrom), charge = 0, multiplicity = 1:

    O           -0.774978560350     1.167688658684    -0.327772544398
    C           -0.844771945271     0.020082350878    -0.046706252712
    C           -2.090987003825    -0.662874026659     0.443114670634
    O            0.160520729794    -0.830597252225    -0.146200526950
    H           -2.335934006124    -1.487645080443    -0.213372452863
    H           -2.903493152775     0.044760329187     0.471889403880
    H           -1.916504416899    -1.070170590900     1.430805735537
    C            1.471564084298    -0.366831853077    -0.453272955057
    C            2.033389334914     0.654344002646     0.515046413754
    H            1.492608868144    -0.029665672828    -1.481021240320
    H            2.064719525053    -1.268773148681    -0.408509125150
    H            3.084560906613     0.796716423346     0.290614800999
    H            1.532069612960     1.605322075205     0.443225506003
    H            1.956563291637     0.289822876836     1.533170857117

  Mulliken Charges: (a.u.)
   Center  Symbol    Alpha    Beta     Spin     Total
       1     O     4.19954  4.19954  0.00000 -0.39908
       2     C     2.80052  2.80052  0.00000  0.39895
       3     C     3.13810  3.13810  0.00000 -0.27621
       4     O     4.15601  4.15601  0.00000 -0.31203
       5     H     0.44483  0.44483  0.00000  0.11034
       6     H     0.43845  0.43845  0.00000  0.12310
       7     H     0.44677  0.44677  0.00000  0.10646
       8     C     2.98234  2.98234  0.00000  0.03533
       9     C     3.15604  3.15604  0.00000 -0.31209
      10     H     0.45389  0.45389  0.00000  0.09221
      11     H     0.44640  0.44640  0.00000  0.10721
      12     H     0.44994  0.44994  0.00000  0.10012
      13     H     0.43360  0.43360  0.00000  0.13281
      14     H     0.45357  0.45357  0.00000  0.09286

   Total alpha = 24.00000, Total beta = 24.00000, Total charge = -0.00000

*** Psi4 exiting successfully. Buy a developer a beer!
