  ==> Input File <==

--------------------------------------------------------------------------
set {
	reference rhf
	basis cc-pvtz
}

set_num_threads( 4 )
memory 2 gb

molecule MOL {
0 1

H	 3.889604	 0.356866	 -0.089510
N	 3.091268	 -0.241216	 -0.065538
C	 1.860978	 0.530248	 0.016256
H	 3.192566	 -0.835836	 0.730398
C	 0.644130	 -0.381765	 -0.031064
H	 1.835721	 1.204666	 -0.833114
H	 1.808789	 1.151975	 0.911067
C	 -0.678115	 0.376691	 0.025731
H	 0.693998	 -0.977147	 -0.936845
H	 0.693309	 -1.082142	 0.800523
C	 -1.134927	 0.897695	 -1.334078
H	 -0.583342	 1.213383	 0.714149
H	 -1.450293	 -0.269037	 0.437616
C	 -2.453819	 1.660811	 -1.272018
H	 -0.364628	 1.542671	 -1.747526
H	 -1.234089	 0.063108	 -2.022845
H	 -2.376883	 2.522690	 -0.617431
H	 -2.748779	 2.016411	 -2.252606
H	 -3.253062	 1.031501	 -0.894505

	symmetry c1
}
set optking {
	frozen_dihedral = ("
		12 8 5 9
	")
}

ee = optimize('scf')
oeprop('DIPOLE', 'QUADRUPOLE', 'MULLIKEN_CHARGES')
f=open( 'psi4out.xyz', 'w' )
f.write( "19  " )
f.write( str(ee) + "\n" )
f.write( MOL.save_string_xyz() )
f.close()
--------------------------------------------------------------------------

    Molecular point group: c1
  Charge       = 0
  Multiplicity = 1
  Basis Set: CC-PVTZ
  Basis Set:
  @DF-RHF Final Energy:  -251.44549940283918
    Total Energy =                       -251.4454994028391184
    Molecular point group: c1
  Basis Set: CC-PVTZ
  Basis Set:
  Basis Set: CC-PVTZ
  Basis Set:
  @DF-RHF Final Energy:  -251.44564565254439
    Total Energy =                       -251.4456456525446129
  Basis Set: CC-PVTZ
  Basis Set:
  Basis Set: CC-PVTZ
  Basis Set:
  @DF-RHF Final Energy:  -251.44566963114482
    Total Energy =                       -251.4456696311449946
  Basis Set: CC-PVTZ
  Basis Set:
  Charge       = 0
  Multiplicity = 1
  Basis Set: CC-PVTZ
  Basis Set:

    Orbital Energies (a.u.)
    -----------------------

    Doubly Occupied:

       1A    -15.526418     2A    -11.237778     3A    -11.211383
       4A    -11.210527     5A    -11.207857     6A    -11.205262
       7A     -1.178250     8A     -1.073266     9A     -0.997681
      10A     -0.899876    11A     -0.824433    12A     -0.781070
      13A     -0.662792    14A     -0.636546    15A     -0.622935
      16A     -0.591186    17A     -0.571072    18A     -0.548907
      19A     -0.526363    20A     -0.499856    21A     -0.488439
      22A     -0.464219    23A     -0.455614    24A     -0.447886
      25A     -0.384012

  @DF-RHF Final Energy:  -251.44567015116669

   => Energetics <=

    Nuclear Repulsion Energy =            248.7692707238577157
    One-Electron Energy =                -831.9226309158392496
    Two-Electron Energy =                 331.7076900408147253
    DFT Exchange-Correlation Energy =       0.0000000000000000
    Empirical Dispersion Energy =           0.0000000000000000
    PCM Polarization Energy =               0.0000000000000000
    EFP Energy =                            0.0000000000000000
    Total Energy =                       -251.4456701511667802
    Molecular point group: c1
  Basis Set: CC-PVTZ
  Basis Set:

  -Total Gradient:
     Atom            X                  Y                   Z
    ------   -----------------  -----------------  -----------------
       1        0.000013042719    -0.000007016817    -0.000000242876
       2        0.000027059124    -0.000003966728    -0.000005461436
       3       -0.000016622361    -0.000021908301    -0.000006075331
       4        0.000003726801     0.000005697654    -0.000003197760
       5       -0.000919801230    -0.001687863092     0.000899765667
       6        0.000003145395    -0.000000974357     0.000004505816
       7       -0.000018454348     0.000015847959     0.000001155064
       8       -0.000616532120    -0.001135081576     0.001660028775
       9        0.000856996193     0.001623571647    -0.001009263882
      10       -0.000007370949     0.000024402336     0.000003462435
      11       -0.000002932444    -0.000052538251     0.000002048142
      12        0.000655681735     0.001212160355    -0.001542543733
      13        0.000005434700    -0.000002425241    -0.000020270622
      14        0.000023602108     0.000031089070     0.000024183517
      15       -0.000000565400    -0.000001715247    -0.000007630737
      16        0.000001215737    -0.000010800796     0.000000053733
      17       -0.000020173055     0.000002492663     0.000007706798
      18        0.000009273564     0.000009312834    -0.000002087970
      19        0.000003273833    -0.000000284108    -0.000006135603

  **** Optimization is complete! (in 4 steps) ****
    Final optimized geometry and variables:
    Molecular point group: c1

    Geometry (in Angstrom), charge = 0, multiplicity = 1:

    H            3.638643243576    -0.118250924690     0.340574138942
    N            2.839079673293    -0.714973583994     0.356644463407
    C            1.610764393600     0.055913701310     0.465096594428
    H            2.944981542250    -1.328511109968     1.137548708340
    C            0.393257966795    -0.859796962896     0.418292626807
    H            1.582417410640     0.747709900862    -0.368987454285
    H            1.566501325280     0.658154056657     1.373550595922
    C           -0.941628641946    -0.108906446937     0.455862179385
    H            0.460090967425    -1.458036426570    -0.484209434325
    H            0.448627712068    -1.547381132555     1.257893558736
    C           -1.397283158174     0.413432539134    -0.906744177443
    H           -0.865223515582     0.731680468152     1.141782195128
    H           -1.713362476496    -0.761322933787     0.852121496236
    C           -2.708262522862     1.189628255704    -0.837883398164
    H           -0.628466863642     1.049757013818    -1.334289918063
    H           -1.510539859272    -0.425199183682    -1.587827860531
    H           -2.616867072500     2.057197343475    -0.192637429048
    H           -3.010855454184     1.538157320077    -1.818733362401
    H           -3.508825303022     0.571199446785    -0.445383662450

  Mulliken Charges: (a.u.)
   Center  Symbol    Alpha    Beta     Spin     Total
       1     H     0.43015  0.43015  0.00000  0.13970
       2     N     3.68924  3.68924  0.00000 -0.37848
       3     C     3.02378  3.02378  0.00000 -0.04757
       4     H     0.43105  0.43105  0.00000  0.13789
       5     C     3.09089  3.09089  0.00000 -0.18177
       6     H     0.45686  0.45686  0.00000  0.08628
       7     H     0.46853  0.46853  0.00000  0.06294
       8     C     3.10123  3.10123  0.00000 -0.20247
       9     H     0.45046  0.45046  0.00000  0.09908
      10     H     0.45334  0.45334  0.00000  0.09332
      11     C     3.08165  3.08165  0.00000 -0.16330
      12     H     0.45738  0.45738  0.00000  0.08525
      13     H     0.44784  0.44784  0.00000  0.10432
      14     C     3.15016  3.15016  0.00000 -0.30032
      15     H     0.45478  0.45478  0.00000  0.09044
      16     H     0.45362  0.45362  0.00000  0.09276
      17     H     0.45553  0.45553  0.00000  0.08894
      18     H     0.44845  0.44845  0.00000  0.10309
      19     H     0.45505  0.45505  0.00000  0.08989

   Total alpha = 25.00000, Total beta = 25.00000, Total charge =  0.00000
