  ==> Input File <==

--------------------------------------------------------------------------
set {
	reference rhf
	basis 6-31G*
}

set_num_threads( 4 )
memory 2 gb

molecule MOL {
0 1

O	 -2.042549	 -1.228399	 -0.269030
C	 -1.653912	 -0.146171	 0.050137
C	 -0.332303	 0.024011	 0.778412
C	 -2.438579	 1.106236	 -0.272369
C	 0.845713	 -0.001731	 -0.208243
H	 -0.323783	 0.953829	 1.340327
H	 -0.235459	 -0.796807	 1.480410
C	 0.561996	 0.791157	 -1.484905
H	 1.083223	 -1.031115	 -0.470996
H	 1.722387	 0.402715	 0.288756
C	 1.735155	 0.774716	 -2.464004
H	 -0.322344	 0.386867	 -1.972674
H	 0.324276	 1.819249	 -1.222068
H	 1.975262	 -0.238858	 -2.772337
H	 2.626160	 1.203298	 -2.014706
H	 1.507009	 1.346774	 -3.357719
H	 -3.277823	 0.863061	 -0.908988
H	 -1.806773	 1.843019	 -0.759671
H	 -2.802853	 1.554979	 0.648059

	symmetry c1
}
set optking {
	frozen_dihedral = ("
		9 5 3 2
	")
}

ee = optimize('scf')
oeprop('DIPOLE', 'QUADRUPOLE', 'MULLIKEN_CHARGES')
f=open( 'psi4out.xyz', 'w' )
f.write( "19  " )
f.write( str(ee) + "\n" )
f.write( MOL.save_string_xyz() )
f.close()
--------------------------------------------------------------------------

    Molecular point group: c1
  Charge       = 0
  Multiplicity = 1
  Basis Set: 6-31G*
  Basis Set:
  @DF-RHF Final Energy:  -309.05888787450834
    Total Energy =                       -309.0588878745085140
    Molecular point group: c1
  Basis Set: 6-31G*
  Basis Set:
  Basis Set: 6-31G*
  Basis Set:
  @DF-RHF Final Energy:  -309.06142783941749
    Total Energy =                       -309.0614278394176608
  Basis Set: 6-31G*
  Basis Set:
  Basis Set: 6-31G*
  Basis Set:
  @DF-RHF Final Energy:  -309.06155484735461
    Total Energy =                       -309.0615548473546141
  Basis Set: 6-31G*
  Basis Set:
  Basis Set: 6-31G*
  Basis Set:
  @DF-RHF Final Energy:  -309.06179223620177
    Total Energy =                       -309.0617922362015406
  Basis Set: 6-31G*
  Basis Set:
  @DF-RHF Final Energy:  -309.06204403341383
    Total Energy =                       -309.0620440334139403
  @DF-RHF Final Energy:  -309.06209463584486
    Total Energy =                       -309.0620946358449714
  @DF-RHF Final Energy:  -309.06213354575488
    Total Energy =                       -309.0621335457551027
  @DF-RHF Final Energy:  -309.06223522092637
    Total Energy =                       -309.0622352209265387
  @DF-RHF Final Energy:  -309.06246694388796
    Total Energy =                       -309.0624669438878982
  @DF-RHF Final Energy:  -309.06268171399842
    Total Energy =                       -309.0626817139982450
  @DF-RHF Final Energy:  -309.06289701222596
    Total Energy =                       -309.0628970122257897
  @DF-RHF Final Energy:  -309.06304641542727
    Total Energy =                       -309.0630464154270953
  @DF-RHF Final Energy:  -309.06314884259973
    Total Energy =                       -309.0631488426000715
  @DF-RHF Final Energy:  -309.06316856399854
    Total Energy =                       -309.0631685639984312
  @DF-RHF Final Energy:  -309.06316985127484
    Total Energy =                       -309.0631698512746652
  @DF-RHF Final Energy:  -309.06316819924973
    Total Energy =                       -309.0631681992495032
  Basis Set: 6-31G*
  Basis Set:
  @DF-RHF Final Energy:  -309.06316168598676
    Total Energy =                       -309.0631616859870974
  Basis Set: 6-31G*
  Basis Set:
  Basis Set: 6-31G*
  Basis Set:
  @DF-RHF Final Energy:  -309.06315075565357
    Total Energy =                       -309.0631507556533961
  Basis Set: 6-31G*
  Basis Set:
  Basis Set: 6-31G*
  Basis Set:
  @DF-RHF Final Energy:  -309.06316960196216
    Total Energy =                       -309.0631696019623860
  Basis Set: 6-31G*
  Basis Set:
  Charge       = 0
  Multiplicity = 1
  Basis Set: 6-31G*
  Basis Set:

    Orbital Energies (a.u.)
    -----------------------

    Doubly Occupied:

       1A    -20.549729     2A    -11.326947     3A    -11.233086
       4A    -11.228787     5A    -11.221402     6A    -11.211989
       7A    -11.206877     8A     -1.395546     9A     -1.082699
      10A     -1.028779    11A     -0.982156    12A     -0.885452
      13A     -0.805100    14A     -0.725733    15A     -0.661794
      16A     -0.634287    17A     -0.624844    18A     -0.612990
      19A     -0.576279    20A     -0.571546    21A     -0.563391
      22A     -0.526277    23A     -0.512145    24A     -0.491104
      25A     -0.475779    26A     -0.465721    27A     -0.462148
      28A     -0.398072

  @DF-RHF Final Energy:  -309.06316970625033

   => Energetics <=

    Nuclear Repulsion Energy =            307.5772979065087043
    One-Electron Energy =               -1028.3596220433414601
    Two-Electron Energy =                 411.7191544305822504
    DFT Exchange-Correlation Energy =       0.0000000000000000
    Empirical Dispersion Energy =           0.0000000000000000
    PCM Polarization Energy =               0.0000000000000000
    EFP Energy =                            0.0000000000000000
    Total Energy =                       -309.0631697062505623
    Molecular point group: c1
  Basis Set: 6-31G*
  Basis Set:

  -Total Gradient:
     Atom            X                  Y                   Z
    ------   -----------------  -----------------  -----------------
       1        0.000018569446     0.000005017021     0.000035167141
       2        0.000121446765     0.004572148961    -0.001388983087
       3        0.000813995578    -0.006468154081     0.003297181312
       4       -0.000033197819     0.000050769044     0.000036866943
       5       -0.004634595605     0.001527216549    -0.007339229697
       6        0.000003699604    -0.000011264584     0.000021491051
       7       -0.000054496974    -0.000058283959    -0.000024140470
       8        0.000028573804     0.000085672856     0.000011551277
       9        0.003722328561     0.000353637749     0.005392674120
      10        0.000004499663    -0.000007082919    -0.000021573576
      11        0.000000317469    -0.000000848283     0.000003728920
      12       -0.000003182584    -0.000013360666    -0.000004642055
      13        0.000012372213    -0.000012196619     0.000000125280
      14       -0.000000746597     0.000001291296    -0.000000993441
      15       -0.000000974257    -0.000001230637     0.000001841269
      16        0.000002475043     0.000001644542    -0.000001805591
      17       -0.000001820283    -0.000007054741    -0.000008868147
      18       -0.000003087590    -0.000015901854    -0.000000030367
      19        0.000003823569    -0.000002019674    -0.000010360878

  **** Optimization is complete! (in 20 steps) ****
    Final optimized geometry and variables:
    Molecular point group: c1

    Geometry (in Angstrom), charge = 0, multiplicity = 1:

    O           -1.463442167905    -0.908651438712    -0.383354768246
    C           -1.312682817497    -0.159945328550     0.533533106102
    C            0.030439832148     0.025075051135     1.219530295272
    C           -2.471070529273     0.631495688513     1.102393605134
    C            1.276131623897    -0.243414225329     0.364060516181
    H            0.069621104582     1.037047463924     1.616466011779
    H            0.027970911938    -0.630569713435     2.088955185280
    C            1.289158788403     0.403335301853    -1.021796393323
    H            1.459792252811    -1.311889080505     0.304372235646
    H            2.121733339524     0.146524602252     0.928858792401
    C            2.638422213658     0.237725950561    -1.720691687458
    H            0.508182976958    -0.025024609940    -1.636001225824
    H            1.066065745300     1.465090747589    -0.922326803876
    H            2.883081233889    -0.812513725957    -1.851692383148
    H            3.440835445596     0.695477035782    -1.148635831213
    H            2.628080977126     0.698347364051    -2.703572533054
    H           -3.398800211319     0.291327575191     0.663782656465
    H           -2.335537273085     1.686779701086     0.881090975607
    H           -2.514791046512     0.532411646434     2.182913443818

  Mulliken Charges: (a.u.)
   Center  Symbol    Alpha    Beta     Spin     Total
       1     O     4.26353  4.26353  0.00000 -0.52706
       2     C     2.73355  2.73355  0.00000  0.53290
       3     C     3.21146  3.21146  0.00000 -0.42292
       4     C     3.28873  3.28873  0.00000 -0.57746
       5     C     3.14578  3.14578  0.00000 -0.29155
       6     H     0.41444  0.41444  0.00000  0.17111
       7     H     0.40218  0.40218  0.00000  0.19563
       8     C     3.16097  3.16097  0.00000 -0.32195
       9     H     0.41304  0.41304  0.00000  0.17392
      10     H     0.42200  0.42200  0.00000  0.15601
      11     C     3.24065  3.24065  0.00000 -0.48131
      12     H     0.39964  0.39964  0.00000  0.20072
      13     H     0.42865  0.42865  0.00000  0.14270
      14     H     0.41983  0.41983  0.00000  0.16034
      15     H     0.42389  0.42389  0.00000  0.15222
      16     H     0.41845  0.41845  0.00000  0.16309
      17     H     0.39687  0.39687  0.00000  0.20626
      18     H     0.40648  0.40648  0.00000  0.18703
      19     H     0.40985  0.40985  0.00000  0.18030

   Total alpha = 28.00000, Total beta = 28.00000, Total charge =  0.00000
