  ==> Input File <==

--------------------------------------------------------------------------
set {
	reference rhf
	basis cc-pvtz
}

set_num_threads( 4 )
memory 2 gb

molecule MOL {
0 1

H	 0.807945	 -1.872950	 0.887224
C	 0.105183	 -1.065763	 1.101756
N	 -0.537714	 -0.645117	 0.000000
O	 -0.041597	 -0.638543	 2.202963
C	 -1.522613	 0.412524	 0.000000
H	 -0.316035	 -1.092449	 -0.854831
H	 -2.150256	 0.356137	 -0.880771
H	 -1.005621	 1.357208	 0.000000
H	 -2.150256	 0.356137	 0.880771

	symmetry c1
}
set optking {
	frozen_dihedral = ("
		6 3 5 7
	")
}

ee = optimize('scf')
oeprop('DIPOLE', 'QUADRUPOLE', 'MULLIKEN_CHARGES')
f=open( 'psi4out.xyz', 'w' )
f.write( "9  " )
f.write( str(ee) + "\n" )
f.write( MOL.save_string_xyz() )
f.close()
--------------------------------------------------------------------------

    Molecular point group: c1
  Charge       = 0
  Multiplicity = 1
  Basis Set: CC-PVTZ
  Basis Set:
  @DF-RHF Final Energy:  -208.04291431332103
    Total Energy =                       -208.0429143133211483
    Molecular point group: c1
  Basis Set: CC-PVTZ
  Basis Set:
  Basis Set: CC-PVTZ
  Basis Set:
  @DF-RHF Final Energy:  -208.04352351896512
    Total Energy =                       -208.0435235189650882
  Basis Set: CC-PVTZ
  Basis Set:
  Basis Set: CC-PVTZ
  Basis Set:
  @DF-RHF Final Energy:  -208.04363591239661
    Total Energy =                       -208.0436359123966099
  Basis Set: CC-PVTZ
  Basis Set:
  Basis Set: CC-PVTZ
  Basis Set:
  @DF-RHF Final Energy:  -208.04357279002306
    Total Energy =                       -208.0435727900230347
  Basis Set: CC-PVTZ
  Basis Set:
  Basis Set: CC-PVTZ
  Basis Set:
  @DF-RHF Final Energy:  -208.04366269058801
    Total Energy =                       -208.0436626905878938
  Basis Set: CC-PVTZ
  Basis Set:
  Basis Set: CC-PVTZ
  Basis Set:
  @DF-RHF Final Energy:  -208.04367695428641
    Total Energy =                       -208.0436769542864397
  Basis Set: CC-PVTZ
  Basis Set:
  Charge       = 0
  Multiplicity = 1
  Basis Set: CC-PVTZ
  Basis Set:

    Orbital Energies (a.u.)
    -----------------------

    Doubly Occupied:

       1A    -20.516766     2A    -15.584463     3A    -11.336239
       4A    -11.260322     5A     -1.394041     6A     -1.239430
       7A     -0.969776     8A     -0.809061     9A     -0.749039
      10A     -0.645966    11A     -0.629939    12A     -0.596149
      13A     -0.558992    14A     -0.537609    15A     -0.428450
      16A     -0.396778

  @DF-RHF Final Energy:  -208.04368040306275

   => Energetics <=

    Nuclear Repulsion Energy =            122.9082677637752141
    One-Electron Energy =                -526.5978547002309824
    Two-Electron Energy =                 195.6459065333931449
    DFT Exchange-Correlation Energy =       0.0000000000000000
    Empirical Dispersion Energy =           0.0000000000000000
    PCM Polarization Energy =               0.0000000000000000
    EFP Energy =                            0.0000000000000000
    Total Energy =                       -208.0436804030626377
    Molecular point group: c1
  Basis Set: CC-PVTZ
  Basis Set:

  -Total Gradient:
     Atom            X                  Y                   Z
    ------   -----------------  -----------------  -----------------
       1       -0.000011207509     0.000012716129     0.000020602927
       2       -0.000030773258    -0.000009294633    -0.000164250997
       3        0.000095245094    -0.000056011567    -0.000015249842
       4       -0.000003269929     0.000041358331     0.000118207373
       5       -0.000072329802    -0.000018487453     0.000045274426
       6       -0.000024362493    -0.000002833270     0.000005533973
       7        0.000029022278     0.000017475081    -0.000009186501
       8        0.000004659015     0.000007738251    -0.000001672960
       9        0.000013016604     0.000007339132     0.000000741598

  **** Optimization is complete! (in 7 steps) ****
    Final optimized geometry and variables:
    Molecular point group: c1

    Geometry (in Angstrom), charge = 0, multiplicity = 1:

    H            1.310083673893    -1.413692361311     0.086600298989
    C            0.616447929920    -0.593025444549     0.278897475999
    N           -0.065772483175    -0.221003851680    -0.815297352301
    O            0.494834653183    -0.107634664613     1.358994647647
    C           -1.006968750932     0.876706821950    -0.803234175253
    H            0.166463608000    -0.650341407801    -1.675790614461
    H           -1.590077613585     0.846853204202    -1.712407773762
    H           -0.505357164446     1.834527524117    -0.738386438849
    H           -1.670767110089     0.783852641166     0.042967508125

  Mulliken Charges: (a.u.)
   Center  Symbol    Alpha    Beta     Spin     Total
       1     H     0.46419  0.46419  0.00000  0.07162
       2     C     2.87987  2.87987  0.00000  0.24027
       3     N     3.60580  3.60580  0.00000 -0.21161
       4     O     4.21418  4.21418  0.00000 -0.42835
       5     C     3.07597  3.07597  0.00000 -0.15194
       6     H     0.41028  0.41028  0.00000  0.17944
       7     H     0.45428  0.45428  0.00000  0.09145
       8     H     0.45319  0.45319  0.00000  0.09362
       9     H     0.44225  0.44225  0.00000  0.11551

   Total alpha = 16.00000, Total beta = 16.00000, Total charge = -0.00000
