  ==> Input File <==

--------------------------------------------------------------------------
set {
	reference rhf
	basis 6-31G*
}

set_num_threads( 4 )
memory 2 gb

molecule MOL {
0 1

O	 0.625848	 1.349995	 -0.000749
C	 0.486307	 0.169203	 0.000779
C	 1.608116	 -0.841643	 0.000302
O	 -0.698257	 -0.426125	 0.001050
C	 2.990107	 -0.200498	 -0.000684
H	 1.468623	 -1.481519	 -0.865924
H	 1.469683	 -1.481289	 0.866878
H	 3.129736	 0.423364	 -0.875135
H	 3.757882	 -0.966877	 -0.001197
H	 3.130964	 0.423383	 0.873533
C	 -0.753317	 -1.781736	 -0.431023
C	 -2.196700	 -2.229342	 -0.338263
H	 -0.108335	 -2.378984	 0.198960
H	 -0.379547	 -1.844450	 -1.443917
H	 -2.557681	 -2.155411	 0.681240
H	 -2.284597	 -3.262100	 -0.659718
H	 -2.830467	 -1.618044	 -0.970649

	symmetry c1
}
set optking {
	frozen_dihedral = ("
		11 4 2 3
	")
}

ee = optimize('scf')
oeprop('DIPOLE', 'QUADRUPOLE', 'MULLIKEN_CHARGES')
f=open( 'psi4out.xyz', 'w' )
f.write( "17  " )
f.write( str(ee) + "\n" )
f.write( MOL.save_string_xyz() )
f.close()
--------------------------------------------------------------------------

    Molecular point group: c1
  Charge       = 0
  Multiplicity = 1
  Basis Set: 6-31G*
  Basis Set:
  @DF-RHF Final Energy:  -344.88601369707300
    Total Energy =                       -344.8860136970730537
    Molecular point group: c1
  Basis Set: 6-31G*
  Basis Set:
  Basis Set: 6-31G*
  Basis Set:
  @DF-RHF Final Energy:  -344.88533126668705
    Total Energy =                       -344.8853312666871034
  Basis Set: 6-31G*
  Basis Set:
  Basis Set: 6-31G*
  Basis Set:
  @DF-RHF Final Energy:  -344.89401485926521
    Total Energy =                       -344.8940148592651553
  Basis Set: 6-31G*
  Basis Set:
  Basis Set: 6-31G*
  Basis Set:
  @DF-RHF Final Energy:  -344.89563923400937
    Total Energy =                       -344.8956392340095931
  Basis Set: 6-31G*
  Basis Set:
  Basis Set: 6-31G*
  Basis Set:
  @DF-RHF Final Energy:  -344.89582375095677
    Total Energy =                       -344.8958237509571632
  Basis Set: 6-31G*
  Basis Set:
  Basis Set: 6-31G*
  Basis Set:
  @DF-RHF Final Energy:  -344.89661495958387
    Total Energy =                       -344.8966149595838715
  Basis Set: 6-31G*
  Basis Set:
  Basis Set: 6-31G*
  Basis Set:
  @DF-RHF Final Energy:  -344.89667914195041
    Total Energy =                       -344.8966791419502442
  Basis Set: 6-31G*
  Basis Set:
  Charge       = 0
  Multiplicity = 1
  Basis Set: 6-31G*
  Basis Set:

    Orbital Energies (a.u.)
    -----------------------

    Doubly Occupied:

       1A    -20.598090     2A    -20.539554     3A    -11.372755
       4A    -11.300044     5A    -11.247118     6A    -11.227598
       7A    -11.219748     8A     -1.461099     9A     -1.364120
      10A     -1.063668    11A     -1.046974    12A     -0.901209
      13A     -0.881106    14A     -0.771106    15A     -0.705181
      16A     -0.695256    17A     -0.654455    18A     -0.635120
      19A     -0.591339    20A     -0.573015    21A     -0.560566
      22A     -0.538281    23A     -0.525394    24A     -0.520629
      25A     -0.508086    26A     -0.496403    27A     -0.444370
      28A     -0.430443

  @DF-RHF Final Energy:  -344.89667928399945

   => Energetics <=

    Nuclear Repulsion Energy =            315.2738706006894063
    One-Electron Energy =               -1094.5956461968808071
    Two-Electron Energy =                 434.4250963121918403
    DFT Exchange-Correlation Energy =       0.0000000000000000
    Empirical Dispersion Energy =           0.0000000000000000
    PCM Polarization Energy =               0.0000000000000000
    EFP Energy =                            0.0000000000000000
    Total Energy =                       -344.8966792839995605
    Molecular point group: c1
  Basis Set: 6-31G*
  Basis Set:

  -Total Gradient:
     Atom            X                  Y                   Z
    ------   -----------------  -----------------  -----------------
       1        0.000119650654    -0.000016373474    -0.000085847094
       2       -0.000151640481     0.000294472349    -0.002412619139
       3       -0.000053556339    -0.000001933988     0.001138768380
       4        0.000386828280    -0.000826071676     0.002903725149
       5       -0.000016366496     0.000032675115     0.000005074613
       6        0.000056893927    -0.000000731161     0.000022098816
       7       -0.000115407605    -0.000001097422     0.000015858930
       8        0.000012700014     0.000013360815    -0.000008506524
       9       -0.000017563895    -0.000006547152    -0.000002062622
      10       -0.000009497716     0.000000302506     0.000003049399
      11       -0.000260394839     0.000743590126    -0.001775369253
      12        0.000002828040    -0.000053825691     0.000037366693
      13        0.000160936157     0.000050982819     0.000127566293
      14       -0.000140103937    -0.000215568356     0.000010632854
      15       -0.000002703425     0.000001362915    -0.000005503510
      16       -0.000009745766    -0.000019203040     0.000021544207
      17        0.000037143432     0.000004605311     0.000004222808

  **** Optimization is complete! (in 8 steps) ****
    Final optimized geometry and variables:
    Molecular point group: c1

    Geometry (in Angstrom), charge = 0, multiplicity = 1:

    O            0.310266431162     1.833225400614     0.138526371644
    C            0.248915652617     0.651932062142     0.085198823249
    C            1.475002684863    -0.240880298530     0.086639618069
    O           -0.949069135627     0.060924175587     0.082846874924
    C            2.772675368423     0.556065820952     0.153703917944
    H            1.462509405688    -0.869017552803    -0.799306944296
    H            1.394886008033    -0.915456020734     0.934933561631
    H            2.865224600573     1.219006381342    -0.697249316987
    H            3.622413368199    -0.118306799521     0.159199907486
    H            2.809023183357     1.163588266920     1.048819655958
    C           -1.152599421374    -1.279959901212    -0.323236036214
    C           -2.637744768482    -1.558877392185    -0.216985733362
    H           -0.592846987984    -1.956286610853     0.312026324756
    H           -0.812574986559    -1.411518267429    -1.344368384529
    H           -2.975619891741    -1.424513718064     0.803696945225
    H           -2.847933212225    -2.579232867596    -0.521086595002
    H           -3.196010995280    -0.883545219075    -0.853868263342

  Mulliken Charges: (a.u.)
   Center  Symbol    Alpha    Beta     Spin     Total
       1     O     4.26698  4.26698  0.00000 -0.53395
       2     C     2.60053  2.60053  0.00000  0.79893
       3     C     3.23012  3.23012  0.00000 -0.46024
       4     O     4.30851  4.30851  0.00000 -0.61703
       5     C     3.23445  3.23445  0.00000 -0.46889
       6     H     0.40507  0.40507  0.00000  0.18987
       7     H     0.40217  0.40217  0.00000  0.19566
       8     H     0.40789  0.40789  0.00000  0.18422
       9     H     0.41933  0.41933  0.00000  0.16133
      10     H     0.40678  0.40678  0.00000  0.18644
      11     C     3.00417  3.00417  0.00000 -0.00835
      12     C     3.24493  3.24493  0.00000 -0.48985
      13     H     0.41927  0.41927  0.00000  0.16147
      14     H     0.41770  0.41770  0.00000  0.16460
      15     H     0.40799  0.40799  0.00000  0.18402
      16     H     0.41789  0.41789  0.00000  0.16423
      17     H     0.40623  0.40623  0.00000  0.18754

   Total alpha = 28.00000, Total beta = 28.00000, Total charge = -0.00000
