  ==> Input File <==

--------------------------------------------------------------------------
set {
	reference rhf
	basis 6-31G*
}

set_num_threads( 4 )
memory 2 gb

molecule MOL {
0 1

O	 -0.081361	 -0.994599	 -2.864174
C	 -0.671035	 -0.208805	 -2.186496
C	 -0.889235	 -0.467034	 -0.705952
C	 -1.199443	 1.089767	 -2.753834
C	 0.379448	 -0.143569	 0.099626
H	 -1.134954	 -1.516795	 -0.587935
H	 -1.724571	 0.119782	 -0.334620
C	 1.631333	 -0.777471	 -0.511575
H	 0.482768	 0.934507	 0.149241
H	 0.263088	 -0.495696	 1.123449
C	 2.915987	 -0.544314	 0.291766
H	 1.766672	 -0.399098	 -1.523130
H	 1.471257	 -1.849544	 -0.605828
C	 3.373361	 0.914346	 0.347591
H	 3.708709	 -1.142521	 -0.150311
H	 2.780642	 -0.921148	 1.303579
H	 3.506512	 1.320010	 -0.651625
H	 4.322697	 0.999599	 0.867103
H	 2.660624	 1.545032	 0.868198
H	 -2.285975	 1.084481	 -2.727697
H	 -0.865552	 1.210745	 -3.774944
H	 -0.869019	 1.933591	 -2.155013

	symmetry c1
}
set optking {
	frozen_dihedral = ("
		6 3 5 8
	")
}

ee = optimize('scf')
oeprop('DIPOLE', 'QUADRUPOLE', 'MULLIKEN_CHARGES')
f=open( 'psi4out.xyz', 'w' )
f.write( "22  " )
f.write( str(ee) + "\n" )
f.write( MOL.save_string_xyz() )
f.close()
--------------------------------------------------------------------------

    Molecular point group: c1
  Charge       = 0
  Multiplicity = 1
  Basis Set: 6-31G*
  Basis Set:
  @DF-RHF Final Energy:  -348.09307224671926
    Total Energy =                       -348.0930722467193732
    Molecular point group: c1
  Basis Set: 6-31G*
  Basis Set:
  Basis Set: 6-31G*
  Basis Set:
  @DF-RHF Final Energy:  -348.09544317833758
    Total Energy =                       -348.0954431783377458
  Basis Set: 6-31G*
  Basis Set:
  Basis Set: 6-31G*
  Basis Set:
  @DF-RHF Final Energy:  -348.09543616298328
    Total Energy =                       -348.0954361629831624
  Basis Set: 6-31G*
  Basis Set:
  Basis Set: 6-31G*
  Basis Set:
  @DF-RHF Final Energy:  -348.09593614723161
    Total Energy =                       -348.0959361472313844
  Basis Set: 6-31G*
  Basis Set:
  @DF-RHF Final Energy:  -348.09652297436833
    Total Energy =                       -348.0965229743682130
  @DF-RHF Final Energy:  -348.09650774944930
    Total Energy =                       -348.0965077494491879
  @DF-RHF Final Energy:  -348.09675556354267
    Total Energy =                       -348.0967555635428994
  @DF-RHF Final Energy:  -348.09678335534858
    Total Energy =                       -348.0967833553486344
  @DF-RHF Final Energy:  -348.09679409412450
    Total Energy =                       -348.0967940941246184
  Basis Set: 6-31G*
  Basis Set:
  @DF-RHF Final Energy:  -348.09679683264761
    Total Energy =                       -348.0967968326478967
  Basis Set: 6-31G*
  Basis Set:
  Basis Set: 6-31G*
  Basis Set:
  @DF-RHF Final Energy:  -348.09679876751085
    Total Energy =                       -348.0967987675105064
  Basis Set: 6-31G*
  Basis Set:
  Basis Set: 6-31G*
  Basis Set:
  @DF-RHF Final Energy:  -348.09680059889939
    Total Energy =                       -348.0968005988991649
  Basis Set: 6-31G*
  Basis Set:
  Charge       = 0
  Multiplicity = 1
  Basis Set: 6-31G*
  Basis Set:

    Orbital Energies (a.u.)
    -----------------------

    Doubly Occupied:

       1A    -20.548236     2A    -11.324187     3A    -11.232087
       4A    -11.229551     5A    -11.227598     6A    -11.220767
       7A    -11.220124     8A    -11.213546     9A     -1.393269
      10A     -1.096591    11A     -1.044101    12A     -0.996787
      13A     -0.938996    14A     -0.861766    15A     -0.791097
      16A     -0.728346    17A     -0.657965    18A     -0.644448
      19A     -0.627621    20A     -0.619640    21A     -0.599203
      22A     -0.575615    23A     -0.572466    24A     -0.543002
      25A     -0.535583    26A     -0.515997    27A     -0.506729
      28A     -0.488365    29A     -0.471257    30A     -0.463113
      31A     -0.454218    32A     -0.397839

  @DF-RHF Final Energy:  -348.09680099468613

   => Energetics <=

    Nuclear Repulsion Energy =            382.1290756822093613
    One-Electron Energy =               -1228.9715344656765410
    Two-Electron Energy =                 498.7456577887815001
    DFT Exchange-Correlation Energy =       0.0000000000000000
    Empirical Dispersion Energy =           0.0000000000000000
    PCM Polarization Energy =               0.0000000000000000
    EFP Energy =                            0.0000000000000000
    Total Energy =                       -348.0968009946857364
    Molecular point group: c1
  Basis Set: 6-31G*
  Basis Set:

  -Total Gradient:
     Atom            X                  Y                   Z
    ------   -----------------  -----------------  -----------------
       1       -0.000005730909    -0.000018376945    -0.000004015361
       2       -0.000015546365     0.000044209884    -0.000005842456
       3        0.001825101654    -0.000121836507    -0.003067843702
       4        0.000008641367    -0.000022475151    -0.000007270759
       5       -0.000549696978    -0.002003408172     0.002080229526
       6       -0.001427788948     0.000582734067     0.002109364167
       7        0.000002461171     0.000001317987    -0.000004705614
       8        0.000144830085     0.001537717397    -0.001118729833
       9        0.000006041597     0.000003651343     0.000002902025
      10        0.000007707924    -0.000000385525     0.000004148756
      11        0.000003716717     0.000001253350    -0.000001409446
      12        0.000002182503    -0.000001435696     0.000005061256
      13        0.000002738650    -0.000002258826     0.000001094621
      14       -0.000000749976    -0.000000518988     0.000001520385
      15        0.000004588582    -0.000000295034     0.000002219046
      16       -0.000002103393    -0.000001695788     0.000000240815
      17        0.000000068340     0.000001991547    -0.000000511936
      18       -0.000001615479    -0.000004249952    -0.000001142090
      19        0.000002424241     0.000001598835    -0.000000498647
      20       -0.000004128693    -0.000001440621    -0.000000272901
      21        0.000002828582     0.000001638189     0.000001564408
      22       -0.000005970671     0.000002264604     0.000003897746

  **** Optimization is complete! (in 13 steps) ****
    Final optimized geometry and variables:
    Molecular point group: c1

    Geometry (in Angstrom), charge = 0, multiplicity = 1:

    O           -1.393875061167    -1.081653036375    -1.914900846980
    C           -1.473345093794    -0.177488229957    -1.140143155586
    C           -1.511887349656    -0.420399040447     0.357450490952
    C           -1.551042286209     1.259083376587    -1.614424461939
    C           -0.230946958748     0.008427272562     1.098435463517
    H           -1.701657846734    -1.474661108362     0.519490175215
    H           -2.353971161652     0.126851019903     0.776295223701
    C            1.055261043080    -0.560351458549     0.489780793798
    H           -0.178610219355     1.092686077231     1.130533010607
    H           -0.320882016749    -0.320001939089     2.130317145423
    C            2.312362018476    -0.304019532787     1.328489913632
    H            1.204928943501    -0.152042699410    -0.507469885923
    H            0.935003013085    -1.632636242497     0.357136274599
    C            2.703266934815     1.169754829830     1.454323884719
    H            3.139293790690    -0.847232202530     0.878760074264
    H            2.175280624755    -0.727965255190     2.321151373189
    H            2.833609402000     1.623937631237     0.475576105477
    H            3.639951259649     1.274805056573     1.992693130744
    H            1.955571072712     1.745433634362     1.990275325339
    H           -2.503087707610     1.694270200579    -1.323442628464
    H           -1.455976650946     1.291276882623    -2.690841159656
    H           -0.770198975710     1.862653667076    -1.162651196878

  Mulliken Charges: (a.u.)
   Center  Symbol    Alpha    Beta     Spin     Total
       1     O     4.26169  4.26169  0.00000 -0.52337
       2     C     2.73486  2.73486  0.00000  0.53028
       3     C     3.20271  3.20271  0.00000 -0.40543
       4     C     3.29011  3.29011  0.00000 -0.58021
       5     C     3.16415  3.16415  0.00000 -0.32830
       6     H     0.40022  0.40022  0.00000  0.19955
       7     H     0.41354  0.41354  0.00000  0.17292
       8     C     3.15781  3.15781  0.00000 -0.31562
       9     H     0.41870  0.41870  0.00000  0.16260
      10     H     0.41392  0.41392  0.00000  0.17216
      11     C     3.15343  3.15343  0.00000 -0.30686
      12     H     0.42012  0.42012  0.00000  0.15976
      13     H     0.41260  0.41260  0.00000  0.17479
      14     C     3.24233  3.24233  0.00000 -0.48465
      15     H     0.41779  0.41779  0.00000  0.16442
      16     H     0.42254  0.42254  0.00000  0.15492
      17     H     0.42190  0.42190  0.00000  0.15620
      18     H     0.41739  0.41739  0.00000  0.16523
      19     H     0.42124  0.42124  0.00000  0.15753
      20     H     0.40813  0.40813  0.00000  0.18374
      21     H     0.39649  0.39649  0.00000  0.20701
      22     H     0.40833  0.40833  0.00000  0.18333

   Total alpha = 32.00000, Total beta = 32.00000, Total charge = -0.00000
