  ==> Input File <==

--------------------------------------------------------------------------
set {
	reference rhf
	basis cc-pvtz
}

set_num_threads( 4 )
memory 2 gb

molecule MOL {
0 1

O	 -2.374409	 1.338660	 -0.336961
C	 -2.104891	 0.204655	 -0.107126
C	 -0.881910	 -0.448129	 -0.720509
C	 -2.949910	 -0.638219	 0.818225
C	 0.390035	 -0.063804	 0.045842
H	 -0.806461	 -0.105362	 -1.744681
H	 -0.995611	 -1.526954	 -0.729070
C	 1.643289	 -0.694524	 -0.557527
H	 0.472051	 1.015778	 0.047971
H	 0.299823	 -0.373154	 1.084333
C	 2.936208	 -0.391968	 0.201900
H	 1.747320	 -0.365121	 -1.588376
H	 1.508414	 -1.772033	 -0.594744
C	 3.363614	 1.073447	 0.174289
H	 3.731296	 -0.994763	 -0.225629
H	 2.831165	 -0.718430	 1.233269
H	 3.470724	 1.428330	 -0.845601
H	 4.318534	 1.203308	 0.670307
H	 2.648282	 1.715371	 0.673802
H	 -3.440322	 -1.417144	 0.243099
H	 -3.694377	 -0.025850	 1.303346
H	 -2.331085	 -1.129829	 1.560495

	symmetry c1
}
set optking {
	frozen_dihedral = ("
		6 3 2 1
	")
}

ee = optimize('scf')
oeprop('DIPOLE', 'QUADRUPOLE', 'MULLIKEN_CHARGES')
f=open( 'psi4out.xyz', 'w' )
f.write( "22  " )
f.write( str(ee) + "\n" )
f.write( MOL.save_string_xyz() )
f.close()
--------------------------------------------------------------------------

    Molecular point group: c1
  Charge       = 0
  Multiplicity = 1
  Basis Set: CC-PVTZ
  Basis Set:
  @DF-RHF Final Energy:  -348.22349586777307
    Total Energy =                       -348.2234958677728400
    Molecular point group: c1
  Basis Set: CC-PVTZ
  Basis Set:
  Basis Set: CC-PVTZ
  Basis Set:
  @DF-RHF Final Energy:  -348.22349748764253
    Total Energy =                       -348.2234974876421347
  Basis Set: CC-PVTZ
  Basis Set:
  Basis Set: CC-PVTZ
  Basis Set:
  @DF-RHF Final Energy:  -348.22348924954645
    Total Energy =                       -348.2234892495465601
  Basis Set: CC-PVTZ
  Basis Set:
  Basis Set: CC-PVTZ
  Basis Set:
  @DF-RHF Final Energy:  -348.22349867473571
    Total Energy =                       -348.2234986747356515
  Basis Set: CC-PVTZ
  Basis Set:
  Basis Set: CC-PVTZ
  Basis Set:
  @DF-RHF Final Energy:  -348.22349749736401
    Total Energy =                       -348.2234974973642920
  Basis Set: CC-PVTZ
  Basis Set:
  Basis Set: CC-PVTZ
  Basis Set:
  @DF-RHF Final Energy:  -348.22349898398073
    Total Energy =                       -348.2234989839812442
  Basis Set: CC-PVTZ
  Basis Set:
  Charge       = 0
  Multiplicity = 1
  Basis Set: CC-PVTZ
  Basis Set:

    Orbital Energies (a.u.)
    -----------------------

    Doubly Occupied:

       1A    -20.536709     2A    -11.319369     3A    -11.227796
       4A    -11.227023     5A    -11.226946     6A    -11.220268
       7A    -11.218734     8A    -11.209126     9A     -1.396921
      10A     -1.096941    11A     -1.045473    12A     -1.000538
      13A     -0.938639    14A     -0.858235    15A     -0.786842
      16A     -0.734199    17A     -0.664207    18A     -0.646454
      19A     -0.627425    20A     -0.622774    21A     -0.598125
      22A     -0.584045    23A     -0.564363    24A     -0.541878
      25A     -0.535700    26A     -0.519817    27A     -0.499624
      28A     -0.490075    29A     -0.471341    30A     -0.464499
      31A     -0.461770    32A     -0.398528

  @DF-RHF Final Energy:  -348.22349938915926

   => Energetics <=

    Nuclear Repulsion Energy =            373.6303639211765244
    One-Electron Energy =               -1212.2389552087061020
    Two-Electron Energy =                 490.3850918983707743
    DFT Exchange-Correlation Energy =       0.0000000000000000
    Empirical Dispersion Energy =           0.0000000000000000
    PCM Polarization Energy =               0.0000000000000000
    EFP Energy =                            0.0000000000000000
    Total Energy =                       -348.2234993891588601
    Molecular point group: c1
  Basis Set: CC-PVTZ
  Basis Set:

  -Total Gradient:
     Atom            X                  Y                   Z
    ------   -----------------  -----------------  -----------------
       1        0.000076513457     0.000050052530     0.000117328779
       2       -0.000129606849    -0.000089911803    -0.000180049969
       3        0.000137963682     0.000158994178     0.000090795428
       4        0.000011124884     0.000000284022     0.000009871657
       5       -0.000002356075    -0.000000334878    -0.000009193185
       6       -0.000078482026    -0.000113547502    -0.000034077912
       7       -0.000005245878    -0.000011576440     0.000009638720
       8       -0.000002881669    -0.000002662486     0.000006269078
       9       -0.000002236301     0.000011430827     0.000006025681
      10        0.000005946242    -0.000000341997    -0.000007373188
      11        0.000002074972    -0.000005672142    -0.000003764728
      12        0.000004620313     0.000001801314     0.000003131317
      13       -0.000000548484    -0.000002635877    -0.000003428632
      14       -0.000004024134     0.000005266686     0.000001911304
      15       -0.000004639394    -0.000003201744    -0.000002076111
      16        0.000001983486    -0.000001008777     0.000000116648
      17        0.000003778004    -0.000000268412     0.000000041962
      18       -0.000003007199     0.000000180949     0.000002110244
      19       -0.000000655844     0.000003887090    -0.000001674653
      20       -0.000002817249     0.000001230689    -0.000002129277
      21        0.000000125873    -0.000001396851     0.000000968571
      22       -0.000007629807    -0.000000569378    -0.000004441735

  **** Optimization is complete! (in 7 steps) ****
    Final optimized geometry and variables:
    Molecular point group: c1

    Geometry (in Angstrom), charge = 0, multiplicity = 1:

    O           -2.378446064036     1.278334568591    -0.286877043292
    C           -2.110253397635     0.144620259079    -0.054325466450
    C           -0.888025803091    -0.510154006807    -0.667899976286
    C           -2.953773254273    -0.694589148986     0.875053036084
    C            0.384151699895    -0.124283994557     0.096664311379
    H           -0.813961394034    -0.169131856730    -1.693030789217
    H           -1.001650801663    -1.588821573147    -0.676450155045
    C            1.637893561753    -0.752490973538    -0.508058584030
    H            0.463431459055     0.955280299232     0.099966837122
    H            0.294692073500    -0.434921285382     1.135001279235
    C            2.929976311124    -0.452649879717     0.253759869391
    H            1.742936216487    -0.418821097045    -1.537469996371
    H            1.503515086592    -1.829909456904    -0.549850301687
    C            3.357028030369     1.012966204038     0.232129180348
    H            3.725603356564    -1.053769976315    -0.175128715228
    H            2.823779583586    -0.782948550283     1.283780252490
    H            3.467366939152     1.371069280087    -0.786295209551
    H            4.310299130769     1.141512265984     0.731636629948
    H            2.639867702258     1.653091852081     0.731284970680
    H           -3.431710270894    -1.486700495551     0.307565363134
    H           -3.707284429503    -0.083772969681     1.347968475185
    H           -2.333580870716    -1.169533132664     1.627279697140

  Mulliken Charges: (a.u.)
   Center  Symbol    Alpha    Beta     Spin     Total
       1     O     4.17794  4.17794  0.00000 -0.35588
       2     C     2.85846  2.85846  0.00000  0.28308
       3     C     3.09789  3.09789  0.00000 -0.19579
       4     C     3.15502  3.15502  0.00000 -0.31004
       5     C     3.10310  3.10310  0.00000 -0.20620
       6     H     0.43929  0.43929  0.00000  0.12141
       7     H     0.44852  0.44852  0.00000  0.10296
       8     C     3.09669  3.09669  0.00000 -0.19338
       9     H     0.43813  0.43813  0.00000  0.12374
      10     H     0.45259  0.45259  0.00000  0.09483
      11     C     3.09078  3.09078  0.00000 -0.18155
      12     H     0.45106  0.45106  0.00000  0.09788
      13     H     0.44892  0.44892  0.00000  0.10216
      14     C     3.15173  3.15173  0.00000 -0.30345
      15     H     0.44770  0.44770  0.00000  0.10461
      16     H     0.45467  0.45467  0.00000  0.09066
      17     H     0.45385  0.45385  0.00000  0.09230
      18     H     0.44626  0.44626  0.00000  0.10747
      19     H     0.45225  0.45225  0.00000  0.09551
      20     H     0.44835  0.44835  0.00000  0.10331
      21     H     0.43615  0.43615  0.00000  0.12770
      22     H     0.45065  0.45065  0.00000  0.09869

   Total alpha = 32.00000, Total beta = 32.00000, Total charge = -0.00000
