  ==> Input File <==

--------------------------------------------------------------------------
set {
	reference rhf
	basis cc-pvtz
}

set_num_threads( 4 )
memory 2 gb

molecule MOL {
0 1

H	 -3.144994	 -1.202467	 -0.018751
O	 -2.321472	 -0.864941	 -0.318626
C	 -2.021813	 0.336996	 0.342658
C	 -0.669613	 0.837286	 -0.127252
H	 -2.780861	 1.084746	 0.127159
H	 -2.006390	 0.184138	 1.420053
C	 0.490865	 -0.082543	 0.241244
H	 -0.708709	 0.967192	 -1.204587
H	 -0.507562	 1.822272	 0.303070
C	 0.043670	 -1.343416	 0.975290
H	 1.197321	 0.463766	 0.855675
H	 1.023867	 -0.365646	 -0.664230
C	 1.202062	 -2.266997	 1.337106
H	 -0.486915	 -1.061169	 1.880563
H	 -0.670456	 -1.886004	 0.361033
H	 1.916085	 -1.763770	 1.980417
H	 0.852649	 -3.151042	 1.858334
H	 1.733206	 -2.594953	 0.449539

	symmetry c1
}
set optking {
	frozen_dihedral = ("
		10 7 4 8
	")
}

ee = optimize('scf')
oeprop('DIPOLE', 'QUADRUPOLE', 'MULLIKEN_CHARGES')
f=open( 'psi4out.xyz', 'w' )
f.write( "18  " )
f.write( str(ee) + "\n" )
f.write( MOL.save_string_xyz() )
f.close()
--------------------------------------------------------------------------

    Molecular point group: c1
  Charge       = 0
  Multiplicity = 1
  Basis Set: CC-PVTZ
  Basis Set:
  @DF-RHF Final Energy:  -271.26812132100997
    Total Energy =                       -271.2681213210098576
    Molecular point group: c1
  Basis Set: CC-PVTZ
  Basis Set:
  Basis Set: CC-PVTZ
  Basis Set:
  @DF-RHF Final Energy:  -271.27511203748213
    Total Energy =                       -271.2751120374820175
  Basis Set: CC-PVTZ
  Basis Set:
  Basis Set: CC-PVTZ
  Basis Set:
  @DF-RHF Final Energy:  -271.27631678503076
    Total Energy =                       -271.2763167850309287
  Basis Set: CC-PVTZ
  Basis Set:
  Basis Set: CC-PVTZ
  Basis Set:
  @DF-RHF Final Energy:  -271.27661624677245
    Total Energy =                       -271.2766162467722211
  Basis Set: CC-PVTZ
  Basis Set:
  Basis Set: CC-PVTZ
  Basis Set:
  @DF-RHF Final Energy:  -271.27667828489717
    Total Energy =                       -271.2766782848970024
  Basis Set: CC-PVTZ
  Basis Set:
  Basis Set: CC-PVTZ
  Basis Set:
  @DF-RHF Final Energy:  -271.27669992345761
    Total Energy =                       -271.2766999234574996
  Basis Set: CC-PVTZ
  Basis Set:
  Basis Set: CC-PVTZ
  Basis Set:
  @DF-RHF Final Energy:  -271.27670232203718
    Total Energy =                       -271.2767023220370106
  Basis Set: CC-PVTZ
  Basis Set:
  Charge       = 0
  Multiplicity = 1
  Basis Set: CC-PVTZ
  Basis Set:

    Orbital Energies (a.u.)
    -----------------------

    Doubly Occupied:

       1A    -20.546612     2A    -11.266237     3A    -11.211691
       4A    -11.208189     5A    -11.204103     6A    -11.200900
       7A     -1.364322     8A     -1.071245     9A     -1.007246
      10A     -0.914102    11A     -0.833690    12A     -0.766550
      13A     -0.708368    14A     -0.645207    15A     -0.626871
      16A     -0.583008    17A     -0.565075    18A     -0.553935
      19A     -0.535402    20A     -0.498316    21A     -0.490538
      22A     -0.469393    23A     -0.451050    24A     -0.445971
      25A     -0.428004

  @DF-RHF Final Energy:  -271.27670257896324

   => Energetics <=

    Nuclear Repulsion Energy =            254.8449084474222559
    One-Electron Energy =                -873.0511761988009312
    Two-Electron Energy =                 346.9295651724154936
    DFT Exchange-Correlation Energy =       0.0000000000000000
    Empirical Dispersion Energy =           0.0000000000000000
    PCM Polarization Energy =               0.0000000000000000
    EFP Energy =                            0.0000000000000000
    Total Energy =                       -271.2767025789631248
    Molecular point group: c1
  Basis Set: CC-PVTZ
  Basis Set:

  -Total Gradient:
     Atom            X                  Y                   Z
    ------   -----------------  -----------------  -----------------
       1        0.000004106005     0.000005735792    -0.000001471881
       2        0.000006466943    -0.000014807014     0.000003290949
       3       -0.000013900871    -0.000001960085    -0.000002624850
       4        0.000633752927     0.000696125132    -0.000207343369
       5        0.000004282334     0.000003769348     0.000000021505
       6       -0.000002633794    -0.000007166063     0.000000230665
       7       -0.000031446796     0.000306944635     0.000821281798
       8       -0.000545990003    -0.000664827340    -0.000057894139
       9        0.000014414647    -0.000015601954     0.000004672955
      10       -0.000086328084    -0.000319393085    -0.000561846868
      11        0.000002531248    -0.000002468446    -0.000001774554
      12       -0.000006580149     0.000004942779     0.000000167633
      13        0.000000889565     0.000011216729     0.000002212381
      14        0.000002621336     0.000004624963     0.000002462543
      15       -0.000000058091     0.000006177797    -0.000005234821
      16        0.000011948767    -0.000006497863    -0.000000150629
      17       -0.000001789390    -0.000003131658     0.000004123847
      18        0.000007713405    -0.000003683666    -0.000000123166

  **** Optimization is complete! (in 8 steps) ****
    Final optimized geometry and variables:
    Molecular point group: c1

    Geometry (in Angstrom), charge = 0, multiplicity = 1:

    H           -2.792979536917    -0.366769143535    -0.584272343531
    O           -1.927199131692    -0.115419415388    -0.848214631176
    C           -1.491852800860     0.984599780306    -0.089884935256
    C           -0.081665060821     1.361951066536    -0.509863670154
    H           -2.141794907414     1.837335540334    -0.269220184112
    H           -1.538321564760     0.759861946235     0.971596028441
    C            1.082070016876     0.417777923310    -0.107313068275
    H           -0.103246723946     1.468965967564    -1.588082683058
    H            0.112701569053     2.351143011341    -0.108821109549
    C            0.735859291361    -0.863546061384     0.652700813110
    H            1.791105992601     0.981139357688     0.491742525302
    H            1.620400985892     0.135917988728    -1.005936107203
    C            1.978458429274    -1.694014704833     0.959507630709
    H            0.240222941957    -0.619106242350     1.587558428604
    H            0.036195079664    -1.454442732413     0.077176532167
    H            2.688471542327    -1.135849149997     1.561405344143
    H            1.721507731895    -2.595725904643     1.503893048707
    H            2.484454845907    -1.992631959057     0.047314725451

  Mulliken Charges: (a.u.)
   Center  Symbol    Alpha    Beta     Spin     Total
       1     H     0.39494  0.39494  0.00000  0.21011
       2     O     4.20171  4.20171  0.00000 -0.40342
       3     C     2.98281  2.98281  0.00000  0.03438
       4     C     3.09661  3.09661  0.00000 -0.19322
       5     H     0.45878  0.45878  0.00000  0.08243
       6     H     0.46701  0.46701  0.00000  0.06598
       7     C     3.09029  3.09029  0.00000 -0.18057
       8     H     0.44984  0.44984  0.00000  0.10032
       9     H     0.45068  0.45068  0.00000  0.09865
      10     C     3.08684  3.08684  0.00000 -0.17369
      11     H     0.45405  0.45405  0.00000  0.09190
      12     H     0.45243  0.45243  0.00000  0.09514
      13     C     3.15144  3.15144  0.00000 -0.30289
      14     H     0.45834  0.45834  0.00000  0.08332
      15     H     0.44227  0.44227  0.00000  0.11547
      16     H     0.45749  0.45749  0.00000  0.08502
      17     H     0.44937  0.44937  0.00000  0.10126
      18     H     0.45510  0.45510  0.00000  0.08980

   Total alpha = 25.00000, Total beta = 25.00000, Total charge = -0.00000
