  ==> Input File <==

--------------------------------------------------------------------------
set {
	reference rhf
	basis 6-31G*
}

set_num_threads( 4 )
memory 2 gb

molecule MOL {
0 1

H	 -2.545333	 -0.772121	 -0.226909
O	 -2.322464	 -0.208186	 0.500206
C	 -1.170622	 0.529278	 0.189733
C	 0.074309	 -0.337224	 0.260367
H	 -1.240970	 0.988720	 -0.792267
H	 -1.099637	 1.323100	 0.919978
O	 1.171513	 0.459272	 -0.058250
H	 -0.009842	 -1.171560	 -0.438763
H	 0.170427	 -0.757850	 1.259576
C	 2.397842	 -0.198080	 -0.002151
H	 2.508049	 -0.905315	 -0.822092
H	 3.173794	 0.550865	 -0.078850
H	 2.517602	 -0.735921	 0.936026

	symmetry c1
}
set optking {
	frozen_dihedral = ("
		4 7 10 13
	")
}

ee = optimize('scf')
oeprop('DIPOLE', 'QUADRUPOLE', 'MULLIKEN_CHARGES')
f=open( 'psi4out.xyz', 'w' )
f.write( "13  " )
f.write( str(ee) + "\n" )
f.write( MOL.save_string_xyz() )
f.close()
--------------------------------------------------------------------------

    Molecular point group: c1
  Charge       = 0
  Multiplicity = 1
  Basis Set: 6-31G*
  Basis Set:
  @DF-RHF Final Energy:  -267.95034390135493
    Total Energy =                       -267.9503439013549269
    Molecular point group: c1
  Basis Set: 6-31G*
  Basis Set:
  Basis Set: 6-31G*
  Basis Set:
  @DF-RHF Final Energy:  -267.95035568913994
    Total Energy =                       -267.9503556891399967
  Basis Set: 6-31G*
  Basis Set:
  Charge       = 0
  Multiplicity = 1
  Basis Set: 6-31G*
  Basis Set:

    Orbital Energies (a.u.)
    -----------------------

    Doubly Occupied:

       1A    -20.562215     2A    -20.560170     3A    -11.270991
       4A    -11.270331     5A    -11.268990     6A     -1.388544
       7A     -1.365164     8A     -1.018578     9A     -0.913410
      10A     -0.841966    11A     -0.709620    12A     -0.673772
      13A     -0.660451    14A     -0.637668    15A     -0.595361
      16A     -0.570269    17A     -0.545031    18A     -0.489943
      19A     -0.481834    20A     -0.438459    21A     -0.421630

  @DF-RHF Final Energy:  -267.95035876037036

   => Energetics <=

    Nuclear Repulsion Energy =            190.2159845487582004
    One-Electron Energy =                -742.9638881578018754
    Two-Electron Energy =                 284.7975448486732262
    DFT Exchange-Correlation Energy =       0.0000000000000000
    Empirical Dispersion Energy =           0.0000000000000000
    PCM Polarization Energy =               0.0000000000000000
    EFP Energy =                            0.0000000000000000
    Total Energy =                       -267.9503587603704204
    Molecular point group: c1
  Basis Set: 6-31G*
  Basis Set:

  -Total Gradient:
     Atom            X                  Y                   Z
    ------   -----------------  -----------------  -----------------
       1       -0.000006162189    -0.000008281353    -0.000001504826
       2        0.000034094001     0.000002448610    -0.000022046190
       3        0.000014022278     0.000019421263    -0.000000758444
       4        0.000125153428     0.000298809908     0.001258255986
       5       -0.000021540054     0.000007406407    -0.000004518691
       6        0.000012755171    -0.000004511656    -0.000002251491
       7       -0.000385716395    -0.000793949348    -0.001917725717
       8       -0.000001776671     0.000002428321    -0.000009489984
       9        0.000001671612     0.000000785249    -0.000001736004
      10        0.000858005803     0.001730121272     0.001356172801
      11        0.000002896542     0.000009280582     0.000032269250
      12        0.000005842606     0.000027442936    -0.000012388986
      13       -0.000639246125    -0.001291402191    -0.000674277703

  **** Optimization is complete! (in 3 steps) ****
    Final optimized geometry and variables:
    Molecular point group: c1

    Geometry (in Angstrom), charge = 0, multiplicity = 1:

    H           -2.555673003009    -0.804194956367    -0.402923632900
    O           -2.332600893847    -0.240813820702     0.324560618976
    C           -1.180278135330     0.496400679411     0.014870204125
    C            0.064409220673    -0.370415864560     0.086091510142
    H           -1.250303503575     0.955825037901    -0.967081104091
    H           -1.108962725447     1.290156211969     0.745144313419
    O            1.162257478130     0.427195846509    -0.228478039183
    H           -0.019798704607    -1.204084262340    -0.614029598266
    H            0.159735513685    -0.791469157433     1.084881128094
    C            2.390429327778    -0.228044769086    -0.174817725113
    H            2.493871158407    -0.938558868416    -0.993007613957
    H            3.166933856743     0.519414602133    -0.258970803367
    H            2.512424226474    -0.769896220565     0.760477912763

  Mulliken Charges: (a.u.)
   Center  Symbol    Alpha    Beta     Spin     Total
       1     H     0.28125  0.28125  0.00000  0.43750
       2     O     4.37090  4.37090  0.00000 -0.74179
       3     C     3.00467  3.00467  0.00000 -0.00935
       4     C     2.99661  2.99661  0.00000  0.00678
       5     H     0.42228  0.42228  0.00000  0.15545
       6     H     0.40841  0.40841  0.00000  0.18318
       7     O     4.30788  4.30788  0.00000 -0.61576
       8     H     0.43777  0.43777  0.00000  0.12446
       9     H     0.42293  0.42293  0.00000  0.15413
      10     C     3.07960  3.07960  0.00000 -0.15920
      11     H     0.42845  0.42845  0.00000  0.14310
      12     H     0.41078  0.41078  0.00000  0.17844
      13     H     0.42846  0.42846  0.00000  0.14308

   Total alpha = 21.00000, Total beta = 21.00000, Total charge = -0.00000
