                              Psi4 1.0.54 Driver

  ==> Input File <==

--------------------------------------------------------------------------
set {
	reference rhf
	basis cc-pvtz
}

set_num_threads( 4 )
memory 2 gb

molecule MOL {
0 1

O	 -0.294688	 1.318815	 -0.000872
C	 -0.448732	 0.145721	 -0.000187
C	 -1.780748	 -0.548101	 0.000195
O	 0.550743	 -0.719877	 0.000412
H	 -1.859389	 -1.183260	 -0.872613
H	 -2.570236	 0.185547	 -0.001342
H	 -1.860233	 -1.180337	 0.875064
C	 0.328021	 -1.967088	 -0.627224
H	 -0.483635	 -2.494455	 -0.148552
H	 1.246339	 -2.521336	 -0.521466
H	 0.092456	 -1.830646	 -1.672171

	symmetry c1
}
set optking {
	frozen_dihedral = ("
		8 4 2 1
	")
}

ee,wfn = optimize('scf', return_wfn=True)
oeprop( wfn, 'DIPOLE', 'QUADRUPOLE', 'MULLIKEN_CHARGES')
f=open( 'psi4out.xyz', 'w' )
f.write( "11  " )
f.write( str(ee) + "\n" )
f.write( MOL.save_string_xyz() )
f.close()
--------------------------------------------------------------------------

    Molecular point group: c1
  Charge       = 0
  Multiplicity = 1
  Basis Set: CC-PVTZ
  Basis Set:
  @DF-RHF Final Energy:  -266.91615831209299
    Total Energy =                       -266.9161583120929890
    Molecular point group: c1
  Basis Set: CC-PVTZ
  Basis Set:
  Basis Set: CC-PVTZ
  Basis Set:
  @DF-RHF Final Energy:  -266.91217699374670
    Total Energy =                       -266.9121769937466411
  Basis Set: CC-PVTZ
  Basis Set:
  Basis Set: CC-PVTZ
  Basis Set:
  @DF-RHF Final Energy:  -266.92057539804199
    Total Energy =                       -266.9205753980419331
  Basis Set: CC-PVTZ
  Basis Set:
  Basis Set: CC-PVTZ
  Basis Set:
  @DF-RHF Final Energy:  -266.92338311384651
    Total Energy =                       -266.9233831138464552
  Basis Set: CC-PVTZ
  Basis Set:
  @DF-RHF Final Energy:  -266.92341913476753
    Total Energy =                       -266.9234191347674141
  @DF-RHF Final Energy:  -266.92351050848549
    Total Energy =                       -266.9235105084854922
  @DF-RHF Final Energy:  -266.92354629442946
    Total Energy =                       -266.9235462944295136
  @DF-RHF Final Energy:  -266.92355819777316
    Total Energy =                       -266.9235581977731613
  Basis Set: CC-PVTZ
  Basis Set:
  @DF-RHF Final Energy:  -266.92356626813796
    Total Energy =                       -266.9235662681380745
  Basis Set: CC-PVTZ
  Basis Set:
  Basis Set: CC-PVTZ
  Basis Set:
  @DF-RHF Final Energy:  -266.92357163019761
    Total Energy =                       -266.9235716301975572
  Basis Set: CC-PVTZ
  Basis Set:
  Basis Set: CC-PVTZ
  Basis Set:
  @DF-RHF Final Energy:  -266.92357416304094
    Total Energy =                       -266.9235741630411098
  Basis Set: CC-PVTZ
  Basis Set:
  Charge       = 0
  Multiplicity = 1
  Basis Set: CC-PVTZ
  Basis Set:

    Orbital Energies (a.u.)
    -----------------------

    Doubly Occupied:

       1A    -20.593947     2A    -20.533907     3A    -11.371023
       4A    -11.295261     5A    -11.242140     6A     -1.467400
       7A     -1.371257     8A     -1.023412     9A     -0.983091
      10A     -0.784765    11A     -0.699990    12A     -0.688098
      13A     -0.681196    14A     -0.609299    15A     -0.593945
      16A     -0.578681    17A     -0.548106    18A     -0.512172
      19A     -0.456918    20A     -0.440698

  @DF-RHF Final Energy:  -266.92357432887565

   => Energetics <=

    Nuclear Repulsion Energy =            183.2271316106788959
    One-Electron Energy =                -727.3507992341933459
    Two-Electron Energy =                 277.2000932946388048
    DFT Exchange-Correlation Energy =       0.0000000000000000
    Empirical Dispersion Energy =           0.0000000000000000
    PCM Polarization Energy =               0.0000000000000000
    EFP Energy =                            0.0000000000000000
    Total Energy =                       -266.9235743288755884
    Molecular point group: c1
  Basis Set: CC-PVTZ
  Basis Set:

  -Total Gradient:
     Atom            X                  Y                   Z
    ------   -----------------  -----------------  -----------------
       1        0.000013946617     0.000002650573    -0.002877906124
       2        0.000482432524     0.000591115613     0.002357217882
       3        0.000008709392     0.000015237100     0.000275357839
       4       -0.001410232602    -0.001682762770     0.002654395218
       5        0.000001698804    -0.000018560215     0.000010236398
       6       -0.000005537423     0.000001948831    -0.000009271409
       7        0.000004498425     0.000000023688     0.000021838979
       8        0.000909845203     0.001089677540    -0.002430105137
       9       -0.000002715083    -0.000003900298    -0.000002666627
      10       -0.000001386608     0.000002332765     0.000000814736
      11       -0.000001259248     0.000002237170     0.000000088246

  **** Optimization is complete! (in 11 steps) ****
    Final optimized geometry and variables:
    Molecular point group: c1

    Geometry (in Angstrom), charge = 0, multiplicity = 1:

    O            0.055037044260     1.661960857520     0.122809422191
    C           -0.156608166246     0.503771652937     0.120381510488
    C           -1.548449420747    -0.077296383657     0.151027635007
    O            0.865029117067    -0.354866636781     0.122559719184
    H           -1.767679045999    -0.604998030579    -0.768750690433
    H           -2.250668858104     0.730496339309     0.271518558329
    H           -1.648539210384    -0.778344729208     0.970123379616
    C            0.762810757148    -1.621630795124    -0.478665750000
    H            0.048436978806    -2.256424196634     0.029113933940
    H            1.741000473436    -2.067567902093    -0.404124955054
    H            0.494503587150    -1.537183202243    -1.524297676608

  Mulliken Charges: (a.u.)
   Center  Symbol    Alpha    Beta     Spin     Total
       1     O     4.17535  4.17535  0.00000 -0.35070
       2     C     2.81087  2.81087  0.00000  0.37826
       3     C     3.16448  3.16448  0.00000 -0.32897
       4     O     4.13330  4.13330  0.00000 -0.26661
       5     H     0.44835  0.44835  0.00000  0.10330
       6     H     0.42724  0.42724  0.00000  0.14552
       7     H     0.44384  0.44384  0.00000  0.11232
       8     C     3.04282  3.04282  0.00000 -0.08564
       9     H     0.46165  0.46165  0.00000  0.07670
      10     H     0.43417  0.43417  0.00000  0.13166
      11     H     0.45792  0.45792  0.00000  0.08415

   Total alpha = 20.00000, Total beta = 20.00000, Total charge =  0.00000

*** Psi4 exiting successfully. Buy a developer a beer!
