  ==> Input File <==

--------------------------------------------------------------------------
set {
	reference rhf
	basis 6-31G*
}

set_num_threads( 4 )
memory 2 gb

molecule MOL {
0 1

H	 1.845734	 6.259853	 -0.944553
C	 0.835253	 5.997542	 -1.242282
C	 0.563167	 4.510009	 -1.022300
H	 0.150308	 6.608572	 -0.661907
H	 0.717283	 6.269345	 -2.287751
C	 -0.852429	 4.104535	 -1.438826
H	 0.715182	 4.268957	 0.024785
H	 1.286194	 3.924759	 -1.588344
C	 -1.148263	 2.616932	 -1.247022
H	 -1.576777	 4.683096	 -0.876482
H	 -0.997688	 4.349289	 -2.488605
C	 -1.280884	 2.186553	 0.206397
H	 -2.089748	 2.364000	 -1.732204
H	 -0.392834	 2.004456	 -1.734234
C	 -1.181045	 0.701995	 0.511084
O	 -1.474849	 2.979195	 1.078465
C	 -2.285934	 -0.139295	 -0.145128
H	 -1.220103	 0.596449	 1.588604
H	 -0.209157	 0.344673	 0.175764
C	 -3.651768	 0.085446	 0.506485
H	 -2.346596	 0.110469	 -1.202272
H	 -2.034737	 -1.195320	 -0.088721
C	 -4.759797	 -0.746382	 -0.137905
H	 -3.908762	 1.140117	 0.445781
H	 -3.588286	 -0.154158	 1.565709
H	 -4.868882	 -0.505166	 -1.191300
H	 -4.548009	 -1.809175	 -0.062213
H	 -5.715422	 -0.564821	 0.343442

	symmetry c1
}
set optking {
	frozen_dihedral = ("
		12 15 17 21
	")
}

ee = optimize('scf')
oeprop('DIPOLE', 'QUADRUPOLE', 'MULLIKEN_CHARGES')
f=open( 'psi4out.xyz', 'w' )
f.write( "28  " )
f.write( str(ee) + "\n" )
f.write( MOL.save_string_xyz() )
f.close()
--------------------------------------------------------------------------

    Molecular point group: c1
  Charge       = 0
  Multiplicity = 1
  Basis Set: 6-31G*
  Basis Set:
  @DF-RHF Final Energy:  -426.16796403396961
    Total Energy =                       -426.1679640339699517
    Molecular point group: c1
  Basis Set: 6-31G*
  Basis Set:
  Basis Set: 6-31G*
  Basis Set:
  @DF-RHF Final Energy:  -426.16742724310529
    Total Energy =                       -426.1674272431047257
  Basis Set: 6-31G*
  Basis Set:
  Basis Set: 6-31G*
  Basis Set:
  @DF-RHF Final Energy:  -426.16707888272595
    Total Energy =                       -426.1670788827261731
  Basis Set: 6-31G*
  Basis Set:
  Basis Set: 6-31G*
  Basis Set:
  @DF-RHF Final Energy:  -426.16817433227811
    Total Energy =                       -426.1681743322776583
  Basis Set: 6-31G*
  Basis Set:
  @DF-RHF Final Energy:  -426.16817475595326
    Total Energy =                       -426.1681747559534870
  Basis Set: 6-31G*
  Basis Set:
  @DF-RHF Final Energy:  -426.16819809743072
    Total Energy =                       -426.1681980974308317
  Basis Set: 6-31G*
  Basis Set:
  Basis Set: 6-31G*
  Basis Set:
  @DF-RHF Final Energy:  -426.16820077382715
    Total Energy =                       -426.1682007738265838
  Basis Set: 6-31G*
  Basis Set:
  Basis Set: 6-31G*
  Basis Set:
  @DF-RHF Final Energy:  -426.16820188425368
    Total Energy =                       -426.1682018842536763
  Basis Set: 6-31G*
  Basis Set:
  Charge       = 0
  Multiplicity = 1
  Basis Set: 6-31G*
  Basis Set:

    Orbital Energies (a.u.)
    -----------------------

    Doubly Occupied:

       1A    -20.548139     2A    -11.322290     3A    -11.231816
       4A    -11.230317     5A    -11.229076     6A    -11.222961
       7A    -11.216974     8A    -11.214890     9A    -11.213102
      10A    -11.206238    11A     -1.393238    12A     -1.094651
      13A     -1.077182    14A     -1.020925    15A     -0.990877
      16A     -0.906362    17A     -0.874278    18A     -0.811812
      19A     -0.798729    20A     -0.721407    21A     -0.667086
      22A     -0.649617    23A     -0.630220    24A     -0.612192
      25A     -0.608988    26A     -0.588424    27A     -0.584602
      28A     -0.573666    29A     -0.542322    30A     -0.535593
      31A     -0.518582    32A     -0.512020    33A     -0.502065
      34A     -0.483998    35A     -0.477277    36A     -0.473021
      37A     -0.467222    38A     -0.462069    39A     -0.455548
      40A     -0.393198

  @DF-RHF Final Energy:  -426.16820195614719

   => Energetics <=

    Nuclear Repulsion Energy =            539.6338774757887222
    One-Electron Energy =               -1647.4782179357409859
    Two-Electron Energy =                 681.6761385038051912
    DFT Exchange-Correlation Energy =       0.0000000000000000
    Empirical Dispersion Energy =           0.0000000000000000
    PCM Polarization Energy =               0.0000000000000000
    EFP Energy =                            0.0000000000000000
    Total Energy =                       -426.1682019561470725
    Molecular point group: c1
  Basis Set: 6-31G*
  Basis Set:

  -Total Gradient:
     Atom            X                  Y                   Z
    ------   -----------------  -----------------  -----------------
       1        0.000001071921    -0.000003357008    -0.000007788473
       2        0.000003549182    -0.000003266705    -0.000011681794
       3       -0.000000479931     0.000004466323     0.000012106824
       4        0.000004936118    -0.000006140391     0.000004705131
       5       -0.000005296539     0.000003080794    -0.000001157202
       6       -0.000000558763     0.000002096637     0.000004544779
       7        0.000003537429     0.000014191728     0.000004990365
       8       -0.000003092217    -0.000005066727     0.000007241722
       9        0.000033423293    -0.000014290774    -0.000030805168
      10       -0.000001015889    -0.000004859856     0.000008865534
      11       -0.000009134788     0.000004188196     0.000001869569
      12        0.000971097568    -0.000214868681    -0.001386571011
      13        0.000002445244     0.000008485728     0.000015655788
      14        0.000006562841    -0.000003056463    -0.000010358283
      15       -0.001837901042     0.000700592701     0.002097571317
      16        0.000011569513     0.000000952741    -0.000009543311
      17        0.002446208314    -0.002133811585    -0.001146024936
      18        0.000006062363    -0.000002514186    -0.000003983570
      19        0.000002713135     0.000003020125    -0.000006500059
      20        0.000008922690    -0.000000066054     0.000003170440
      21       -0.001636534541     0.001637947511     0.000449751198
      22        0.000015273950     0.000007562914     0.000009135404
      23       -0.000012841872     0.000008142122    -0.000007360080
      24       -0.000008203675     0.000002735761     0.000010062873
      25        0.000000765923    -0.000004591211    -0.000006430397
      26       -0.000000747168    -0.000002591210    -0.000002618760
      27        0.000001420136     0.000003430476     0.000004598341
      28       -0.000003753196    -0.000002412907    -0.000003446244

  **** Optimization is complete! (in 9 steps) ****
    Final optimized geometry and variables:
    Molecular point group: c1

    Geometry (in Angstrom), charge = 0, multiplicity = 1:

    H            3.483146496341     3.918082040805    -0.708821963421
    C            2.453301168569     3.705696600756    -0.978611766600
    C            2.115809273535     2.232479361354    -0.753125038010
    H            1.815026447300     4.347525868538    -0.378634370433
    H            2.319656862163     3.985513557133    -2.020062547530
    C            0.671535320184     1.896667070061    -1.131454092910
    H            2.284483103647     1.982157215167     0.289440902966
    H            2.794389959682     1.614387568105    -1.338891836183
    C            0.311575016917     0.423111015179    -0.938143851901
    H           -0.008789631532     2.504850639720    -0.546110067399
    H            0.508620471395     2.153841498011    -2.175594111099
    C            0.209469602609    -0.006514087460     0.519014684244
    H           -0.658595069121     0.222566950643    -1.389927628489
    H            1.017782932573    -0.220585234924    -1.457061950437
    C            0.329651871811    -1.489544085954     0.826756227137
    O            0.035757484271     0.790779837487     1.391320178472
    C           -0.741630536567    -2.369395919429     0.161238938838
    H            0.298509561109    -1.602231712620     1.903732861831
    H            1.313367747681    -1.810749737984     0.489093020643
    C           -2.128724648246    -2.203914194447     0.789331513641
    H           -0.805698592495    -2.143123940532    -0.899789434381
    H           -0.434107014300    -3.408257020758     0.238627350405
    C           -3.188116348731    -3.077072842351     0.118388038309
    H           -2.433980295517    -1.161303843221     0.737922425880
    H           -2.072490660023    -2.449016543661     1.846931805664
    H           -3.293730455164    -2.829439207097    -0.934227016836
    H           -2.928492617263    -4.129881382011     0.184958910509
    H           -4.157982503159    -2.945523114516     0.587225081402

  Mulliken Charges: (a.u.)
   Center  Symbol    Alpha    Beta     Spin     Total
       1     H     0.41925  0.41925  0.00000  0.16149
       2     C     3.24009  3.24009  0.00000 -0.48018
       3     C     3.15657  3.15657  0.00000 -0.31313
       4     H     0.41821  0.41821  0.00000  0.16357
       5     H     0.42346  0.42346  0.00000  0.15308
       6     C     3.14906  3.14906  0.00000 -0.29812
       7     H     0.41116  0.41116  0.00000  0.17768
       8     H     0.42749  0.42749  0.00000  0.14502
       9     C     3.21199  3.21199  0.00000 -0.42397
      10     H     0.40610  0.40610  0.00000  0.18779
      11     H     0.42185  0.42185  0.00000  0.15630
      12     C     2.73124  2.73124  0.00000  0.53751
      13     H     0.40356  0.40356  0.00000  0.19288
      14     H     0.41308  0.41308  0.00000  0.17385
      15     C     3.20370  3.20370  0.00000 -0.40739
      16     O     4.26730  4.26730  0.00000 -0.53460
      17     C     3.16455  3.16455  0.00000 -0.32911
      18     H     0.39976  0.39976  0.00000  0.20048
      19     H     0.41060  0.41060  0.00000  0.17880
      20     C     3.15358  3.15358  0.00000 -0.30715
      21     H     0.41854  0.41854  0.00000  0.16293
      22     H     0.41452  0.41452  0.00000  0.17096
      23     C     3.24026  3.24026  0.00000 -0.48053
      24     H     0.41715  0.41715  0.00000  0.16570
      25     H     0.41772  0.41772  0.00000  0.16456
      26     H     0.42204  0.42204  0.00000  0.15591
      27     H     0.42097  0.42097  0.00000  0.15807
      28     H     0.41619  0.41619  0.00000  0.16762

   Total alpha = 40.00000, Total beta = 40.00000, Total charge = -0.00000
