  ==> Input File <==

--------------------------------------------------------------------------
set {
	reference rhf
	basis 6-31G*
}

set_num_threads( 4 )
memory 2 gb

molecule MOL {
0 1

H	 -3.261111	 -0.295142	 1.469456
C	 -3.306842	 -0.277400	 0.373456
C	 -2.660244	 0.921717	 -0.272021
O	 -3.838538	 -1.161155	 -0.216482
C	 -2.011052	 0.585133	 -1.621657
H	 -3.407211	 1.700630	 -0.372246
H	 -1.894087	 1.280172	 0.414396
C	 -3.021002	 0.199877	 -2.705575
H	 -1.438249	 1.446530	 -1.952074
H	 -1.292648	 -0.221822	 -1.485727
C	 -2.361015	 -0.121708	 -4.047892
H	 -3.731190	 1.013837	 -2.835763
H	 -3.604330	 -0.658640	 -2.378135
C	 -3.375060	 -0.490945	 -5.133860
H	 -1.771720	 0.735087	 -4.364697
H	 -1.659586	 -0.944624	 -3.916780
C	 -2.755333	 -0.901404	 -6.474581
H	 -4.052924	 0.346184	 -5.293266
H	 -3.988942	 -1.312904	 -4.771583
C	 -2.011338	 0.220424	 -7.200938
H	 -3.548676	 -1.268170	 -7.121139
H	 -2.080503	 -1.740392	 -6.317660
H	 -2.657833	 1.080017	 -7.357181
H	 -1.141645	 0.556903	 -6.646511
H	 -1.666370	 -0.113971	 -8.174679

	symmetry c1
}
set optking {
	frozen_dihedral = ("
		6 3 2 4
	")
}

ee = optimize('scf')
oeprop('DIPOLE', 'QUADRUPOLE', 'MULLIKEN_CHARGES')
f=open( 'psi4out.xyz', 'w' )
f.write( "25  " )
f.write( str(ee) + "\n" )
f.write( MOL.save_string_xyz() )
f.close()
--------------------------------------------------------------------------

    Molecular point group: c1
  Charge       = 0
  Multiplicity = 1
  Basis Set: 6-31G*
  Basis Set:
  @DF-RHF Final Energy:  -387.11823675487966
    Total Energy =                       -387.1182367548796037
    Molecular point group: c1
  Basis Set: 6-31G*
  Basis Set:
  Basis Set: 6-31G*
  Basis Set:
  @DF-RHF Final Energy:  -387.12031703918439
    Total Energy =                       -387.1203170391841013
  Basis Set: 6-31G*
  Basis Set:
  Basis Set: 6-31G*
  Basis Set:
  @DF-RHF Final Energy:  -387.11900222891359
    Total Energy =                       -387.1190022289133594
  Basis Set: 6-31G*
  Basis Set:
  Basis Set: 6-31G*
  Basis Set:
  @DF-RHF Final Energy:  -387.12077488825201
    Total Energy =                       -387.1207748882511623
  Basis Set: 6-31G*
  Basis Set:
  @DF-RHF Final Energy:  -387.12081325977994
    Total Energy =                       -387.1208132597797658
  @DF-RHF Final Energy:  -387.12082245372784
    Total Energy =                       -387.1208224537282376
  Basis Set: 6-31G*
  Basis Set:
  @DF-RHF Final Energy:  -387.12082989119091
    Total Energy =                       -387.1208298911902830
  Basis Set: 6-31G*
  Basis Set:
  Basis Set: 6-31G*
  Basis Set:
  @DF-RHF Final Energy:  -387.12082776273002
    Total Energy =                       -387.1208277627303005
  Basis Set: 6-31G*
  Basis Set:
  Basis Set: 6-31G*
  Basis Set:
  @DF-RHF Final Energy:  -387.12083167863102
    Total Energy =                       -387.1208316786304522
  Basis Set: 6-31G*
  Basis Set:
  Charge       = 0
  Multiplicity = 1
  Basis Set: 6-31G*
  Basis Set:

    Orbital Energies (a.u.)
    -----------------------

    Doubly Occupied:

       1A    -20.564520     2A    -11.329487     3A    -11.237396
       4A    -11.225198     5A    -11.212503     6A    -11.210798
       7A    -11.210124     8A    -11.209850     9A    -11.206229
      10A     -1.404781    11A     -1.093944    12A     -1.062857
      13A     -1.008626    14A     -0.940659    15A     -0.874498
      16A     -0.813002    17A     -0.777198    18A     -0.768572
      19A     -0.684760    20A     -0.652607    21A     -0.628607
      22A     -0.612637    23A     -0.604746    24A     -0.588041
      25A     -0.558669    26A     -0.551875    27A     -0.535972
      28A     -0.512945    29A     -0.503847    30A     -0.497443
      31A     -0.478026    32A     -0.472806    33A     -0.457278
      34A     -0.452014    35A     -0.436238    36A     -0.407317

  @DF-RHF Final Energy:  -387.12083199336280

   => Energetics <=

    Nuclear Repulsion Energy =            443.3006846855309959
    One-Electron Energy =               -1403.2708879904539572
    Two-Electron Energy =                 572.8493713115603896
    DFT Exchange-Correlation Energy =       0.0000000000000000
    Empirical Dispersion Energy =           0.0000000000000000
    PCM Polarization Energy =               0.0000000000000000
    EFP Energy =                            0.0000000000000000
    Total Energy =                       -387.1208319933625717
    Molecular point group: c1
  Basis Set: 6-31G*
  Basis Set:

  -Total Gradient:
     Atom            X                  Y                   Z
    ------   -----------------  -----------------  -----------------
       1        0.000016603613     0.000006246175     0.000001988274
       2        0.003806710723    -0.001872206611    -0.000467523183
       3       -0.000541197879     0.002082619144     0.002793664680
       4       -0.002705946258     0.001121653730    -0.000026413044
       5       -0.000021614537     0.000028179778     0.000003170306
       6       -0.000560197307    -0.001344920529    -0.002328954195
       7        0.000005672616    -0.000000895054     0.000001562989
       8       -0.000005570233    -0.000061989297     0.000026248439
       9        0.000015115239     0.000013201315     0.000013240312
      10       -0.000010743263    -0.000000095102    -0.000003064272
      11       -0.000003257458     0.000047958426    -0.000012480521
      12        0.000019419077    -0.000011542254    -0.000006613632
      13       -0.000023227650     0.000002859415     0.000009057255
      14        0.000001059493    -0.000011246235     0.000010081827
      15        0.000009887550     0.000000732174    -0.000002058591
      16       -0.000010883929     0.000002416860    -0.000007591954
      17       -0.000004719099    -0.000006712607    -0.000005106229
      18        0.000000655607    -0.000002322114    -0.000002850337
      19        0.000000626210     0.000007993906     0.000014654562
      20        0.000006379112    -0.000001236065     0.000002130936
      21        0.000003188536     0.000005784088    -0.000002152038
      22       -0.000002602797    -0.000007574608    -0.000009827781
      23       -0.000000548091    -0.000005058261    -0.000002643329
      24        0.000000134244     0.000005741840     0.000000046907
      25        0.000005056481     0.000000411884     0.000001432613

  **** Optimization is complete! (in 10 steps) ****
    Final optimized geometry and variables:
    Molecular point group: c1

    Geometry (in Angstrom), charge = 0, multiplicity = 1:

    H           -0.381500239042    -0.020950335054     4.619817343694
    C           -0.392365513285    -0.154322230950     3.532047789062
    C            0.097156487482     1.032061788658     2.733558948125
    O           -0.810060518754    -1.165330430325     3.066536773198
    C            0.733633074206     0.682382161804     1.380767549736
    H           -0.769273355452     1.673337659826     2.570979933958
    H            0.788622608758     1.595367026900     3.353548309092
    C           -0.273489972901     0.338107375403     0.280439184090
    H            1.329197514999     1.533854648116     1.061000724370
    H            1.426039201901    -0.144457609858     1.514239937553
    C            0.400881528673     0.014617568927    -1.054395208030
    H           -0.949634589920     1.181578920591     0.144119964370
    H           -0.880758390955    -0.501644431196     0.596672563994
    C           -0.605316640939    -0.308472361587    -2.162271983118
    H            1.025539841885     0.853739230307    -1.351644714011
    H            1.069910819587    -0.834169624685    -0.921045352273
    C            0.022413162466    -0.739091797362    -3.492888595440
    H           -1.244682550932     0.556742949952    -2.331861402916
    H           -1.259441278554    -1.105298458911    -1.815194196821
    C            0.832102171350     0.351536198834    -4.196687372401
    H           -0.772591899762    -1.066662098045    -4.158385478009
    H            0.655346514032    -1.608434000368    -3.326704955776
    H            0.227406743951     1.238709127547    -4.365590044472
    H            1.701428200705     0.648722810602    -3.619542615022
    H            1.186403528103     0.005751928600    -5.163015069449

  Mulliken Charges: (a.u.)
   Center  Symbol    Alpha    Beta     Spin     Total
       1     H     0.42736  0.42736  0.00000  0.14527
       2     C     2.83925  2.83925  0.00000  0.32151
       3     C     3.21146  3.21146  0.00000 -0.42291
       4     O     4.23662  4.23662  0.00000 -0.47323
       5     C     3.15267  3.15267  0.00000 -0.30534
       6     H     0.40214  0.40214  0.00000  0.19572
       7     H     0.41068  0.41068  0.00000  0.17863
       8     C     3.15742  3.15742  0.00000 -0.31483
       9     H     0.41888  0.41888  0.00000  0.16223
      10     H     0.41491  0.41491  0.00000  0.17017
      11     C     3.15513  3.15513  0.00000 -0.31026
      12     H     0.42776  0.42776  0.00000  0.14449
      13     H     0.40060  0.40060  0.00000  0.19881
      14     C     3.15270  3.15270  0.00000 -0.30541
      15     H     0.42396  0.42396  0.00000  0.15207
      16     H     0.42269  0.42269  0.00000  0.15462
      17     C     3.15235  3.15235  0.00000 -0.30470
      18     H     0.42529  0.42529  0.00000  0.14941
      19     H     0.41989  0.41989  0.00000  0.16022
      20     C     3.24099  3.24099  0.00000 -0.48197
      21     H     0.42121  0.42121  0.00000  0.15758
      22     H     0.42302  0.42302  0.00000  0.15396
      23     H     0.42287  0.42287  0.00000  0.15425
      24     H     0.42052  0.42052  0.00000  0.15897
      25     H     0.41963  0.41963  0.00000  0.16073

   Total alpha = 36.00000, Total beta = 36.00000, Total charge = -0.00000
