  ==> Input File <==

--------------------------------------------------------------------------
set {
	reference rhf
	basis 6-31G*
}

set_num_threads( 4 )
memory 2 gb

molecule MOL {
0 1

H	 -2.798360	 -0.862255	 -0.071053
N	 -1.863561	 -0.715187	 0.256814
C	 -1.344686	 0.554728	 -0.219830
H	 -1.300452	 -1.461917	 -0.101532
C	 0.081427	 0.741154	 0.254071
H	 -1.362155	 0.656231	 -1.305829
H	 -1.952773	 1.354456	 0.191809
O	 0.874168	 -0.245412	 -0.342030
H	 0.444037	 1.730782	 -0.023037
H	 0.121165	 0.653424	 1.337565
C	 1.243638	 0.030705	 -1.655355
H	 1.846877	 -0.795219	 -2.006993
H	 0.373033	 0.129814	 -2.301271
H	 1.827309	 0.946655	 -1.719956

	symmetry c1
}
set optking {
	frozen_dihedral = ("
		11 8 5 3
	")
}

ee = optimize('scf')
oeprop('DIPOLE', 'QUADRUPOLE', 'MULLIKEN_CHARGES')
f=open( 'psi4out.xyz', 'w' )
f.write( "14  " )
f.write( str(ee) + "\n" )
f.write( MOL.save_string_xyz() )
f.close()
--------------------------------------------------------------------------

    Molecular point group: c1
  Charge       = 0
  Multiplicity = 1
  Basis Set: 6-31G*
  Basis Set:
  @DF-RHF Final Energy:  -248.11950664002478
    Total Energy =                       -248.1195066400248379
    Molecular point group: c1
  Basis Set: 6-31G*
  Basis Set:
  Basis Set: 6-31G*
  Basis Set:
  @DF-RHF Final Energy:  -248.12111306095508
    Total Energy =                       -248.1211130609552242
  Basis Set: 6-31G*
  Basis Set:
  Basis Set: 6-31G*
  Basis Set:
  @DF-RHF Final Energy:  -248.12184416816288
    Total Energy =                       -248.1218441681628519
  Basis Set: 6-31G*
  Basis Set:
  Basis Set: 6-31G*
  Basis Set:
  @DF-RHF Final Energy:  -248.12186856092450
    Total Energy =                       -248.1218685609246108
  Basis Set: 6-31G*
  Basis Set:
  Basis Set: 6-31G*
  Basis Set:
  @DF-RHF Final Energy:  -248.12187042554140
    Total Energy =                       -248.1218704255413741
  Basis Set: 6-31G*
  Basis Set:
  Charge       = 0
  Multiplicity = 1
  Basis Set: 6-31G*
  Basis Set:

    Orbital Energies (a.u.)
    -----------------------

    Doubly Occupied:

       1A    -20.557925     2A    -15.530858     3A    -11.268112
       4A    -11.266829     5A    -11.243018     6A     -1.379713
       7A     -1.175596     8A     -0.997312     9A     -0.919486
      10A     -0.810363    11A     -0.686709    12A     -0.674576
      13A     -0.643320    14A     -0.619212    15A     -0.600287
      16A     -0.544840    17A     -0.530543    18A     -0.512942
      19A     -0.466088    20A     -0.418416    21A     -0.379437

  @DF-RHF Final Energy:  -248.12187054124232

   => Energetics <=

    Nuclear Repulsion Energy =            196.4109289756354713
    One-Electron Energy =                -726.6144351618416977
    Two-Electron Energy =                 282.0816356449638533
    DFT Exchange-Correlation Energy =       0.0000000000000000
    Empirical Dispersion Energy =           0.0000000000000000
    PCM Polarization Energy =               0.0000000000000000
    EFP Energy =                            0.0000000000000000
    Total Energy =                       -248.1218705412424015
    Molecular point group: c1
  Basis Set: 6-31G*
  Basis Set:

  -Total Gradient:
     Atom            X                  Y                   Z
    ------   -----------------  -----------------  -----------------
       1       -0.000001123586     0.000001698053     0.000004739046
       2       -0.000011505610    -0.000022429236     0.000016065044
       3        0.000069100292     0.000252437478    -0.000399993296
       4        0.000000830089    -0.000001870217     0.000010796973
       5       -0.000269454729    -0.000473487932     0.000449531341
       6       -0.000001736370     0.000022285793    -0.000015971075
       7        0.000014788537     0.000000137927    -0.000001051722
       8        0.000580803546     0.000478000094     0.000083443053
       9       -0.000001960064    -0.000003333092     0.000004737598
      10        0.000022334170    -0.000010217498    -0.000000539378
      11       -0.000395617603    -0.000240442206    -0.000150397763
      12        0.000000427982    -0.000001642555    -0.000001000066
      13       -0.000007165640    -0.000001916889     0.000003263649
      14        0.000000278986     0.000000780279    -0.000003623404

  **** Optimization is complete! (in 6 steps) ****
    Final optimized geometry and variables:
    Molecular point group: c1

    Geometry (in Angstrom), charge = 0, multiplicity = 1:

    H           -2.620667954091    -0.923740835058     0.291882485320
    N           -1.688896311254    -0.766372382991     0.622548415057
    C           -1.184468236278     0.520529452292     0.178885829996
    H           -1.111401183657    -1.501647720655     0.263625715627
    C            0.270371765574     0.671110882220     0.595849355005
    H           -1.279831666728     0.681052838166    -0.896830829119
    H           -1.757890591768     1.305319025572     0.663442936685
    O            1.104691919085    -0.295356454809     0.015256767131
    H            0.628623229417     1.670658715163     0.353705134700
    H            0.345661362987     0.529069106977     1.665360928934
    C            1.493140254231    -0.051980799366    -1.301060379278
    H            2.188677304818    -0.831849775140    -1.579741657627
    H            0.654854088189    -0.073865915831    -1.992493534619
    H            1.991254784431     0.911041316062    -1.394128963470

  Mulliken Charges: (a.u.)
   Center  Symbol    Alpha    Beta     Spin     Total
       1     H     0.33248  0.33248  0.00000  0.33503
       2     N     3.92403  3.92403  0.00000 -0.84805
       3     C     3.07280  3.07280  0.00000 -0.14559
       4     H     0.32499  0.32499  0.00000  0.35001
       5     C     2.99786  2.99786  0.00000  0.00428
       6     H     0.43329  0.43329  0.00000  0.13341
       7     H     0.41936  0.41936  0.00000  0.16128
       8     O     4.30790  4.30790  0.00000 -0.61581
       9     H     0.42995  0.42995  0.00000  0.14009
      10     H     0.40552  0.40552  0.00000  0.18895
      11     C     3.08196  3.08196  0.00000 -0.16391
      12     H     0.41126  0.41126  0.00000  0.17748
      13     H     0.42980  0.42980  0.00000  0.14039
      14     H     0.42878  0.42878  0.00000  0.14244

   Total alpha = 21.00000, Total beta = 21.00000, Total charge = -0.00000
