  ==> Input File <==

--------------------------------------------------------------------------
set {
	reference rhf
	basis 6-31G*
}

set_num_threads( 4 )
memory 2 gb

molecule MOL {
0 1

H	 -1.644252	 2.561401	 -2.164369
C	 -0.710466	 2.795994	 -1.638411
C	 -0.740047	 2.557400	 -0.150188
O	 0.227650	 3.206279	 -2.241201
C	 -1.220012	 1.144545	 0.209990
H	 0.248266	 2.756174	 0.247853
H	 -1.425394	 3.288269	 0.277346
C	 -0.252658	 0.041456	 -0.226725
H	 -1.363376	 1.093739	 1.285234
H	 -2.199001	 0.971378	 -0.234251
C	 1.180775	 0.282413	 0.250794
H	 -0.266029	 -0.034465	 -1.312038
H	 -0.597733	 -0.921000	 0.146291
C	 2.148627	 -0.814315	 -0.201312
H	 1.516199	 1.249228	 -0.115937
H	 1.192670	 0.346017	 1.338083
C	 3.580890	 -0.659131	 0.322722
H	 2.166869	 -0.852443	 -1.289387
H	 1.762857	 -1.776509	 0.128956
C	 4.324889	 0.564933	 -0.213704
H	 4.142010	 -1.551473	 0.056605
H	 3.564836	 -0.624694	 1.410140
H	 4.342616	 0.565491	 -1.300421
H	 3.866655	 1.493402	 0.110242
H	 5.353900	 0.572371	 0.132816

	symmetry c1
}
set optking {
	frozen_dihedral = ("
		3 5 8 12
	")
}

ee = optimize('scf')
oeprop('DIPOLE', 'QUADRUPOLE', 'MULLIKEN_CHARGES')
f=open( 'psi4out.xyz', 'w' )
f.write( "25  " )
f.write( str(ee) + "\n" )
f.write( MOL.save_string_xyz() )
f.close()
--------------------------------------------------------------------------

    Molecular point group: c1
  Charge       = 0
  Multiplicity = 1
  Basis Set: 6-31G*
  Basis Set:
  @DF-RHF Final Energy:  -387.11859270220293
    Total Energy =                       -387.1185927022023634
    Molecular point group: c1
  Basis Set: 6-31G*
  Basis Set:
  Basis Set: 6-31G*
  Basis Set:
  @DF-RHF Final Energy:  -387.11976169383996
    Total Energy =                       -387.1197616938402462
  Basis Set: 6-31G*
  Basis Set:
  Basis Set: 6-31G*
  Basis Set:
  @DF-RHF Final Energy:  -387.11973802744740
    Total Energy =                       -387.1197380274476245
  Basis Set: 6-31G*
  Basis Set:
  Basis Set: 6-31G*
  Basis Set:
  @DF-RHF Final Energy:  -387.12008784383988
    Total Energy =                       -387.1200878438396558
  Basis Set: 6-31G*
  Basis Set:
  @DF-RHF Final Energy:  -387.12040595603241
    Total Energy =                       -387.1204059560323003
  @DF-RHF Final Energy:  -387.12041268717883
    Total Energy =                       -387.1204126871789413
  Basis Set: 6-31G*
  Basis Set:
  @DF-RHF Final Energy:  -387.12040263863418
    Total Energy =                       -387.1204026386337773
  Basis Set: 6-31G*
  Basis Set:
  Basis Set: 6-31G*
  Basis Set:
  @DF-RHF Final Energy:  -387.12043205688263
    Total Energy =                       -387.1204320568826915
  Basis Set: 6-31G*
  Basis Set:
  Basis Set: 6-31G*
  Basis Set:
  @DF-RHF Final Energy:  -387.12043510719769
    Total Energy =                       -387.1204351071977499
  Basis Set: 6-31G*
  Basis Set:
  Charge       = 0
  Multiplicity = 1
  Basis Set: 6-31G*
  Basis Set:

    Orbital Energies (a.u.)
    -----------------------

    Doubly Occupied:

       1A    -20.563109     2A    -11.326692     3A    -11.235800
       4A    -11.234158     5A    -11.223116     6A    -11.215143
       7A    -11.214170     8A    -11.213527     9A    -11.204727
      10A     -1.402539    11A     -1.102148    12A     -1.065612
      13A     -1.008075    14A     -0.942266    15A     -0.877467
      16A     -0.820437    17A     -0.785374    18A     -0.770909
      19A     -0.667369    20A     -0.656714    21A     -0.636852
      22A     -0.616064    23A     -0.605838    24A     -0.595563
      25A     -0.566499    26A     -0.545977    27A     -0.538064
      28A     -0.519513    29A     -0.514544    30A     -0.497609
      31A     -0.479449    32A     -0.474925    33A     -0.460668
      34A     -0.451898    35A     -0.441501    36A     -0.409424

  @DF-RHF Final Energy:  -387.12043577547325

   => Energetics <=

    Nuclear Repulsion Energy =            454.5801321728656035
    One-Electron Energy =               -1425.6336520234247018
    Two-Electron Energy =                 583.9330840750859579
    DFT Exchange-Correlation Energy =       0.0000000000000000
    Empirical Dispersion Energy =           0.0000000000000000
    PCM Polarization Energy =               0.0000000000000000
    EFP Energy =                            0.0000000000000000
    Total Energy =                       -387.1204357754730836
    Molecular point group: c1
  Basis Set: 6-31G*
  Basis Set:

  -Total Gradient:
     Atom            X                  Y                   Z
    ------   -----------------  -----------------  -----------------
       1       -0.000008991587     0.000029522759     0.000004409249
       2        0.000050713565    -0.000083731491    -0.000018840484
       3        0.000587610436     0.000060487648     0.001133462971
       4       -0.000020250913     0.000035347430     0.000000813903
       5       -0.001179375974    -0.000398116142    -0.001607410339
       6        0.000011609909     0.000002069104     0.000004992509
       7       -0.000003572804     0.000014527392     0.000001993313
       8        0.001772776238     0.001577293664     0.000383866433
       9        0.000011355703    -0.000002407810     0.000001329725
      10       -0.000002871358     0.000000460473     0.000008690892
      11        0.000000838163    -0.000009473041     0.000019291950
      12       -0.001220520325    -0.001256078660     0.000075511518
      13       -0.000015310575     0.000002901181    -0.000005988108
      14       -0.000000603046    -0.000003376164    -0.000001712947
      15       -0.000014558976     0.000020285151     0.000006945637
      16        0.000023025710    -0.000000778764    -0.000005243722
      17        0.000006704324     0.000001596426     0.000007017695
      18        0.000001108240    -0.000004664029    -0.000009536424
      19       -0.000012903648     0.000011689719    -0.000004293701
      20       -0.000000598543     0.000004930002     0.000006379119
      21        0.000003541824     0.000003231669    -0.000001226433
      22        0.000004147263    -0.000003072195     0.000003216569
      23        0.000001008107    -0.000002583158     0.000000536498
      24        0.000006312885    -0.000000283707    -0.000001901538
      25       -0.000001194615     0.000000222546    -0.000002304286

  **** Optimization is complete! (in 10 steps) ****
    Final optimized geometry and variables:
    Molecular point group: c1

    Geometry (in Angstrom), charge = 0, multiplicity = 1:

    H           -2.603660475075     1.591349334852    -1.757057630120
    C           -1.712311476266     1.813815691199    -1.157759935102
    C           -1.852509766920     1.556314237223     0.319916513746
    O           -0.726968520916     2.222052614851    -1.683111958255
    C           -2.204575960311     0.090109266665     0.623383388636
    H           -0.937154962295     1.861503045053     0.809788167649
    H           -2.655927863924     2.191139601412     0.690089882772
    C           -1.175452170236    -0.944631962524     0.146959047698
    H           -2.333965828171    -0.003453238676     1.697985048519
    H           -3.170500336551    -0.144129287350     0.181383596980
    C            0.256088714858    -0.709382218150     0.635336391739
    H           -1.185053880215    -1.000642311254    -0.940237277415
    H           -1.511412845501    -1.920788055452     0.489970387335
    C            1.192571869295    -1.864258184952     0.268968072250
    H            0.634648770944     0.215571205987     0.214157197029
    H            0.251573355136    -0.581982599382     1.717597064873
    C            2.626942699173    -1.711685633706     0.788198422486
    H            1.214460114855    -1.979093348587    -0.813551943302
    H            0.778377986266    -2.789466205146     0.664636477007
    C            3.410035034078    -0.555808866244     0.162871305839
    H            3.161528526416    -2.638842056098     0.596354176556
    H            2.606770036249    -1.592569215552     1.869785962037
    H            3.438077213846    -0.644344841192    -0.919645200986
    H            2.975334767894     0.408496762826     0.403047302378
    H            4.435342088795    -0.548676721280     0.520004983065

  Mulliken Charges: (a.u.)
   Center  Symbol    Alpha    Beta     Spin     Total
       1     H     0.43156  0.43156  0.00000  0.13688
       2     C     2.83060  2.83060  0.00000  0.33880
       3     C     3.21109  3.21109  0.00000 -0.42218
       4     O     4.23896  4.23896  0.00000 -0.47793
       5     C     3.16512  3.16512  0.00000 -0.33023
       6     H     0.39803  0.39803  0.00000  0.20394
       7     H     0.40785  0.40785  0.00000  0.18430
       8     C     3.15757  3.15757  0.00000 -0.31513
       9     H     0.41287  0.41287  0.00000  0.17426
      10     H     0.41759  0.41759  0.00000  0.16482
      11     C     3.15981  3.15981  0.00000 -0.31962
      12     H     0.41964  0.41964  0.00000  0.16072
      13     H     0.41864  0.41864  0.00000  0.16271
      14     C     3.15259  3.15259  0.00000 -0.30517
      15     H     0.40921  0.40921  0.00000  0.18157
      16     H     0.42546  0.42546  0.00000  0.14909
      17     C     3.15261  3.15261  0.00000 -0.30521
      18     H     0.42212  0.42212  0.00000  0.15576
      19     H     0.42343  0.42343  0.00000  0.15315
      20     C     3.24145  3.24145  0.00000 -0.48290
      21     H     0.42114  0.42114  0.00000  0.15773
      22     H     0.42422  0.42422  0.00000  0.15156
      23     H     0.42039  0.42039  0.00000  0.15923
      24     H     0.41817  0.41817  0.00000  0.16367
      25     H     0.41990  0.41990  0.00000  0.16020

   Total alpha = 36.00000, Total beta = 36.00000, Total charge = -0.00000
