  ==> Input File <==

--------------------------------------------------------------------------
set {
	reference rhf
	basis 6-31G*
}

set_num_threads( 4 )
memory 2 gb

molecule MOL {
0 1

O	 -2.439739	 -0.935931	 -0.423848
C	 -1.921153	 0.064240	 -0.045697
C	 -2.624470	 1.379923	 0.150949
O	 -0.632575	 0.154573	 0.251549
H	 -2.168117	 2.136577	 -0.476876
H	 -3.669540	 1.273223	 -0.098610
H	 -2.519365	 1.700893	 1.180846
C	 0.160891	 -1.019931	 0.106212
C	 1.589627	 -0.672828	 0.480843
H	 0.089836	 -1.367806	 -0.916050
H	 -0.238459	 -1.792301	 0.749618
C	 2.246377	 0.346236	 -0.452210
H	 2.163194	 -1.597435	 0.473358
H	 1.604769	 -0.303424	 1.502885
C	 2.572437	 -0.240745	 -1.824850
H	 1.583827	 1.201018	 -0.572523
H	 3.154634	 0.721147	 0.008082
H	 3.037698	 0.500366	 -2.466971
H	 1.675499	 -0.595263	 -2.324946
H	 3.256571	 -1.080250	 -1.739589

	symmetry c1
}
set optking {
	frozen_dihedral = ("
		16 12 9 8
	")
}

ee = optimize('scf')
oeprop('DIPOLE', 'QUADRUPOLE', 'MULLIKEN_CHARGES')
f=open( 'psi4out.xyz', 'w' )
f.write( "20  " )
f.write( str(ee) + "\n" )
f.write( MOL.save_string_xyz() )
f.close()
--------------------------------------------------------------------------

    Molecular point group: c1
  Charge       = 0
  Multiplicity = 1
  Basis Set: 6-31G*
  Basis Set:
  @DF-RHF Final Energy:  -383.94379097149607
    Total Energy =                       -383.9437909714961279
    Molecular point group: c1
  Basis Set: 6-31G*
  Basis Set:
  Basis Set: 6-31G*
  Basis Set:
  @DF-RHF Final Energy:  -383.94394134933367
    Total Energy =                       -383.9439413493338407
  Basis Set: 6-31G*
  Basis Set:
  Basis Set: 6-31G*
  Basis Set:
  @DF-RHF Final Energy:  -383.94289039129075
    Total Energy =                       -383.9428903912908027
  Basis Set: 6-31G*
  Basis Set:
  Basis Set: 6-31G*
  Basis Set:
  @DF-RHF Final Energy:  -383.94408310825293
    Total Energy =                       -383.9440831082531531
  Basis Set: 6-31G*
  Basis Set:
  Basis Set: 6-31G*
  Basis Set:
  @DF-RHF Final Energy:  -383.94409350087142
    Total Energy =                       -383.9440935008713041
  Basis Set: 6-31G*
  Basis Set:
  Basis Set: 6-31G*
  Basis Set:
  @DF-RHF Final Energy:  -383.94409478341441
    Total Energy =                       -383.9440947834144708
  Basis Set: 6-31G*
  Basis Set:
  Charge       = 0
  Multiplicity = 1
  Basis Set: 6-31G*
  Basis Set:

    Orbital Energies (a.u.)
    -----------------------

    Doubly Occupied:

       1A    -20.601985     2A    -20.544254     3A    -11.374732
       4A    -11.282001     5A    -11.233580     6A    -11.225611
       7A    -11.220503     8A    -11.213338     9A     -1.468142
      10A     -1.362406    11A     -1.085458    12A     -1.027127
      13A     -0.979162    14A     -0.888560    15A     -0.808430
      16A     -0.769702    17A     -0.690760    18A     -0.687716
      19A     -0.665361    20A     -0.620974    21A     -0.617351
      22A     -0.578065    23A     -0.575514    24A     -0.563068
      25A     -0.536572    26A     -0.526923    27A     -0.522341
      28A     -0.480597    29A     -0.474926    30A     -0.469033
      31A     -0.448635    32A     -0.438916

  @DF-RHF Final Energy:  -383.94409523660875

   => Energetics <=

    Nuclear Repulsion Energy =            389.7888802961953161
    One-Electron Energy =               -1295.5024606445063000
    Two-Electron Energy =                 521.7694851117020107
    DFT Exchange-Correlation Energy =       0.0000000000000000
    Empirical Dispersion Energy =           0.0000000000000000
    PCM Polarization Energy =               0.0000000000000000
    EFP Energy =                            0.0000000000000000
    Total Energy =                       -383.9440952366089732
    Molecular point group: c1
  Basis Set: 6-31G*
  Basis Set:

  -Total Gradient:
     Atom            X                  Y                   Z
    ------   -----------------  -----------------  -----------------
       1        0.000004133091    -0.000000823594     0.000002564852
       2       -0.000013525237     0.000003459273     0.000015190694
       3       -0.000004231513     0.000004049697    -0.000006457834
       4        0.000002969661    -0.000019581207     0.000011780983
       5       -0.000002359097     0.000002647798    -0.000000138765
       6       -0.000000650937     0.000003089019    -0.000001010617
       7        0.000001745320    -0.000001026579    -0.000001473513
       8       -0.000299772459     0.000757335324     0.000505742023
       9        0.000326651659    -0.001181382350    -0.001039282178
      10        0.000009361343    -0.000004190001     0.000009798182
      11       -0.000009931946    -0.000001225204     0.000013470965
      12        0.000561476228     0.001018012780     0.001516219140
      13        0.000000216741    -0.000003537037     0.000001132109
      14        0.000005996325     0.000003649192     0.000001871221
      15        0.000006200655    -0.000003952966     0.000008773573
      16       -0.000577734440    -0.000572062982    -0.001037717158
      17       -0.000006375369    -0.000002224783    -0.000002310047
      18        0.000003688459     0.000001794581     0.000002448123
      19       -0.000003910759    -0.000001191091     0.000002153623
      20       -0.000003947721    -0.000002839871    -0.000002755377

  **** Optimization is complete! (in 7 steps) ****
    Final optimized geometry and variables:
    Molecular point group: c1

    Geometry (in Angstrom), charge = 0, multiplicity = 1:

    O           -2.312992627279    -0.826384926534    -0.156597760863
    C           -1.784104766664     0.178853122982     0.192881808033
    C           -2.479629309529     1.500501673418     0.377731388396
    O           -0.491245545754     0.268898973896     0.470651227158
    H           -2.030631552767     2.244439524364    -0.270249177781
    H           -3.528836751956     1.393323074467     0.146377176903
    H           -2.357159566253     1.838789519841     1.400159005875
    C            0.295462896193    -0.911765678333     0.338299727202
    C            1.729435224404    -0.560538776693     0.695651973953
    H            0.201191660417    -1.284788622843    -0.671901787541
    H           -0.095672914211    -1.667650471181     1.005973856719
    C            2.397038787119     0.455710938934    -0.238904137634
    H            2.304776889578    -1.483762077783     0.707882737115
    H            1.735496486252    -0.175926798172     1.711459196171
    C            2.754329930810    -0.108259730104    -1.615815726403
    H            1.743296534766     1.313454869357    -0.359403308004
    H            3.303191588294     0.818697924542     0.237823740692
    H            3.248701401450     0.643264701930    -2.223320534458
    H            1.875073700056    -0.437176417785    -2.160938473123
    H            3.426838679167    -0.957313563919    -1.529566515733

  Mulliken Charges: (a.u.)
   Center  Symbol    Alpha    Beta     Spin     Total
       1     O     4.28322  4.28322  0.00000 -0.56644
       2     C     2.61946  2.61946  0.00000  0.76107
       3     C     3.28169  3.28169  0.00000 -0.56337
       4     O     4.30837  4.30837  0.00000 -0.61674
       5     H     0.40088  0.40088  0.00000  0.19825
       6     H     0.39683  0.39683  0.00000  0.20633
       7     H     0.40049  0.40049  0.00000  0.19903
       8     C     3.00414  3.00414  0.00000 -0.00828
       9     C     3.16676  3.16676  0.00000 -0.33351
      10     H     0.40912  0.40912  0.00000  0.18175
      11     H     0.40849  0.40849  0.00000  0.18303
      12     C     3.15755  3.15755  0.00000 -0.31509
      13     H     0.41807  0.41807  0.00000  0.16386
      14     H     0.41273  0.41273  0.00000  0.17453
      15     C     3.24301  3.24301  0.00000 -0.48601
      16     H     0.41166  0.41166  0.00000  0.17668
      17     H     0.41873  0.41873  0.00000  0.16253
      18     H     0.41725  0.41725  0.00000  0.16550
      19     H     0.41994  0.41994  0.00000  0.16012
      20     H     0.42162  0.42162  0.00000  0.15676

   Total alpha = 32.00000, Total beta = 32.00000, Total charge =  0.00000
