  ==> Input File <==

--------------------------------------------------------------------------
set {
	reference rhf
	basis 6-31G*
}

set_num_threads( 4 )
memory 2 gb

molecule MOL {
0 1

H	 1.918430	 -1.396300	 -0.783628
O	 2.016064	 -0.864478	 0.000222
C	 1.050492	 0.053836	 0.000068
C	 -0.318135	 -0.576402	 0.000164
O	 1.285279	 1.218255	 -0.000078
C	 -1.454360	 0.441875	 -0.000474
H	 -0.374042	 -1.230163	 -0.866135
H	 -0.374274	 -1.229227	 0.867154
C	 -2.826123	 -0.230780	 0.000056
H	 -1.357605	 1.085198	 -0.868380
H	 -1.357504	 1.086451	 0.866496
H	 -2.959731	 -0.858053	 -0.876869
H	 -3.619374	 0.509403	 -0.000080
H	 -2.959371	 -0.857318	 0.877556

	symmetry c1
}
set optking {
	frozen_dihedral = ("
		1 2 3 5
	")
}

ee = optimize('scf')
oeprop('DIPOLE', 'QUADRUPOLE', 'MULLIKEN_CHARGES')
f=open( 'psi4out.xyz', 'w' )
f.write( "14  " )
f.write( str(ee) + "\n" )
f.write( MOL.save_string_xyz() )
f.close()
--------------------------------------------------------------------------

    Molecular point group: c1
  Charge       = 0
  Multiplicity = 1
  Basis Set: 6-31G*
  Basis Set:
  @DF-RHF Final Energy:  -305.85947490570288
    Total Energy =                       -305.8594749057027116
    Molecular point group: c1
  Basis Set: 6-31G*
  Basis Set:
  Basis Set: 6-31G*
  Basis Set:
  @DF-RHF Final Energy:  -305.86095815038630
    Total Energy =                       -305.8609581503864661
  Basis Set: 6-31G*
  Basis Set:
  Basis Set: 6-31G*
  Basis Set:
  @DF-RHF Final Energy:  -305.86084619749352
    Total Energy =                       -305.8608461974935153
  Basis Set: 6-31G*
  Basis Set:
  Basis Set: 6-31G*
  Basis Set:
  @DF-RHF Final Energy:  -305.86109558853741
    Total Energy =                       -305.8610955885375233
  Basis Set: 6-31G*
  Basis Set:
  Basis Set: 6-31G*
  Basis Set:
  @DF-RHF Final Energy:  -305.86110468017466
    Total Energy =                       -305.8611046801747761
  Basis Set: 6-31G*
  Basis Set:
  Basis Set: 6-31G*
  Basis Set:
  @DF-RHF Final Energy:  -305.86110578691739
    Total Energy =                       -305.8611057869173351
  Basis Set: 6-31G*
  Basis Set:
  Charge       = 0
  Multiplicity = 1
  Basis Set: 6-31G*
  Basis Set:

    Orbital Energies (a.u.)
    -----------------------

    Doubly Occupied:

       1A    -20.599203     2A    -20.559545     3A    -11.381748
       4A    -11.247903     5A    -11.229329     6A    -11.220664
       7A     -1.461997     8A     -1.369625     9A     -1.085507
      10A     -0.977246    11A     -0.851496    12A     -0.806507
      13A     -0.716197    14A     -0.672832    15A     -0.661181
      16A     -0.629563    17A     -0.581324    18A     -0.566190
      19A     -0.546657    20A     -0.506445    21A     -0.496149
      22A     -0.486595    23A     -0.481959    24A     -0.443744

  @DF-RHF Final Energy:  -305.86110591467076

   => Energetics <=

    Nuclear Repulsion Energy =            239.3258196028444331
    One-Electron Energy =                -891.2146366526360453
    Two-Electron Energy =                 346.0277111351211374
    DFT Exchange-Correlation Energy =       0.0000000000000000
    Empirical Dispersion Energy =           0.0000000000000000
    PCM Polarization Energy =               0.0000000000000000
    EFP Energy =                            0.0000000000000000
    Total Energy =                       -305.8611059146705315
    Molecular point group: c1
  Basis Set: 6-31G*
  Basis Set:

  -Total Gradient:
     Atom            X                  Y                   Z
    ------   -----------------  -----------------  -----------------
       1        0.003218052267     0.003664666012    -0.002651477860
       2       -0.003978728461    -0.004595083377     0.001155222404
       3        0.000764010648     0.000785362909     0.006369439543
       4       -0.000013982426     0.000010140523     0.000026026716
       5        0.000013452820     0.000131512494    -0.004859427281
       6       -0.000023006964    -0.000010481121    -0.000034238716
       7       -0.000001389217     0.000009316575    -0.000015323733
       8        0.000002982001     0.000005118927    -0.000007550496
       9        0.000005760136     0.000000746038     0.000014668665
      10        0.000004984690    -0.000004410847    -0.000002234992
      11        0.000000581884     0.000003176611     0.000006362107
      12       -0.000001342425     0.000005041194    -0.000006045472
      13        0.000006933972     0.000001244985     0.000005689859
      14        0.000001691071    -0.000006350925    -0.000001110744

  **** Optimization is complete! (in 7 steps) ****
    Final optimized geometry and variables:
    Molecular point group: c1

    Geometry (in Angstrom), charge = 0, multiplicity = 1:

    H            2.044555522606    -1.383262780224    -0.799040083247
    O            2.071672925126    -0.846280397739    -0.017072064648
    C            1.059092622459     0.055749366770     0.007498561923
    C           -0.320287882447    -0.563491571601     0.007111962980
    O            1.279257615887     1.213681266797     0.047166991991
    C           -1.453910985923     0.457586468957    -0.001137056138
    H           -0.393945273547    -1.226801872903    -0.853884392320
    H           -0.379388015976    -1.209890457177     0.879277814000
    C           -2.828802672921    -0.208469311418     0.009532185244
    H           -1.356596388511     1.093340481080    -0.874793911205
    H           -1.349798606656     1.108354722663     0.859850781205
    H           -2.969833784485    -0.841574099957    -0.862221005912
    H           -3.618152412927     0.535724701495     0.006889796048
    H           -2.961824069611    -0.827404971761     0.892368284118

  Mulliken Charges: (a.u.)
   Center  Symbol    Alpha    Beta     Spin     Total
       1     H     0.26853  0.26853  0.00000  0.46295
       2     O     4.36446  4.36446  0.00000 -0.72891
       3     C     2.62287  2.62287  0.00000  0.75425
       4     C     3.21653  3.21653  0.00000 -0.43307
       5     O     4.24802  4.24802  0.00000 -0.49603
       6     C     3.15184  3.15184  0.00000 -0.30367
       7     H     0.41378  0.41378  0.00000  0.17245
       8     H     0.39701  0.39701  0.00000  0.20597
       9     C     3.24322  3.24322  0.00000 -0.48643
      10     H     0.41100  0.41100  0.00000  0.17800
      11     H     0.40716  0.40716  0.00000  0.18568
      12     H     0.42196  0.42196  0.00000  0.15608
      13     H     0.41341  0.41341  0.00000  0.17318
      14     H     0.42022  0.42022  0.00000  0.15956

   Total alpha = 24.00000, Total beta = 24.00000, Total charge = -0.00000
