                              Psi4 1.0.54 Driver

  ==> Input File <==

--------------------------------------------------------------------------
set {
	reference rhf
	basis cc-pvtz
}

set_num_threads( 4 )
memory 2 gb

molecule MOL {
0 1

H	 -1.073496	 -3.486319	 -1.211539
O	 -1.236146	 -2.691164	 -0.726779
C	 -0.133493	 -1.947988	 -0.754714
C	 -0.310616	 -0.658853	 0.000791
O	 0.847094	 -2.298281	 -1.314818
C	 0.926581	 0.227233	 0.000178
H	 -0.609052	 -0.919446	 1.011115
H	 -1.162560	 -0.147641	 -0.435753
C	 2.220156	 -0.582071	 -0.000088
H	 0.899945	 0.878221	 -0.866390
H	 0.900542	 0.878581	 0.866486
C	 3.466689	 0.296012	 -0.000457
H	 2.239073	 -1.234095	 -0.869382
H	 2.239505	 -1.233985	 0.869270
H	 3.493549	 0.935857	 -0.875887
H	 4.368821	 -0.304526	 -0.001199
H	 3.494559	 0.935166	 0.875458

	symmetry c1
}
set optking {
	frozen_dihedral = ("
		7 4 6 10
	")
}

ee,wfn = optimize('scf', return_wfn=True)
oeprop( wfn, 'DIPOLE', 'QUADRUPOLE', 'MULLIKEN_CHARGES')
f=open( 'psi4out.xyz', 'w' )
f.write( "17  " )
f.write( str(ee) + "\n" )
f.write( MOL.save_string_xyz() )
f.close()
--------------------------------------------------------------------------

    Molecular point group: c1
  Charge       = 0
  Multiplicity = 1
  Basis Set: CC-PVTZ
  Basis Set:
  @DF-RHF Final Energy:  -345.02629673467959
    Total Energy =                       -345.0262967346794767
    Molecular point group: c1
  Basis Set: CC-PVTZ
  Basis Set:
  Basis Set: CC-PVTZ
  Basis Set:
  @DF-RHF Final Energy:  -345.03898888982258
    Total Energy =                       -345.0389888898223489
  Basis Set: CC-PVTZ
  Basis Set:
  Basis Set: CC-PVTZ
  Basis Set:
  @DF-RHF Final Energy:  -345.04146514231405
    Total Energy =                       -345.0414651423137684
  Basis Set: CC-PVTZ
  Basis Set:
  Basis Set: CC-PVTZ
  Basis Set:
  @DF-RHF Final Energy:  -345.04215410113397
    Total Energy =                       -345.0421541011340878
  Basis Set: CC-PVTZ
  Basis Set:
  @DF-RHF Final Energy:  -345.04256124732188
    Total Energy =                       -345.0425612473220554
  @DF-RHF Final Energy:  -345.04283736674535
    Total Energy =                       -345.0428373667451751
  @DF-RHF Final Energy:  -345.04307975464371
    Total Energy =                       -345.0430797546434860
  @DF-RHF Final Energy:  -345.04340322096010
    Total Energy =                       -345.0434032209600446
  @DF-RHF Final Energy:  -345.04377238728216
    Total Energy =                       -345.0437723872823312
  Basis Set: CC-PVTZ
  Basis Set:
  @DF-RHF Final Energy:  -345.04387145189349
    Total Energy =                       -345.0438714518932102
  Basis Set: CC-PVTZ
  Basis Set:
  Basis Set: CC-PVTZ
  Basis Set:
  @DF-RHF Final Energy:  -345.04388371347619
    Total Energy =                       -345.0438837134760206
  Basis Set: CC-PVTZ
  Basis Set:
  Basis Set: CC-PVTZ
  Basis Set:
  @DF-RHF Final Energy:  -345.04388595597425
    Total Energy =                       -345.0438859559747016
  Basis Set: CC-PVTZ
  Basis Set:
  Charge       = 0
  Multiplicity = 1
  Basis Set: CC-PVTZ
  Basis Set:

    Orbital Energies (a.u.)
    -----------------------

    Doubly Occupied:

       1A    -20.605812     2A    -20.539133     3A    -11.374874
       4A    -11.239754     5A    -11.225382     6A    -11.214092
       7A    -11.207773     8A     -1.478622     9A     -1.369146
      10A     -1.089465    11A     -1.017340    12A     -0.913915
      13A     -0.832629    14A     -0.786299    15A     -0.706500
      16A     -0.690070    17A     -0.657735    18A     -0.632571
      19A     -0.589429    20A     -0.586871    21A     -0.575159
      22A     -0.536980    23A     -0.514517    24A     -0.489624
      25A     -0.479486    26A     -0.472460    27A     -0.467472
      28A     -0.441001

  @DF-RHF Final Energy:  -345.04388625775107

   => Energetics <=

    Nuclear Repulsion Energy =            311.5668469627763670
    One-Electron Energy =               -1087.7532467801852363
    Two-Electron Energy =                 431.1425135596576865
    DFT Exchange-Correlation Energy =       0.0000000000000000
    Empirical Dispersion Energy =           0.0000000000000000
    PCM Polarization Energy =               0.0000000000000000
    EFP Energy =                            0.0000000000000000
    Total Energy =                       -345.0438862577511827
    Molecular point group: c1
  Basis Set: CC-PVTZ
  Basis Set:

  -Total Gradient:
     Atom            X                  Y                   Z
    ------   -----------------  -----------------  -----------------
       1        0.000001831644     0.000015868416    -0.000008181698
       2       -0.000035355148    -0.000045949067     0.000075820163
       3       -0.000095144577     0.000019489920     0.000087463442
       4        0.004333310344    -0.005602618925     0.000711605021
       5        0.000133087412     0.000024209170    -0.000134392186
       6        0.002993126569    -0.004355540336    -0.004027337881
       7       -0.004027643713     0.005316799398     0.000021935690
       8       -0.000008336717     0.000011587224     0.000021068956
       9       -0.000012833410     0.000018637065    -0.000038434071
      10       -0.003257415612     0.004608258781     0.003304069534
      11       -0.000006671689     0.000014696175    -0.000006309997
      12       -0.000002325668    -0.000011278550    -0.000008812887
      13       -0.000005510674    -0.000014084869    -0.000016373503
      14       -0.000005297411     0.000001206588     0.000011628501
      15       -0.000002754064    -0.000001557021     0.000001719015
      16       -0.000001095304    -0.000002486792     0.000001196396
      17       -0.000000971982     0.000002762817     0.000003335500

  **** Optimization is complete! (in 13 steps) ****
    Final optimized geometry and variables:
    Molecular point group: c1

    Geometry (in Angstrom), charge = 0, multiplicity = 1:

    H           -1.677946856147    -2.603653284307    -0.419327914691
    O           -1.710843964776    -1.854959794986     0.157480382280
    C           -1.004293475475    -0.872996643903    -0.391977101835
    C           -1.067073635589     0.395774863468     0.412576732153
    O           -0.443459526925    -1.004746194558    -1.425561867525
    C            0.156052263745     1.316207499192     0.328814238260
    H           -1.336787751738     0.184218932698     1.437885222921
    H           -1.927862119767     0.925825294728     0.010702517424
    C            1.517026602196     0.639212408020     0.460499430334
    H            0.100625093082     1.920112063886    -0.569529063757
    H            0.049062167187     2.028913349757     1.142550652435
    C            2.659494664680     1.647352807046     0.526370947908
    H            1.675127984423    -0.031290731056    -0.373003979858
    H            1.525190850041     0.028758151314     1.360831885675
    H            2.690637083953     2.258822537431    -0.369191711868
    H            3.616096614194     1.146226705219     0.616398360720
    H            2.552419231438     2.312276760710     1.377149826293

  Mulliken Charges: (a.u.)
   Center  Symbol    Alpha    Beta     Spin     Total
       1     H     0.38116  0.38116  0.00000  0.23768
       2     O     4.15983  4.15983  0.00000 -0.31967
       3     C     2.79783  2.79783  0.00000  0.40434
       4     C     3.11613  3.11613  0.00000 -0.23225
       5     O     4.19789  4.19789  0.00000 -0.39578
       6     C     3.08347  3.08347  0.00000 -0.16694
       7     H     0.43309  0.43309  0.00000  0.13382
       8     H     0.43706  0.43706  0.00000  0.12589
       9     C     3.09428  3.09428  0.00000 -0.18857
      10     H     0.44740  0.44740  0.00000  0.10519
      11     H     0.45099  0.45099  0.00000  0.09802
      12     C     3.15100  3.15100  0.00000 -0.30200
      13     H     0.43687  0.43687  0.00000  0.12625
      14     H     0.45547  0.45547  0.00000  0.08906
      15     H     0.45359  0.45359  0.00000  0.09282
      16     H     0.44728  0.44728  0.00000  0.10543
      17     H     0.45665  0.45665  0.00000  0.08669

   Total alpha = 28.00000, Total beta = 28.00000, Total charge =  0.00000

*** Psi4 exiting successfully. Buy a developer a beer!
