                              Psi4 1.0.54 Driver

  ==> Input File <==

--------------------------------------------------------------------------
set {
	reference rhf
	basis cc-pvtz
}

set_num_threads( 4 )
memory 2 gb

molecule MOL {
0 1

H	 1.264729	 0.034781	 2.212818
C	 1.667195	 0.109222	 1.193930
C	 0.692262	 0.592428	 0.156232
O	 2.791915	 -0.185133	 0.979469
C	 -0.554654	 -0.292621	 0.086567
H	 1.199992	 0.633989	 -0.798399
H	 0.401485	 1.604752	 0.429229
C	 -1.846385	 0.513195	 -0.016346
H	 -0.473986	 -0.956115	 -0.769708
H	 -0.597929	 -0.929215	 0.966651
C	 -3.089953	 -0.365049	 -0.098564
H	 -1.798267	 1.154820	 -0.891143
H	 -1.925398	 1.173265	 0.842889
H	 -3.055079	 -1.012299	 -0.968245
H	 -3.988403	 0.236438	 -0.170014
H	 -3.183055	 -0.995885	 0.779079

	symmetry c1
}
set optking {
	frozen_dihedral = ("
		6 3 5 9
	")
}

ee,wfn = optimize('scf', return_wfn=True)
oeprop( wfn, 'DIPOLE', 'QUADRUPOLE', 'MULLIKEN_CHARGES')
f=open( 'psi4out.xyz', 'w' )
f.write( "16  " )
f.write( str(ee) + "\n" )
f.write( MOL.save_string_xyz() )
f.close()
--------------------------------------------------------------------------

    Molecular point group: c1
  Charge       = 0
  Multiplicity = 1
  Basis Set: CC-PVTZ
  Basis Set:
  @DF-RHF Final Energy:  -270.11528473390291
    Total Energy =                       -270.1152847339029677
    Molecular point group: c1
  Basis Set: CC-PVTZ
  Basis Set:
  Basis Set: CC-PVTZ
  Basis Set:
  @DF-RHF Final Energy:  -270.11546718107758
    Total Energy =                       -270.1154671810776904
  Basis Set: CC-PVTZ
  Basis Set:
  Basis Set: CC-PVTZ
  Basis Set:
  @DF-RHF Final Energy:  -270.11376868394370
    Total Energy =                       -270.1137686839435901
  Basis Set: CC-PVTZ
  Basis Set:
  Basis Set: CC-PVTZ
  Basis Set:
  @DF-RHF Final Energy:  -270.11554267858378
    Total Energy =                       -270.1155426785839495
  Basis Set: CC-PVTZ
  Basis Set:
  Basis Set: CC-PVTZ
  Basis Set:
  @DF-RHF Final Energy:  -270.11556217193197
    Total Energy =                       -270.1155621719320834
  Basis Set: CC-PVTZ
  Basis Set:
  Basis Set: CC-PVTZ
  Basis Set:
  @DF-RHF Final Energy:  -270.11557064005353
    Total Energy =                       -270.1155706400534200
  Basis Set: CC-PVTZ
  Basis Set:
  Charge       = 0
  Multiplicity = 1
  Basis Set: CC-PVTZ
  Basis Set:

    Orbital Energies (a.u.)
    -----------------------

    Doubly Occupied:

       1A    -20.551867     2A    -11.321400     3A    -11.234747
       4A    -11.234041     5A    -11.228032     6A    -11.216975
       7A     -1.407047     8A     -1.096621     9A     -1.019660
      10A     -0.907385    11A     -0.814756    12A     -0.794220
      13A     -0.676104    14A     -0.655152    15A     -0.625882
      16A     -0.606340    17A     -0.582626    18A     -0.556004
      19A     -0.534625    20A     -0.508932    21A     -0.485658
      22A     -0.483252    23A     -0.478518    24A     -0.411692

  @DF-RHF Final Energy:  -270.11557147519534

   => Energetics <=

    Nuclear Repulsion Energy =            229.2967930666305563
    One-Electron Energy =                -819.9616447339212755
    Two-Electron Energy =                 320.5492801920953525
    DFT Exchange-Correlation Energy =       0.0000000000000000
    Empirical Dispersion Energy =           0.0000000000000000
    PCM Polarization Energy =               0.0000000000000000
    EFP Energy =                            0.0000000000000000
    Total Energy =                       -270.1155714751953383
    Molecular point group: c1
  Basis Set: CC-PVTZ
  Basis Set:

  -Total Gradient:
     Atom            X                  Y                   Z
    ------   -----------------  -----------------  -----------------
       1       -0.000019607031     0.000007172185    -0.000053391332
       2        0.000047399913     0.000017769265     0.000061148897
       3       -0.002542438062     0.003966850182    -0.001570950141
       4       -0.000033869420    -0.000019793533    -0.000028006583
       5        0.002236099211    -0.003501681691     0.002616238886
       6        0.001808807671    -0.002693505729     0.000937001729
       7       -0.000016009404    -0.000019969849    -0.000002295349
       8        0.000020983835    -0.000026224846    -0.000041595624
       9       -0.001472056730     0.002266659205    -0.001922203918
      10       -0.000009892110    -0.000000242531    -0.000011913461
      11       -0.000025202153     0.000003704920     0.000023431968
      12       -0.000002854035    -0.000003716478    -0.000009239419
      13        0.000013166711    -0.000001288913    -0.000005659416
      14        0.000007868258     0.000012339877     0.000005168382
      15       -0.000013866013    -0.000004141512     0.000006064334
      16        0.000001469365    -0.000003930551    -0.000003798953

  **** Optimization is complete! (in 7 steps) ****
    Final optimized geometry and variables:
    Molecular point group: c1

    Geometry (in Angstrom), charge = 0, multiplicity = 1:

    H            1.341557508930    -0.063110187184     1.832294304068
    C            1.741745749728     0.033255869273     0.814054722855
    C            0.758204153550     0.532958046644    -0.210399729633
    O            2.867292886609    -0.249667945254     0.590884736148
    C           -0.510183602063    -0.340857695050    -0.264804771466
    H            1.271535189050     0.554582642939    -1.161385815152
    H            0.499906629963     1.550792332049     0.069096965629
    C           -1.795995725341     0.471106965855    -0.412684207248
    H           -0.433319711012    -1.016824216272    -1.108687817439
    H           -0.583074432831    -0.957261414782     0.626804428170
    C           -3.041409839635    -0.400512063267    -0.524449387120
    H           -1.717352375020     1.105517605266    -1.291174027549
    H           -1.896445063131     1.139419738232     0.438035415421
    H           -2.986689586548    -1.052319734319    -1.389747662741
    H           -3.934787093506     0.204824161692    -0.622513002284
    H           -3.160997052992    -1.027048782598     0.353165276699

  Mulliken Charges: (a.u.)
   Center  Symbol    Alpha    Beta     Spin     Total
       1     H     0.46732  0.46732  0.00000  0.06535
       2     C     2.90329  2.90329  0.00000  0.19343
       3     C     3.08279  3.08279  0.00000 -0.16557
       4     O     4.16425  4.16425  0.00000 -0.32850
       5     C     3.10196  3.10196  0.00000 -0.20391
       6     H     0.44060  0.44060  0.00000  0.11881
       7     H     0.44893  0.44893  0.00000  0.10214
       8     C     3.08607  3.08607  0.00000 -0.17213
       9     H     0.44439  0.44439  0.00000  0.11123
      10     H     0.45189  0.45189  0.00000  0.09622
      11     C     3.14945  3.14945  0.00000 -0.29891
      12     H     0.45062  0.45062  0.00000  0.09877
      13     H     0.45414  0.45414  0.00000  0.09172
      14     H     0.45342  0.45342  0.00000  0.09316
      15     H     0.44671  0.44671  0.00000  0.10658
      16     H     0.45418  0.45418  0.00000  0.09163

   Total alpha = 24.00000, Total beta = 24.00000, Total charge = -0.00000

*** Psi4 exiting successfully. Buy a developer a beer!
