                              Psi4 1.0.54 Driver

  ==> Input File <==

--------------------------------------------------------------------------
set {
	reference rhf
	basis cc-pvtz
}

set_num_threads( 4 )
memory 2 gb

molecule MOL {
0 1

H	 1.121206	 -0.348712	 1.157175
C	 1.071605	 -0.169040	 0.074541
C	 0.062554	 0.862911	 -0.350953
O	 1.785111	 -0.762994	 -0.657088
C	 -1.339253	 0.577611	 0.196911
H	 0.062679	 0.919937	 -1.431805
H	 0.410260	 1.818169	 0.035903
C	 -1.813142	 -0.849710	 -0.061612
H	 -2.032833	 1.276441	 -0.256032
H	 -1.357249	 0.782269	 1.263793
H	 -1.839268	 -1.063526	 -1.124230
H	 -2.810118	 -1.001930	 0.334000
H	 -1.159274	 -1.579980	 0.402282

	symmetry c1
}
set optking {
	frozen_dihedral = ("
		6 3 5 9
	")
}

ee,wfn = optimize('scf', return_wfn=True)
oeprop( wfn, 'DIPOLE', 'QUADRUPOLE', 'MULLIKEN_CHARGES')
f=open( 'psi4out.xyz', 'w' )
f.write( "13  " )
f.write( str(ee) + "\n" )
f.write( MOL.save_string_xyz() )
f.close()
--------------------------------------------------------------------------

    Molecular point group: c1
  Charge       = 0
  Multiplicity = 1
  Basis Set: CC-PVTZ
  Basis Set:
  @DF-RHF Final Energy:  -231.06950692804207
    Total Energy =                       -231.0695069280420739
    Molecular point group: c1
  Basis Set: CC-PVTZ
  Basis Set:
  Basis Set: CC-PVTZ
  Basis Set:
  @DF-RHF Final Energy:  -231.06963544979081
    Total Energy =                       -231.0696354497909510
  Basis Set: CC-PVTZ
  Basis Set:
  Basis Set: CC-PVTZ
  Basis Set:
  @DF-RHF Final Energy:  -231.06734300864940
    Total Energy =                       -231.0673430086496296
  Basis Set: CC-PVTZ
  Basis Set:
  Basis Set: CC-PVTZ
  Basis Set:
  @DF-RHF Final Energy:  -231.06973738162702
    Total Energy =                       -231.0697373816271920
  Basis Set: CC-PVTZ
  Basis Set:
  Basis Set: CC-PVTZ
  Basis Set:
  @DF-RHF Final Energy:  -231.06978561578939
    Total Energy =                       -231.0697856157892716
  Basis Set: CC-PVTZ
  Basis Set:
  Basis Set: CC-PVTZ
  Basis Set:
  @DF-RHF Final Energy:  -231.06979003809110
    Total Energy =                       -231.0697900380909573
  Basis Set: CC-PVTZ
  Basis Set:
  Charge       = 0
  Multiplicity = 1
  Basis Set: CC-PVTZ
  Basis Set:

    Orbital Energies (a.u.)
    -----------------------

    Doubly Occupied:

       1A    -20.552118     2A    -11.322007     3A    -11.237050
       4A    -11.234775     5A    -11.219939     6A     -1.407143
       7A     -1.087673     8A     -0.973930     9A     -0.851152
      10A     -0.787093    11A     -0.668876    12A     -0.650156
      13A     -0.630529    14A     -0.599646    15A     -0.559454
      16A     -0.534235    17A     -0.510452    18A     -0.492179
      19A     -0.483612    20A     -0.412803

  @DF-RHF Final Energy:  -231.06979050575114

   => Energetics <=

    Nuclear Repulsion Energy =            174.3728647489812715
    One-Electron Energy =                -658.4556661652583216
    Two-Electron Energy =                 253.0130109105259066
    DFT Exchange-Correlation Energy =       0.0000000000000000
    Empirical Dispersion Energy =           0.0000000000000000
    PCM Polarization Energy =               0.0000000000000000
    EFP Energy =                            0.0000000000000000
    Total Energy =                       -231.0697905057511434
    Molecular point group: c1
  Basis Set: CC-PVTZ
  Basis Set:

  -Total Gradient:
     Atom            X                  Y                   Z
    ------   -----------------  -----------------  -----------------
       1        0.000021095164     0.000003272799    -0.000031574990
       2        0.000008498559    -0.000038184642    -0.000022797785
       3        0.000720679784    -0.004759436331    -0.000797634886
       4       -0.000045229769     0.000021828544     0.000057110989
       5        0.000538885618     0.003539086385     0.003141373876
       6       -0.000617998160     0.003425339830     0.000178554666
       7       -0.000037918591    -0.000006956587     0.000012278172
       8       -0.000005579770    -0.000003610211    -0.000008454068
       9       -0.000591268746    -0.002205469889    -0.002531244832
      10       -0.000002269630     0.000002894257     0.000003103554
      11       -0.000003828654    -0.000005369426     0.000022462846
      12        0.000028288989     0.000007573465    -0.000007110686
      13       -0.000013354788     0.000019031803    -0.000016066856

  **** Optimization is complete! (in 7 steps) ****
    Final optimized geometry and variables:
    Molecular point group: c1

    Geometry (in Angstrom), charge = 0, multiplicity = 1:

    H            1.196177328231    -0.225304389783     1.327320349026
    C            1.135896838330    -0.068081755392     0.241942171058
    C            0.098833713875     0.926870573193    -0.197874253100
    O            1.865684415502    -0.652130831190    -0.481618818310
    C           -1.297071581394     0.650008833416     0.373675303097
    H            0.081373211567     0.979299357352    -1.278617404006
    H            0.434864670555     1.898704844981     0.159413619636
    C           -1.803973373612    -0.762901022266     0.088492593876
    H           -1.986117164961     1.354578970017    -0.077066254499
    H           -1.303146364981     0.834594511184     1.442880341204
    H           -1.813974836280    -0.964298669783    -0.976914256834
    H           -2.813025858902    -0.890185730139     0.461459473196
    H           -1.184030688999    -1.518862739816     0.557501159086

  Mulliken Charges: (a.u.)
   Center  Symbol    Alpha    Beta     Spin     Total
       1     H     0.46328  0.46328  0.00000  0.07344
       2     C     2.90515  2.90515  0.00000  0.18970
       3     C     3.08965  3.08965  0.00000 -0.17930
       4     O     4.16531  4.16531  0.00000 -0.33062
       5     C     3.10303  3.10303  0.00000 -0.20606
       6     H     0.44127  0.44127  0.00000  0.11745
       7     H     0.44426  0.44426  0.00000  0.11149
       8     C     3.14550  3.14550  0.00000 -0.29101
       9     H     0.44428  0.44428  0.00000  0.11144
      10     H     0.44890  0.44890  0.00000  0.10219
      11     H     0.44904  0.44904  0.00000  0.10192
      12     H     0.44701  0.44701  0.00000  0.10597
      13     H     0.45331  0.45331  0.00000  0.09338

   Total alpha = 20.00000, Total beta = 20.00000, Total charge =  0.00000

*** Psi4 exiting successfully. Buy a developer a beer!
