  ==> Input File <==

--------------------------------------------------------------------------
set {
	reference rhf
	basis 6-31G*
}

set_num_threads( 4 )
memory 2 gb

molecule MOL {
0 1

O	 -2.821601	 1.309235	 -0.001213
C	 -2.668563	 0.129746	 -0.000350
C	 -3.801572	 -0.864014	 -0.000442
O	 -1.481751	 -0.454642	 0.000584
H	 -4.417280	 -0.689587	 -0.874708
H	 -3.443784	 -1.883046	 -0.000565
H	 -4.417179	 -0.689832	 0.873954
C	 -0.334255	 0.388708	 0.000906
C	 0.891947	 -0.504646	 0.000751
H	 -0.365390	 1.025305	 -0.873475
H	 -0.365484	 1.024911	 0.875569
C	 2.191998	 0.301789	 0.000897
H	 0.855148	 -1.151283	 -0.871571
H	 0.855132	 -1.151660	 0.872805
C	 3.441114	 -0.581407	 0.000108
H	 2.215074	 0.954890	 -0.869742
H	 2.215465	 0.953923	 0.872248
C	 3.704425	 -1.238709	 -1.353956
H	 3.337260	 -1.351198	 0.761497
H	 4.303846	 0.016281	 0.285648
H	 2.872559	 -1.870719	 -1.651573
H	 4.595409	 -1.857917	 -1.322902
H	 3.846744	 -0.492993	 -2.130914

	symmetry c1
}
set optking {
	frozen_dihedral = ("
		19 15 12 16
	")
}

ee = optimize('scf')
oeprop('DIPOLE', 'QUADRUPOLE', 'MULLIKEN_CHARGES')
f=open( 'psi4out.xyz', 'w' )
f.write( "23  " )
f.write( str(ee) + "\n" )
f.write( MOL.save_string_xyz() )
f.close()
--------------------------------------------------------------------------

    Molecular point group: c1
  Charge       = 0
  Multiplicity = 1
  Basis Set: 6-31G*
  Basis Set:
  @DF-RHF Final Energy:  -422.97747934308325
    Total Energy =                       -422.9774793430830186
    Molecular point group: c1
  Basis Set: 6-31G*
  Basis Set:
  Basis Set: 6-31G*
  Basis Set:
  @DF-RHF Final Energy:  -422.97762666544287
    Total Energy =                       -422.9776266654430401
  Basis Set: 6-31G*
  Basis Set:
  Basis Set: 6-31G*
  Basis Set:
  @DF-RHF Final Energy:  -422.97768148426354
    Total Energy =                       -422.9776814842639396
  Basis Set: 6-31G*
  Basis Set:
  Basis Set: 6-31G*
  Basis Set:
  @DF-RHF Final Energy:  -422.97760242299250
    Total Energy =                       -422.9776024229925042
  Basis Set: 6-31G*
  Basis Set:
  Basis Set: 6-31G*
  Basis Set:
  @DF-RHF Final Energy:  -422.97769094240130
    Total Energy =                       -422.9776909424017504
  Basis Set: 6-31G*
  Basis Set:
  Charge       = 0
  Multiplicity = 1
  Basis Set: 6-31G*
  Basis Set:

    Orbital Energies (a.u.)
    -----------------------

    Doubly Occupied:

       1A    -20.603016     2A    -20.540547     3A    -11.374099
       4A    -11.281475     5A    -11.232407     6A    -11.224443
       7A    -11.223727     8A    -11.221994     9A    -11.213032
      10A     -1.467960    11A     -1.360748    12A     -1.094030
      13A     -1.041161    14A     -1.002096    15A     -0.930940
      16A     -0.851721    17A     -0.794977    18A     -0.772245
      19A     -0.691365    20A     -0.685198    21A     -0.669687
      22A     -0.634256    23A     -0.618404    24A     -0.598199
      25A     -0.577368    26A     -0.571644    27A     -0.546403
      28A     -0.536424    29A     -0.525797    30A     -0.507452
      31A     -0.497360    32A     -0.473616    33A     -0.466514
      34A     -0.466073    35A     -0.451217    36A     -0.435328

  @DF-RHF Final Energy:  -422.97769110150045

   => Energetics <=

    Nuclear Repulsion Energy =            453.6729287222955236
    One-Electron Energy =               -1474.9353952458536696
    Two-Electron Energy =                 598.2847754220574643
    DFT Exchange-Correlation Energy =       0.0000000000000000
    Empirical Dispersion Energy =           0.0000000000000000
    PCM Polarization Energy =               0.0000000000000000
    EFP Energy =                            0.0000000000000000
    Total Energy =                       -422.9776911015006817
    Molecular point group: c1
  Basis Set: 6-31G*
  Basis Set:

  -Total Gradient:
     Atom            X                  Y                   Z
    ------   -----------------  -----------------  -----------------
       1        0.000001120581    -0.000001680111     0.000008635762
       2       -0.000007134013    -0.000001055034    -0.000029800780
       3        0.000000605816     0.000000851257     0.000015310891
       4       -0.000013777579    -0.000000682434    -0.000005818764
       5        0.000002852123     0.000000626353    -0.000001458470
       6        0.000000551433     0.000000200768     0.000000037776
       7       -0.000002758677    -0.000000435589    -0.000001131191
       8       -0.000002935351    -0.000011786944     0.000025583488
       9        0.000024291799     0.000018423718     0.000017304601
      10       -0.000001882392     0.000004369921    -0.000004543072
      11        0.000008130578    -0.000000860966    -0.000008096810
      12        0.000765383454     0.001122108914     0.000759890796
      13        0.000006686444    -0.000001354181    -0.000000661224
      14       -0.000011797380    -0.000001069468     0.000003090800
      15        0.000623906269     0.000909218873     0.001100972289
      16       -0.000750185122    -0.001088491076    -0.000835422489
      17        0.000000009607     0.000000339771    -0.000000784897
      18        0.000016239054     0.000022990438     0.000012380673
      19       -0.000662577161    -0.000961042336    -0.001053342973
      20        0.000008946721    -0.000010226038    -0.000002517515
      21       -0.000005333393     0.000002341114     0.000010286002
      22        0.000011148166    -0.000000069884    -0.000007031192
      23       -0.000011490975    -0.000002717064    -0.000002883703

  **** Optimization is complete! (in 6 steps) ****
    Final optimized geometry and variables:
    Molecular point group: c1

    Geometry (in Angstrom), charge = 0, multiplicity = 1:

    O           -2.702873574147     1.486329028896     0.173218723863
    C           -2.556377962211     0.306043297462     0.164108027418
    C           -3.694963829016    -0.681326790128     0.162073583843
    O           -1.372892119634    -0.285006584106     0.154937351031
    H           -4.314304981470    -0.496407939084    -0.707450162064
    H           -3.342947238837    -1.702321382830     0.151896433662
    H           -4.304936146333    -0.510750231940     1.041118622376
    C           -0.220556210562     0.551842983103     0.156404921017
    C            1.000702381369    -0.348457943053     0.142738606421
    H           -0.252409711565     1.195698160901    -0.712653232565
    H           -0.243970443283     1.181179994588     1.036281722418
    C            2.302974231063     0.458072543052     0.145237399525
    H            0.947641751516    -0.989472332467    -0.731412053001
    H            0.966788304342    -0.998698907746     1.012648488663
    C            3.567953583967    -0.410014477805     0.148415153224
    H            2.319708548339     1.110277525569    -0.726208585937
    H            2.314410204067     1.105572650115     1.018924617342
    C            3.870591119894    -1.073466781935    -1.196804243598
    H            3.472933128889    -1.180429357023     0.910374835722
    H            4.416586401945     0.205561767064     0.433404230136
    H            3.078201482681    -1.748512708733    -1.503644088864
    H            4.787874212080    -1.651631575194    -1.144121851202
    H            3.993775628455    -0.329793293601    -1.979200862019

  Mulliken Charges: (a.u.)
   Center  Symbol    Alpha    Beta     Spin     Total
       1     O     4.28390  4.28390  0.00000 -0.56779
       2     C     2.61535  2.61535  0.00000  0.76929
       3     C     3.28774  3.28774  0.00000 -0.57547
       4     O     4.31273  4.31273  0.00000 -0.62546
       5     H     0.39750  0.39750  0.00000  0.20501
       6     H     0.39990  0.39990  0.00000  0.20020
       7     H     0.39749  0.39749  0.00000  0.20502
       8     C     2.99541  2.99541  0.00000  0.00918
       9     C     3.16635  3.16635  0.00000 -0.33271
      10     H     0.41065  0.41065  0.00000  0.17871
      11     H     0.41076  0.41076  0.00000  0.17849
      12     C     3.16197  3.16197  0.00000 -0.32393
      13     H     0.41282  0.41282  0.00000  0.17436
      14     H     0.41452  0.41452  0.00000  0.17097
      15     C     3.15316  3.15316  0.00000 -0.30632
      16     H     0.42085  0.42085  0.00000  0.15830
      17     H     0.41866  0.41866  0.00000  0.16268
      18     C     3.24152  3.24152  0.00000 -0.48303
      19     H     0.42147  0.42147  0.00000  0.15706
      20     H     0.41841  0.41841  0.00000  0.16317
      21     H     0.41995  0.41995  0.00000  0.16010
      22     H     0.41786  0.41786  0.00000  0.16428
      23     H     0.42105  0.42105  0.00000  0.15790

   Total alpha = 36.00000, Total beta = 36.00000, Total charge = -0.00000
