  ==> Input File <==

--------------------------------------------------------------------------
set {
	reference rhf
	basis 6-31G*
}

set_num_threads( 4 )
memory 2 gb

molecule MOL {
0 1

H	 -0.384417	 -1.357773	 -0.672600
N	 -0.626943	 -0.667432	 -0.000092
C	 -1.979713	 -0.158776	 0.000050
C	 0.325755	 -0.252874	 0.869779
H	 -2.520245	 -0.492427	 -0.879443
H	 -1.934741	 0.918111	 -0.004428
H	 -2.517790	 -0.485056	 0.883818
C	 1.674978	 -0.919497	 0.690344
O	 0.127974	 0.574320	 1.716447
H	 2.068026	 -0.726742	 -0.302990
H	 2.359261	 -0.526889	 1.427442
H	 1.590945	 -1.994555	 0.814939

	symmetry c1
}
set optking {
	frozen_dihedral = ("
		4 2 3 5
	")
}

ee = optimize('scf')
oeprop('DIPOLE', 'QUADRUPOLE', 'MULLIKEN_CHARGES')
f=open( 'psi4out.xyz', 'w' )
f.write( "12  " )
f.write( str(ee) + "\n" )
f.write( MOL.save_string_xyz() )
f.close()
--------------------------------------------------------------------------

    Molecular point group: c1
  Charge       = 0
  Multiplicity = 1
  Basis Set: 6-31G*
  Basis Set:
  @DF-RHF Final Energy:  -247.00503567965143
    Total Energy =                       -247.0050356796516553
    Molecular point group: c1
  Basis Set: 6-31G*
  Basis Set:
  Basis Set: 6-31G*
  Basis Set:
  @DF-RHF Final Energy:  -247.00556642508627
    Total Energy =                       -247.0055664250861582
  Basis Set: 6-31G*
  Basis Set:
  Basis Set: 6-31G*
  Basis Set:
  @DF-RHF Final Energy:  -247.00564197069440
    Total Energy =                       -247.0056419706942847
  Basis Set: 6-31G*
  Basis Set:
  Basis Set: 6-31G*
  Basis Set:
  @DF-RHF Final Energy:  -247.00557881529764
    Total Energy =                       -247.0055788152976106
  Basis Set: 6-31G*
  Basis Set:
  @DF-RHF Final Energy:  -247.00566813619244
    Total Energy =                       -247.0056681361924120
  @DF-RHF Final Energy:  -247.00567375980219
    Total Energy =                       -247.0056737598019367
  @DF-RHF Final Energy:  -247.00569297998643
    Total Energy =                       -247.0056929799862928
  @DF-RHF Final Energy:  -247.00570267623712
    Total Energy =                       -247.0057026762372061
  @DF-RHF Final Energy:  -247.00570480038635
    Total Energy =                       -247.0057048003865248
  @DF-RHF Final Energy:  -247.00570859095154
    Total Energy =                       -247.0057085909515990
  @DF-RHF Final Energy:  -247.00572970792624
    Total Energy =                       -247.0057297079260934
  @DF-RHF Final Energy:  -247.00574765850826
    Total Energy =                       -247.0057476585083123
  @DF-RHF Final Energy:  -247.00576620126827
    Total Energy =                       -247.0057662012682158
  Basis Set: 6-31G*
  Basis Set:
  @DF-RHF Final Energy:  -247.00580306674237
    Total Energy =                       -247.0058030667421463
  Basis Set: 6-31G*
  Basis Set:
  Basis Set: 6-31G*
  Basis Set:
  @DF-RHF Final Energy:  -247.00582499649204
    Total Energy =                       -247.0058249964920378
  Basis Set: 6-31G*
  Basis Set:
  Basis Set: 6-31G*
  Basis Set:
  @DF-RHF Final Energy:  -247.00583118465724
    Total Energy =                       -247.0058311846570405
  Basis Set: 6-31G*
  Basis Set:
  Charge       = 0
  Multiplicity = 1
  Basis Set: 6-31G*
  Basis Set:

    Orbital Energies (a.u.)
    -----------------------

    Doubly Occupied:

       1A    -20.514397     2A    -15.582337     3A    -11.341494
       4A    -11.255194     5A    -11.230105     6A     -1.383693
       7A     -1.228162     8A     -1.015068     9A     -0.932444
      10A     -0.787971    11A     -0.688951    12A     -0.647840
      13A     -0.632901    14A     -0.584310    15A     -0.579430
      16A     -0.555746    17A     -0.546784    18A     -0.502265
      19A     -0.412438    20A     -0.385708

  @DF-RHF Final Energy:  -247.00583187622354

   => Energetics <=

    Nuclear Repulsion Energy =            181.5268463243355939
    One-Electron Energy =                -695.4508804686162193
    Two-Electron Energy =                 266.9182022680571436
    DFT Exchange-Correlation Energy =       0.0000000000000000
    Empirical Dispersion Energy =           0.0000000000000000
    PCM Polarization Energy =               0.0000000000000000
    EFP Energy =                            0.0000000000000000
    Total Energy =                       -247.0058318762235103
    Molecular point group: c1
  Basis Set: 6-31G*
  Basis Set:

  -Total Gradient:
     Atom            X                  Y                   Z
    ------   -----------------  -----------------  -----------------
       1        0.000008164229    -0.000008437909    -0.000012201014
       2        0.000000438307     0.000042755927     0.000032692353
       3       -0.000034797018     0.000029799783    -0.000011511474
       4        0.000048664201    -0.000037612698    -0.000055609382
       5       -0.000004806404    -0.000034425236     0.000010242418
       6        0.000014407392    -0.000002386544    -0.000001154403
       7        0.000003921958    -0.000006963065     0.000000197392
       8        0.000017975266     0.000034814225    -0.000004924549
       9       -0.000032902344     0.000027783997     0.000038394378
      10        0.000001616886    -0.000009896963    -0.000004020248
      11       -0.000013972389    -0.000019789807     0.000008672169
      12       -0.000008710084    -0.000015641712    -0.000000777641

  **** Optimization is complete! (in 17 steps) ****
    Final optimized geometry and variables:
    Molecular point group: c1

    Geometry (in Angstrom), charge = 0, multiplicity = 1:

    H           -0.231783376134    -0.907951323878    -1.468091805368
    N           -0.474103444890    -0.263790567243    -0.752671645969
    C           -1.846179442394     0.184632010797    -0.657574551475
    C            0.427310847983     0.010552136075     0.217100755755
    H           -2.335152275601     0.011859150914    -1.607305935510
    H           -1.873846937215     1.241541899207    -0.434667681709
    H           -2.389438510550    -0.341949820633     0.119568588165
    C            1.793165718772    -0.620130143787     0.043508920562
    O            0.161664896733     0.696760410253     1.165995432856
    H            2.021846921153    -0.858166646832    -0.988986350593
    H            2.540552054502     0.056824010490     0.432986298246
    H            1.832750485525    -1.535292882702     0.625779473403

  Mulliken Charges: (a.u.)
   Center  Symbol    Alpha    Beta     Spin     Total
       1     H     0.30940  0.30940  0.00000  0.38120
       2     N     3.89283  3.89283  0.00000 -0.78567
       3     C     3.13491  3.13491  0.00000 -0.26982
       4     C     2.63033  2.63033  0.00000  0.73934
       5     H     0.41782  0.41782  0.00000  0.16437
       6     H     0.39905  0.39905  0.00000  0.20190
       7     H     0.41112  0.41112  0.00000  0.17776
       8     C     3.29106  3.29106  0.00000 -0.58212
       9     O     4.30296  4.30296  0.00000 -0.60592
      10     H     0.41636  0.41636  0.00000  0.16727
      11     H     0.39394  0.39394  0.00000  0.21211
      12     H     0.40021  0.40021  0.00000  0.19957

   Total alpha = 20.00000, Total beta = 20.00000, Total charge =  0.00000
