                              Psi4 1.0.54 Driver

  ==> Input File <==

--------------------------------------------------------------------------
set {
	reference rhf
	basis cc-pvtz
}

set_num_threads( 4 )
memory 2 gb

molecule MOL {
0 1

H	 3.083659	 -1.378387	 0.000000
O	 2.179005	 -1.633391	 0.000000
C	 1.366950	 -0.558201	 0.000000
C	 1.799664	 0.696663	 -0.400944
C	 0.064024	 -0.737019	 0.417648
H	 2.814977	 0.834173	 -0.725997
C	 0.929992	 1.768259	 -0.383422
H	 -0.273201	 -1.704933	 0.727913
C	 -0.800907	 0.342357	 0.432087
H	 1.275931	 2.734459	 -0.695842
C	 -0.374985	 1.597798	 0.032989
C	 -2.206901	 0.163080	 0.879770
H	 -1.053542	 2.429203	 0.047692
O	 -2.674096	 -0.862163	 1.240360
H	 -2.813813	 1.073414	 0.856351

	symmetry c1
}
set optking {
	frozen_dihedral = ("
		4 3 2 1
	")
}

ee,wfn = optimize('scf', return_wfn=True)
oeprop( wfn, 'DIPOLE', 'QUADRUPOLE', 'MULLIKEN_CHARGES')
f=open( 'psi4out.xyz', 'w' )
f.write( "15  " )
f.write( str(ee) + "\n" )
f.write( MOL.save_string_xyz() )
f.close()
--------------------------------------------------------------------------

    Molecular point group: c1
  Charge       = 0
  Multiplicity = 1
  Basis Set: CC-PVTZ
  Basis Set:
  @DF-RHF Final Energy:  -418.43837703887039
    Total Energy =                       -418.4383770388708399
    Molecular point group: c1
  Basis Set: CC-PVTZ
  Basis Set:
  Basis Set: CC-PVTZ
  Basis Set:
  @DF-RHF Final Energy:  -418.43840039238148
    Total Energy =                       -418.4384003923819364
  Basis Set: CC-PVTZ
  Basis Set:
  Basis Set: CC-PVTZ
  Basis Set:
  @DF-RHF Final Energy:  -418.43844320001159
    Total Energy =                       -418.4384432000115339
  Basis Set: CC-PVTZ
  Basis Set:
  Basis Set: CC-PVTZ
  Basis Set:
  @DF-RHF Final Energy:  -418.43842723926792
    Total Energy =                       -418.4384272392678668
  Basis Set: CC-PVTZ
  Basis Set:
  Charge       = 0
  Multiplicity = 1
  Basis Set: CC-PVTZ
  Basis Set:

    Orbital Energies (a.u.)
    -----------------------

    Doubly Occupied:

       1A    -20.594211     2A    -20.554385     3A    -11.327540
       4A    -11.310863     5A    -11.250949     6A    -11.250634
       7A    -11.247800     8A    -11.243951     9A    -11.237652
      10A     -1.425555    11A     -1.410133    12A     -1.174414
      13A     -1.052151    14A     -1.030939    15A     -0.902390
      16A     -0.850062    17A     -0.816039    18A     -0.740590
      19A     -0.705860    20A     -0.689949    21A     -0.644682
      22A     -0.640937    23A     -0.616501    24A     -0.610402
      25A     -0.573737    26A     -0.556531    27A     -0.545609
      28A     -0.515587    29A     -0.492710    30A     -0.426825
      31A     -0.358202    32A     -0.332413

  @DF-RHF Final Energy:  -418.43844804696272

   => Energetics <=

    Nuclear Repulsion Energy =            404.0379395592944434
    One-Electron Energy =               -1370.6923661446974165
    Two-Electron Energy =                 548.2159785384402539
    DFT Exchange-Correlation Energy =       0.0000000000000000
    Empirical Dispersion Energy =           0.0000000000000000
    PCM Polarization Energy =               0.0000000000000000
    EFP Energy =                            0.0000000000000000
    Total Energy =                       -418.4384480469626624
    Molecular point group: c1
  Basis Set: CC-PVTZ
  Basis Set:

  -Total Gradient:
     Atom            X                  Y                   Z
    ------   -----------------  -----------------  -----------------
       1       -0.000007946309    -0.000004987887     0.001521610966
       2       -0.000241517600    -0.000097848244    -0.002462989154
       3        0.000719316386     0.000435891601     0.001927423199
       4       -0.000313019382    -0.000404052565    -0.001018728719
       5       -0.000163328176     0.000080903397     0.000044732313
       6       -0.000000469391     0.000016733723     0.000008874750
       7       -0.000175885256     0.000049301073    -0.000005266299
       8        0.000008691589    -0.000008945378    -0.000010447204
       9        0.000045512456    -0.000168729564     0.000023365614
      10        0.000011932713    -0.000006094169    -0.000003440847
      11        0.000135354199     0.000117433197    -0.000021072126
      12        0.000050615842     0.000035907106    -0.000056536486
      13       -0.000004553839    -0.000006513963     0.000002956845
      14       -0.000042056450    -0.000051991029     0.000033742808
      15       -0.000022646793     0.000012992698     0.000015774341

  **** Optimization is complete! (in 5 steps) ****
    Final optimized geometry and variables:
    Molecular point group: c1

    Geometry (in Angstrom), charge = 0, multiplicity = 1:

    H            3.047479846896    -1.409534205780    -0.291437305034
    O            2.142468744184    -1.662992708998    -0.269200800279
    C            1.332557104994    -0.584148046930    -0.248511773089
    C            1.762941551815     0.668551777465    -0.660450885699
    C            0.029460728758    -0.763343609977     0.165164713998
    H            2.775522916057     0.801533991879    -0.995304922520
    C            0.894055938545     1.740110575554    -0.643826360386
    H           -0.307120506054    -1.730442316393     0.478930397835
    C           -0.838406389261     0.314893703950     0.171135602760
    H            1.238473954932     2.705335729067    -0.960912141271
    C           -0.412156791218     1.569140149500    -0.229028119846
    C           -2.245311292706     0.135587584136     0.615775627226
    H           -1.091512504815     2.400068615977    -0.218399064906
    O           -2.711989044092    -0.888553075621     0.979958764033
    H           -2.853091746221     1.045457252297     0.586464627899

  Mulliken Charges: (a.u.)
   Center  Symbol    Alpha    Beta     Spin     Total
       1     H     0.38662  0.38662  0.00000  0.22676
       2     O     4.17207  4.17207  0.00000 -0.34415
       3     C     2.84574  2.84574  0.00000  0.30852
       4     C     3.12360  3.12360  0.00000 -0.24720
       5     C     3.11862  3.11862  0.00000 -0.23724
       6     H     0.42907  0.42907  0.00000  0.14185
       7     C     3.06341  3.06341  0.00000 -0.12681
       8     H     0.40444  0.40444  0.00000  0.19113
       9     C     2.97116  2.97116  0.00000  0.05768
      10     H     0.41936  0.41936  0.00000  0.16128
      11     C     3.10829  3.10829  0.00000 -0.21657
      12     C     2.90901  2.90901  0.00000  0.18198
      13     H     0.42315  0.42315  0.00000  0.15369
      14     O     4.16895  4.16895  0.00000 -0.33790
      15     H     0.45651  0.45651  0.00000  0.08698

   Total alpha = 32.00000, Total beta = 32.00000, Total charge =  0.00000

*** Psi4 exiting successfully. Buy a developer a beer!
