                              Psi4 1.0.54 Driver

  ==> Input File <==

--------------------------------------------------------------------------
set {
	reference rhf
	basis cc-pvtz
}

set_num_threads( 4 )
memory 2 gb

molecule MOL {
0 1

H	 0.749512	 -0.012975	 2.377181
C	 -0.214900	 -0.014290	 1.890746
O	 0.000000	 0.000000	 0.518769
H	 -0.761475	 -0.903056	 2.199303
H	 -0.772298	 0.861712	 2.215989
C	 -1.165153	 0.000000	 -0.236961
H	 -1.229451	 0.882440	 -0.870223
H	 -2.002557	 0.000000	 0.445289
H	 -1.229451	 -0.882440	 -0.870223

	symmetry c1
}
set optking {
	frozen_dihedral = ("
		2 3 6 7
	")
}

ee,wfn = optimize('scf', return_wfn=True)
oeprop( wfn, 'DIPOLE', 'QUADRUPOLE', 'MULLIKEN_CHARGES')
f=open( 'psi4out.xyz', 'w' )
f.write( "9  " )
f.write( str(ee) + "\n" )
f.write( MOL.save_string_xyz() )
f.close()
--------------------------------------------------------------------------

    Molecular point group: c1
  Charge       = 0
  Multiplicity = 1
  Basis Set: CC-PVTZ
  Basis Set:
  @DF-RHF Final Energy:  -154.12233579081794
    Total Energy =                       -154.1223357908179139
    Molecular point group: c1
  Basis Set: CC-PVTZ
  Basis Set:
  Basis Set: CC-PVTZ
  Basis Set:
  @DF-RHF Final Energy:  -154.12314605838299
    Total Energy =                       -154.1231460583830710
  Basis Set: CC-PVTZ
  Basis Set:
  Basis Set: CC-PVTZ
  Basis Set:
  @DF-RHF Final Energy:  -154.12344273938226
    Total Energy =                       -154.1234427393822273
  Basis Set: CC-PVTZ
  Basis Set:
  Charge       = 0
  Multiplicity = 1
  Basis Set: CC-PVTZ
  Basis Set:

    Orbital Energies (a.u.)
    -----------------------

    Doubly Occupied:

       1A    -20.546518     2A    -11.263601     3A    -11.262602
       4A     -1.377647     5A     -0.975850     6A     -0.872575
       7A     -0.658618     8A     -0.654931     9A     -0.644723
      10A     -0.559084    11A     -0.527793    12A     -0.475249
      13A     -0.414657

  @DF-RHF Final Energy:  -154.12344533798844

   => Energetics <=

    Nuclear Repulsion Energy =             84.5755742599844496
    One-Electron Energy =                -376.9303432851460798
    Two-Electron Energy =                 138.2313236871731306
    DFT Exchange-Correlation Energy =       0.0000000000000000
    Empirical Dispersion Energy =           0.0000000000000000
    PCM Polarization Energy =               0.0000000000000000
    EFP Energy =                            0.0000000000000000
    Total Energy =                       -154.1234453379885281
    Molecular point group: c1
  Basis Set: CC-PVTZ
  Basis Set:

  -Total Gradient:
     Atom            X                  Y                   Z
    ------   -----------------  -----------------  -----------------
       1        0.000004093690    -0.000001374253    -0.000010411067
       2       -0.000004531609    -0.000026964157     0.000115794375
       3       -0.000168638102     0.000113292959    -0.000238648001
       4        0.000003009895     0.000017499304    -0.000048323408
       5        0.000004378419    -0.000020326288    -0.000036830831
       6        0.000096636708    -0.000054909051     0.000280323614
       7        0.000106059929    -0.000036166582    -0.000001300837
       8       -0.000036725606     0.000002663810    -0.000027989180
       9       -0.000004283322     0.000006284257    -0.000032614664

  **** Optimization is complete! (in 4 steps) ****
    Final optimized geometry and variables:
    Molecular point group: c1

    Geometry (in Angstrom), charge = 0, multiplicity = 1:

    H            1.257000438690    -0.008458342742     1.628509279186
    C            0.279271986136    -0.005930843931     1.168445965906
    O            0.462265301686     0.001132994979    -0.209116590989
    H           -0.261631353591    -0.890208628367     1.497554214607
    H           -0.261392668340     0.874988336602     1.506870724118
    C           -0.701491583254     0.004903263316    -0.977875343613
    H           -0.726781137721     0.891488704899    -1.601242477931
    H           -1.595557087419    -0.004585960842    -0.362810755969
    H           -0.720827577262    -0.868970335725    -1.619140684628

  Mulliken Charges: (a.u.)
   Center  Symbol    Alpha    Beta     Spin     Total
       1     H     0.44986  0.44986  0.00000  0.10029
       2     C     3.02076  3.02076  0.00000 -0.04152
       3     O     4.17297  4.17297  0.00000 -0.34594
       4     H     0.47305  0.47305  0.00000  0.05390
       5     H     0.47307  0.47307  0.00000  0.05387
       6     C     3.01609  3.01609  0.00000 -0.03218
       7     H     0.45985  0.45985  0.00000  0.08031
       8     H     0.47465  0.47465  0.00000  0.05069
       9     H     0.45970  0.45970  0.00000  0.08059

   Total alpha = 13.00000, Total beta = 13.00000, Total charge =  0.00000

*** Psi4 exiting successfully. Buy a developer a beer!
