  ==> Input File <==

--------------------------------------------------------------------------
set {
	reference rhf
	basis cc-pvtz
}

set_num_threads( 4 )
memory 2 gb

molecule MOL {
0 1

H	 -1.835082	 1.385983	 0.000069
C	 -1.300516	 0.441153	 -0.000028
O	 -0.006604	 0.654344	 -0.000106
O	 -1.828920	 -0.612308	 0.000113
C	 0.646981	 0.761898	 -1.261487
C	 2.114840	 1.003362	 -1.001128
H	 0.201330	 1.574369	 -1.817585
H	 0.485078	 -0.150472	 -1.817662
H	 2.261598	 1.917696	 -0.440392
H	 2.642445	 1.090188	 -1.943438
H	 2.546770	 0.184193	 -0.440442

	symmetry c1
}
set optking {
	frozen_dihedral = ("
		5 3 2 4
	")
}

ee = optimize('scf')
oeprop('DIPOLE', 'QUADRUPOLE', 'MULLIKEN_CHARGES')
f=open( 'psi4out.xyz', 'w' )
f.write( "11  " )
f.write( str(ee) + "\n" )
f.write( MOL.save_string_xyz() )
f.close()
--------------------------------------------------------------------------

    Molecular point group: c1
  Charge       = 0
  Multiplicity = 1
  Basis Set: CC-PVTZ
  Basis Set:
  @DF-RHF Final Energy:  -266.91185083247802
    Total Energy =                       -266.9118508324781374
    Molecular point group: c1
  Basis Set: CC-PVTZ
  Basis Set:
  Basis Set: CC-PVTZ
  Basis Set:
  @DF-RHF Final Energy:  -266.91189879373189
    Total Energy =                       -266.9118987937320640
  Basis Set: CC-PVTZ
  Basis Set:
  Basis Set: CC-PVTZ
  Basis Set:
  @DF-RHF Final Energy:  -266.91294534035274
    Total Energy =                       -266.9129453403527918
  Basis Set: CC-PVTZ
  Basis Set:
  Basis Set: CC-PVTZ
  Basis Set:
  @DF-RHF Final Energy:  -266.91313589544927
    Total Energy =                       -266.9131358954493862
  Basis Set: CC-PVTZ
  Basis Set:
  Basis Set: CC-PVTZ
  Basis Set:
  @DF-RHF Final Energy:  -266.91314038161437
    Total Energy =                       -266.9131403816145394
  Basis Set: CC-PVTZ
  Basis Set:
  Charge       = 0
  Multiplicity = 1
  Basis Set: CC-PVTZ
  Basis Set:

    Orbital Energies (a.u.)
    -----------------------

    Doubly Occupied:

       1A    -20.585458     2A    -20.560713     3A    -11.373824
       4A    -11.299720     5A    -11.227024     6A     -1.470188
       7A     -1.382148     8A     -1.049816     9A     -0.888633
      10A     -0.828368    11A     -0.743468    12A     -0.693226
      13A     -0.649601    14A     -0.641763    15A     -0.564426
      16A     -0.542626    17A     -0.536403    18A     -0.507652
      19A     -0.467520    20A     -0.456783

  @DF-RHF Final Energy:  -266.91314113214895

   => Energetics <=

    Nuclear Repulsion Energy =            177.4091478190633211
    One-Electron Energy =                -715.7058608837272686
    Two-Electron Energy =                 271.3835719325149967
    DFT Exchange-Correlation Energy =       0.0000000000000000
    Empirical Dispersion Energy =           0.0000000000000000
    PCM Polarization Energy =               0.0000000000000000
    EFP Energy =                            0.0000000000000000
    Total Energy =                       -266.9131411321488940
    Molecular point group: c1
  Basis Set: CC-PVTZ
  Basis Set:

  -Total Gradient:
     Atom            X                  Y                   Z
    ------   -----------------  -----------------  -----------------
       1        0.000018355952    -0.000023504028     0.000024835787
       2       -0.000046310451     0.000052147231    -0.001114549317
       3        0.000122308017    -0.000681094957     0.000348332185
       4       -0.000022916523     0.000117980166     0.000712609600
       5       -0.000119873948     0.000512064116     0.000129006511
       6        0.000040527881     0.000015279840    -0.000059089786
       7        0.000028048075    -0.000004067990    -0.000032356035
       8       -0.000030171708     0.000020356670    -0.000007476532
       9       -0.000008980753    -0.000003190918    -0.000000613217
      10        0.000028724976    -0.000005448193     0.000000062787
      11       -0.000009711518    -0.000000521939    -0.000000761981

  **** Optimization is complete! (in 6 steps) ****
    Final optimized geometry and variables:
    Molecular point group: c1

    Geometry (in Angstrom), charge = 0, multiplicity = 1:

    H           -1.816424869365     0.927964920039     0.481034472615
    C           -1.244857477399     0.001180075630     0.448936894425
    O            0.076676145786     0.201905124382     0.470761401804
    O           -1.751682237183    -1.054418677341     0.432537115906
    C            0.722071692261     0.307423171880    -0.791399387563
    C            2.192264581157     0.552152092454    -0.550920153418
    H            0.282362048155     1.126233338421    -1.353231125073
    H            0.563294552643    -0.610322405256    -1.343788059377
    H            2.340978010062     1.469287117983     0.004224393017
    H            2.711275575285     0.633010520186    -1.498668164703
    H            2.623878860398    -0.265031123602     0.011779621402

  Mulliken Charges: (a.u.)
   Center  Symbol    Alpha    Beta     Spin     Total
       1     H     0.46493  0.46493  0.00000  0.07015
       2     C     2.83828  2.83828  0.00000  0.32343
       3     O     4.15959  4.15959  0.00000 -0.31918
       4     O     4.16362  4.16362  0.00000 -0.32723
       5     C     2.96757  2.96757  0.00000  0.06486
       6     C     3.13401  3.13401  0.00000 -0.26802
       7     H     0.46608  0.46608  0.00000  0.06785
       8     H     0.45445  0.45445  0.00000  0.09110
       9     H     0.44963  0.44963  0.00000  0.10074
      10     H     0.45588  0.45588  0.00000  0.08825
      11     H     0.44597  0.44597  0.00000  0.10806

   Total alpha = 20.00000, Total beta = 20.00000, Total charge = -0.00000
