                              Psi4 1.0.54 Driver

  ==> Input File <==

--------------------------------------------------------------------------
set {
	reference rhf
	basis cc-pvtz
}

set_num_threads( 4 )
memory 2 gb

molecule MOL {
0 1

H	 2.828711	 -0.346904	 0.001083
C	 1.876752	 0.015931	 -0.363450
C	 0.776285	 -0.474665	 0.563092
H	 1.728113	 -0.357244	 -1.367440
H	 1.906171	 1.096574	 -0.386153
N	 -0.540022	 0.017605	 0.071630
H	 0.707111	 -1.548969	 0.573035
H	 0.886169	 -0.084184	 1.560432
O	 -0.564556	 0.521920	 -1.000405
O	 -1.468743	 -0.102602	 0.797869

	symmetry c1
}
set optking {
	frozen_dihedral = ("
		9 6 3 2
	")
}

ee,wfn = optimize('scf', return_wfn=True)
oeprop( wfn, 'DIPOLE', 'QUADRUPOLE', 'MULLIKEN_CHARGES')
f=open( 'psi4out.xyz', 'w' )
f.write( "10  " )
f.write( str(ee) + "\n" )
f.write( MOL.save_string_xyz() )
f.close()
--------------------------------------------------------------------------

    Molecular point group: c1
  Charge       = 0
  Multiplicity = 1
  Basis Set: CC-PVTZ
  Basis Set:
  @DF-RHF Final Energy:  -282.81102997541910
    Total Energy =                       -282.8110299754192170
    Molecular point group: c1
  Basis Set: CC-PVTZ
  Basis Set:
  Basis Set: CC-PVTZ
  Basis Set:
  @DF-RHF Final Energy:  -282.80950330400287
    Total Energy =                       -282.8095033040028738
  Basis Set: CC-PVTZ
  Basis Set:
  Basis Set: CC-PVTZ
  Basis Set:
  @DF-RHF Final Energy:  -282.75721685291876
    Total Energy =                       -282.7572168529188161
  Basis Set: CC-PVTZ
  Basis Set:
  Basis Set: CC-PVTZ
  Basis Set:
  @DF-RHF Final Energy:  -282.80816955650221
    Total Energy =                       -282.8081695565022073
  Basis Set: CC-PVTZ
  Basis Set:
  @DF-RHF Final Energy:  -282.46670964927461
    Total Energy =                       -282.4667096492744918
  @DF-RHF Final Energy:  -282.63658950845877
    Total Energy =                       -282.6365895084588260
  @DF-RHF Final Energy:  -282.77962486788658
    Total Energy =                       -282.7796248678864117
  @DF-RHF Final Energy:  -282.81027423582782
    Total Energy =                       -282.8102742358278192
  @DF-RHF Final Energy:  -282.58114314747206
    Total Energy =                       -282.5811431474720621
  @DF-RHF Final Energy:  -282.77622836809667
    Total Energy =                       -282.7762283680966675
  @DF-RHF Final Energy:  -282.81054939879795
    Total Energy =                       -282.8105493987979457
  @DF-RHF Final Energy:  -282.81021726411177
    Total Energy =                       -282.8102172641115999
  Basis Set: CC-PVTZ
  Basis Set:
  @DF-RHF Final Energy:  -282.81273467614028
    Total Energy =                       -282.8127346761401100
  Basis Set: CC-PVTZ
  Basis Set:
  Basis Set: CC-PVTZ
  Basis Set:
  @DF-RHF Final Energy:  -282.81287150824949
    Total Energy =                       -282.8128715082493727
  Basis Set: CC-PVTZ
  Basis Set:
  Basis Set: CC-PVTZ
  Basis Set:
  @DF-RHF Final Energy:  -282.81288647538776
    Total Energy =                       -282.8128864753877565
  Basis Set: CC-PVTZ
  Basis Set:
  Charge       = 0
  Multiplicity = 1
  Basis Set: CC-PVTZ
  Basis Set:

    Orbital Energies (a.u.)
    -----------------------

    Doubly Occupied:

       1A    -20.594960     2A    -20.588813     3A    -15.839661
       4A    -11.303282     5A    -11.243575     6A     -1.638668
       7A     -1.422944     8A     -1.123898     9A     -0.966901
      10A     -0.834864    11A     -0.762643    12A     -0.753749
      13A     -0.732230    14A     -0.638466    15A     -0.595017
      16A     -0.564091    17A     -0.538765    18A     -0.490395
      19A     -0.479931    20A     -0.455203

  @DF-RHF Final Energy:  -282.81288738777482

   => Energetics <=

    Nuclear Repulsion Energy =            186.5756831221056018
    One-Electron Energy =                -755.6410311958258035
    Two-Electron Energy =                 286.2524606859451524
    DFT Exchange-Correlation Energy =       0.0000000000000000
    Empirical Dispersion Energy =           0.0000000000000000
    PCM Polarization Energy =               0.0000000000000000
    EFP Energy =                            0.0000000000000000
    Total Energy =                       -282.8128873877750493
    Molecular point group: c1
  Basis Set: CC-PVTZ
  Basis Set:

  -Total Gradient:
     Atom            X                  Y                   Z
    ------   -----------------  -----------------  -----------------
       1       -0.000014940724    -0.000006359532     0.000005165888
       2        0.000042909070    -0.000001055258    -0.000039677209
       3       -0.000042893924     0.000014670680     0.000065838558
       4       -0.000032582339    -0.000001976675    -0.000000213025
       5       -0.000001459029    -0.000002099235    -0.000003632850
       6       -0.000081574922     0.000035028490    -0.000129121820
       7        0.000004183057    -0.000041790448     0.000000452503
       8        0.000033094671    -0.000001489184    -0.000009368018
       9       -0.000024624639     0.000026478477     0.000047197283
      10        0.000117888779    -0.000021407314     0.000063358687

  **** Optimization is complete! (in 16 steps) ****
    Final optimized geometry and variables:
    Molecular point group: c1

    Geometry (in Angstrom), charge = 0, multiplicity = 1:

    H            1.222959460134    -2.275908851458     1.272833064507
    C            1.147141353257    -1.224459048892     1.023502737789
    C           -0.061344306820    -1.037239545974     0.136217488746
    H            2.054964320409    -0.920142466662     0.525058747169
    H            1.053655921623    -0.659870138598     1.940215288700
    N           -0.292339760759     0.383208334888    -0.269550994769
    H            0.023987152831    -1.570332511789    -0.799337603183
    H           -0.982818582160    -1.338437787274     0.607796497068
    O            0.546386288234     1.183958802410    -0.035428784947
    O           -1.317571985840     0.603603984355    -0.822119911233

  Mulliken Charges: (a.u.)
   Center  Symbol    Alpha    Beta     Spin     Total
       1     H     0.44934  0.44934  0.00000  0.10132
       2     C     3.13838  3.13838  0.00000 -0.27676
       3     C     3.04371  3.04371  0.00000 -0.08741
       4     H     0.44029  0.44029  0.00000  0.11942
       5     H     0.44296  0.44296  0.00000  0.11409
       6     N     3.27618  3.27618  0.00000  0.44764
       7     H     0.43407  0.43407  0.00000  0.13186
       8     H     0.43224  0.43224  0.00000  0.13553
       9     O     4.16940  4.16940  0.00000 -0.33881
      10     O     4.17344  4.17344  0.00000 -0.34689

   Total alpha = 20.00000, Total beta = 20.00000, Total charge = -0.00000

*** Psi4 exiting successfully. Buy a developer a beer!
