  ==> Input File <==

--------------------------------------------------------------------------
set {
	reference rhf
	basis 6-31G*
}

set_num_threads( 4 )
memory 2 gb

molecule MOL {
0 1

H	 -2.609128	 -1.039727	 -0.116918
O	 -2.315789	 -0.143634	 -0.024262
C	 -0.945151	 -0.064130	 -0.333158
H	 -0.813375	 -0.223047	 -1.403232
C	 -0.232801	 -1.184051	 0.407206
C	 -0.355424	 1.302939	 0.054523
H	 -0.318824	 -0.992899	 1.473524
H	 -0.742411	 -2.122033	 0.217954
C	 1.248522	 -1.270719	 -0.013048
H	 -0.546144	 2.018388	 -0.742941
H	 -0.890929	 1.656788	 0.930149
C	 1.156425	 1.235120	 0.355905
H	 1.825384	 -1.683246	 0.809111
H	 1.357782	 -1.965923	 -0.840362
C	 1.828244	 0.099899	 -0.419275
H	 1.626109	 2.185622	 0.123525
H	 1.309438	 1.071213	 1.419539
H	 2.901447	 0.112642	 -0.255830
H	 1.681817	 0.263413	 -1.484607

	symmetry c1
}
set optking {
	frozen_dihedral = ("
		1 2 3 4
	")
}

ee = optimize('scf')
oeprop('DIPOLE', 'QUADRUPOLE', 'MULLIKEN_CHARGES')
f=open( 'psi4out.xyz', 'w' )
f.write( "19  " )
f.write( str(ee) + "\n" )
f.write( MOL.save_string_xyz() )
f.close()
--------------------------------------------------------------------------

    Molecular point group: c1
  Charge       = 0
  Multiplicity = 1
  Basis Set: 6-31G*
  Basis Set:
  @DF-RHF Final Energy:  -309.04638071282926
    Total Energy =                       -309.0463807128294320
    Molecular point group: c1
  Basis Set: 6-31G*
  Basis Set:
  Basis Set: 6-31G*
  Basis Set:
  @DF-RHF Final Energy:  -309.04826720098987
    Total Energy =                       -309.0482672009901535
  Basis Set: 6-31G*
  Basis Set:
  Basis Set: 6-31G*
  Basis Set:
  @DF-RHF Final Energy:  -309.04858740103356
    Total Energy =                       -309.0485874010333873
  Basis Set: 6-31G*
  Basis Set:
  Basis Set: 6-31G*
  Basis Set:
  @DF-RHF Final Energy:  -309.04859413915386
    Total Energy =                       -309.0485941391535789
  Basis Set: 6-31G*
  Basis Set:
  Charge       = 0
  Multiplicity = 1
  Basis Set: 6-31G*
  Basis Set:

    Orbital Energies (a.u.)
    -----------------------

    Doubly Occupied:

       1A    -20.549904     2A    -11.268988     3A    -11.219260
       4A    -11.216385     5A    -11.215904     6A    -11.214812
       7A    -11.208302     8A     -1.359019     9A     -1.109222
      10A     -1.002996    11A     -0.988419    12A     -0.849181
      13A     -0.830899    14A     -0.734751    15A     -0.701067
      16A     -0.657517    17A     -0.616200    18A     -0.611405
      19A     -0.570468    20A     -0.545064    21A     -0.529291
      22A     -0.520916    23A     -0.498741    24A     -0.485329
      25A     -0.466775    26A     -0.448938    27A     -0.427551
      28A     -0.412592

  @DF-RHF Final Energy:  -309.04859488484709

   => Energetics <=

    Nuclear Repulsion Energy =            331.4671626951267740
    One-Electron Energy =               -1076.5117246719451032
    Two-Electron Energy =                 435.9959670919710675
    DFT Exchange-Correlation Energy =       0.0000000000000000
    Empirical Dispersion Energy =           0.0000000000000000
    PCM Polarization Energy =               0.0000000000000000
    EFP Energy =                            0.0000000000000000
    Total Energy =                       -309.0485948848473186
    Molecular point group: c1
  Basis Set: 6-31G*
  Basis Set:

  -Total Gradient:
     Atom            X                  Y                   Z
    ------   -----------------  -----------------  -----------------
       1        0.000313477417    -0.000315297239     0.001439108794
       2       -0.000386235247     0.000688754518    -0.001826831692
       3        0.000079594781    -0.001664892665     0.000622435446
       4       -0.000013039842     0.001299321417    -0.000166456954
       5       -0.000039499145     0.000015180183    -0.000045578309
       6        0.000017112315     0.000011108083    -0.000025716759
       7        0.000001634792     0.000000879116    -0.000009171122
       8        0.000001216661     0.000006195472    -0.000000675950
       9        0.000027021924     0.000007112345     0.000008742533
      10       -0.000007725939     0.000010625938    -0.000001617287
      11       -0.000010645803    -0.000033389482    -0.000004664364
      12        0.000017547148     0.000015183905    -0.000013336718
      13        0.000023357218    -0.000003576837     0.000011879533
      14        0.000001918793    -0.000000583508     0.000010959257
      15       -0.000020008737    -0.000021488271     0.000003055970
      16       -0.000003596771     0.000000855452     0.000002916192
      17       -0.000000318048    -0.000003587669    -0.000001190849
      18       -0.000001846188    -0.000024022891    -0.000005620677
      19        0.000000034682     0.000011622138     0.000001762956

  **** Optimization is complete! (in 5 steps) ****
    Final optimized geometry and variables:
    Molecular point group: c1

    Geometry (in Angstrom), charge = 0, multiplicity = 1:

    H           -2.689158386838    -0.912505371302    -0.136880081626
    O           -2.321288423601    -0.046334723199    -0.028478735567
    C           -0.947272213080    -0.078147526497    -0.330453547759
    H           -0.823866407861    -0.230498485752    -1.402479397589
    C           -0.213626113837    -1.191261275210     0.409239958476
    C           -0.371408559764     1.293194938717     0.044494894802
    H           -0.295513812184    -1.000698131577     1.476077443444
    H           -0.701007426484    -2.147300467137     0.228509992320
    C            1.265901521066    -1.264675741720    -0.020374898197
    H           -0.569337338760     1.992111397693    -0.762198531234
    H           -0.917902745406     1.652237335907     0.909651943763
    C            1.138330461583     1.237910906594     0.353694021344
    H            1.850975705483    -1.675260367232     0.796879236954
    H            1.376106730507    -1.955380218534    -0.851223170227
    C            1.827492969995     0.114555256774    -0.423346253458
    H            1.598550083324     2.194377812360     0.127016512659
    H            1.290508220105     1.071881230580     1.417479633502
    H            2.900222954862     0.139510007713    -0.258605677170
    H            1.679445766205     0.278367969667    -1.488201472054

  Mulliken Charges: (a.u.)
   Center  Symbol    Alpha    Beta     Spin     Total
       1     H     0.28300  0.28300  0.00000  0.43399
       2     O     4.37989  4.37989  0.00000 -0.75978
       3     C     2.90370  2.90370  0.00000  0.19259
       4     H     0.42992  0.42992  0.00000  0.14016
       5     C     3.17926  3.17926  0.00000 -0.35852
       6     C     3.16308  3.16308  0.00000 -0.32617
       7     H     0.41437  0.41437  0.00000  0.17125
       8     H     0.42429  0.42429  0.00000  0.15143
       9     C     3.15946  3.15946  0.00000 -0.31892
      10     H     0.41606  0.41606  0.00000  0.16787
      11     H     0.40793  0.40793  0.00000  0.18413
      12     C     3.16549  3.16549  0.00000 -0.33097
      13     H     0.41726  0.41726  0.00000  0.16548
      14     H     0.41883  0.41883  0.00000  0.16235
      15     C     3.16393  3.16393  0.00000 -0.32786
      16     H     0.41619  0.41619  0.00000  0.16763
      17     H     0.42006  0.42006  0.00000  0.15988
      18     H     0.41649  0.41649  0.00000  0.16702
      19     H     0.42078  0.42078  0.00000  0.15844

   Total alpha = 28.00000, Total beta = 28.00000, Total charge =  0.00000
