  ==> Input File <==

--------------------------------------------------------------------------
set {
	reference rhf
	basis 6-31G*
}

set_num_threads( 4 )
memory 2 gb

molecule MOL {
0 1

H	 2.672229	 -0.791644	 -0.146885
O	 1.985843	 -0.217557	 -0.455086
C	 1.135793	 0.118896	 0.612333
C	 0.031547	 1.023609	 0.088541
H	 1.689565	 0.642451	 1.389582
H	 0.715790	 -0.777625	 1.062831
C	 -1.134819	 0.293262	 -0.585751
H	 0.474374	 1.714721	 -0.623187
H	 -0.338529	 1.620940	 0.920081
C	 -1.917817	 -0.639439	 0.339494
H	 -0.758119	 -0.268455	 -1.433105
H	 -1.813832	 1.041889	 -0.986690
H	 -2.777680	 -1.057197	 -0.174994
H	 -1.310268	 -1.471279	 0.680599
H	 -2.283753	 -0.111424	 1.216626

	symmetry c1
}
set optking {
	frozen_dihedral = ("
		2 3 4 8
	")
}

ee = optimize('scf')
oeprop('DIPOLE', 'QUADRUPOLE', 'MULLIKEN_CHARGES')
f=open( 'psi4out.xyz', 'w' )
f.write( "15  " )
f.write( str(ee) + "\n" )
f.write( MOL.save_string_xyz() )
f.close()
--------------------------------------------------------------------------

    Molecular point group: c1
  Charge       = 0
  Multiplicity = 1
  Basis Set: 6-31G*
  Basis Set:
  @DF-RHF Final Energy:  -232.14154646932556
    Total Energy =                       -232.1415464693256467
    Molecular point group: c1
  Basis Set: 6-31G*
  Basis Set:
  Basis Set: 6-31G*
  Basis Set:
  @DF-RHF Final Energy:  -232.14193285073745
    Total Energy =                       -232.1419328507377031
  Basis Set: 6-31G*
  Basis Set:
  Basis Set: 6-31G*
  Basis Set:
  @DF-RHF Final Energy:  -232.14221608239933
    Total Energy =                       -232.1422160823991021
  Basis Set: 6-31G*
  Basis Set:
  Basis Set: 6-31G*
  Basis Set:
  @DF-RHF Final Energy:  -232.14223341802312
    Total Energy =                       -232.1422334180230109
  Basis Set: 6-31G*
  Basis Set:
  Charge       = 0
  Multiplicity = 1
  Basis Set: 6-31G*
  Basis Set:

    Orbital Energies (a.u.)
    -----------------------

    Doubly Occupied:

       1A    -20.552626     2A    -11.267418     3A    -11.211949
       4A    -11.211161     5A    -11.207422     6A     -1.358916
       7A     -1.064836     8A     -0.970268     9A     -0.867913
      10A     -0.778213    11A     -0.704418    12A     -0.646854
      13A     -0.604936    14A     -0.578628    15A     -0.560796
      16A     -0.535348    17A     -0.508784    18A     -0.474443
      19A     -0.470744    20A     -0.452976    21A     -0.429174

  @DF-RHF Final Energy:  -232.14223421191832

   => Energetics <=

    Nuclear Repulsion Energy =            190.0842562788693613
    One-Electron Energy =                -691.5373406851508662
    Two-Electron Energy =                 269.3108501943629562
    DFT Exchange-Correlation Energy =       0.0000000000000000
    Empirical Dispersion Energy =           0.0000000000000000
    PCM Polarization Energy =               0.0000000000000000
    EFP Energy =                            0.0000000000000000
    Total Energy =                       -232.1422342119185487
    Molecular point group: c1
  Basis Set: 6-31G*
  Basis Set:

  -Total Gradient:
     Atom            X                  Y                   Z
    ------   -----------------  -----------------  -----------------
       1        0.000017816160    -0.000010879375    -0.000024343493
       2        0.001739508076     0.002514927902     0.000774477482
       3       -0.002319590583    -0.003762730334    -0.001555101731
       4        0.001307036332     0.003850658090     0.004000856543
       5        0.000097673992    -0.000066516389    -0.000034907856
       6        0.000022150393     0.000033565469     0.000020645717
       7       -0.000019411654    -0.000020052376    -0.000074198997
       8       -0.000690635558    -0.002550623021    -0.003016194715
       9       -0.000036303162     0.000053177252    -0.000036695845
      10       -0.000053329101     0.000021213896    -0.000011256306
      11       -0.000019254702     0.000019954222    -0.000094975356
      12       -0.000044032486    -0.000062760436     0.000017882694
      13        0.000017703461    -0.000015890434     0.000025522418
      14        0.000004198251     0.000017755689     0.000002984677
      15       -0.000023529424    -0.000021800154     0.000005304770

  **** Optimization is complete! (in 5 steps) ****
    Final optimized geometry and variables:
    Molecular point group: c1

    Geometry (in Angstrom), charge = 0, multiplicity = 1:

    H            2.599598826547    -0.850516909388    -0.285178755228
    O            1.918939565123    -0.234777803563    -0.516613288669
    C            1.101915907120     0.011192323478     0.601970527472
    C           -0.051042993864     0.901562020993     0.155057067857
    H            1.677622251171     0.516338481547     1.375462931959
    H            0.738652727869    -0.921327731860     1.026659579760
    C           -1.177777544846     0.152917617106    -0.570312703678
    H            0.366984614508     1.630080661021    -0.532118327505
    H           -0.453232038578     1.438413976193     1.010629023585
    C           -2.054537135193    -0.706600949157     0.342413549958
    H           -0.743257254479    -0.462161977718    -1.353125493477
    H           -1.810564312005     0.881694224071    -1.070320148767
    H           -2.843721924486    -1.191043714672    -0.224313588271
    H           -1.487179168553    -1.488319392431     0.837883475935
    H           -2.525813760070    -0.102460530326     1.113207384304

  Mulliken Charges: (a.u.)
   Center  Symbol    Alpha    Beta     Spin     Total
       1     H     0.28110  0.28110  0.00000  0.43780
       2     O     4.37070  4.37070  0.00000 -0.74140
       3     C     2.99849  2.99849  0.00000  0.00302
       4     C     3.16138  3.16138  0.00000 -0.32276
       5     H     0.42930  0.42930  0.00000  0.14139
       6     H     0.43071  0.43071  0.00000  0.13858
       7     C     3.15771  3.15771  0.00000 -0.31541
       8     H     0.40851  0.40851  0.00000  0.18298
       9     H     0.42329  0.42329  0.00000  0.15342
      10     C     3.24155  3.24155  0.00000 -0.48309
      11     H     0.41164  0.41164  0.00000  0.17673
      12     H     0.42093  0.42093  0.00000  0.15813
      13     H     0.41858  0.41858  0.00000  0.16284
      14     H     0.42297  0.42297  0.00000  0.15406
      15     H     0.42315  0.42315  0.00000  0.15370

   Total alpha = 21.00000, Total beta = 21.00000, Total charge =  0.00000
