  ==> Input File <==

--------------------------------------------------------------------------
set {
	reference rhf
	basis 6-31G*
}

set_num_threads( 4 )
memory 2 gb

molecule MOL {
0 1

O	 0.986664	 0.274161	 -0.931987
C	 1.705091	 0.115954	 0.001797
C	 1.595121	 0.831865	 1.325899
O	 2.721346	 -0.737485	 -0.000216
C	 0.439081	 1.825794	 1.383518
H	 1.501126	 0.073352	 2.098258
H	 2.546640	 1.323552	 1.509135
C	 0.350659	 2.535490	 2.735395
H	 -0.490905	 1.304852	 1.178741
H	 0.556199	 2.556975	 0.589814
C	 -0.804221	 3.535686	 2.811022
H	 0.236915	 1.796750	 3.527431
H	 1.287019	 3.054002	 2.936037
C	 -0.891316	 4.245362	 4.161587
H	 -1.740635	 3.018778	 2.613346
H	 -0.691535	 4.274805	 2.020994
H	 -1.039072	 3.534405	 4.969623
H	 -1.718955	 4.947479	 4.183894
H	 0.018628	 4.800080	 4.372773
C	 4.024888	 -0.184556	 -0.001949
H	 4.179030	 0.422472	 -0.882452
H	 4.701782	 -1.024608	 -0.003642
H	 4.181981	 0.421185	 0.878906

	symmetry c1
}
set optking {
	frozen_dihedral = ("
		1 2 4 20
	")
}

ee = optimize('scf')
oeprop('DIPOLE', 'QUADRUPOLE', 'MULLIKEN_CHARGES')
f=open( 'psi4out.xyz', 'w' )
f.write( "23  " )
f.write( str(ee) + "\n" )
f.write( MOL.save_string_xyz() )
f.close()
--------------------------------------------------------------------------

    Molecular point group: c1
  Charge       = 0
  Multiplicity = 1
  Basis Set: 6-31G*
  Basis Set:
  @DF-RHF Final Energy:  -422.95200450292788
    Total Energy =                       -422.9520045029274797
    Molecular point group: c1
  Basis Set: 6-31G*
  Basis Set:
  Basis Set: 6-31G*
  Basis Set:
  @DF-RHF Final Energy:  -422.95093771621669
    Total Energy =                       -422.9509377162166857
  Basis Set: 6-31G*
  Basis Set:
  Basis Set: 6-31G*
  Basis Set:
  @DF-RHF Final Energy:  -422.95384214805046
    Total Energy =                       -422.9538421480501711
  Basis Set: 6-31G*
  Basis Set:
  Basis Set: 6-31G*
  Basis Set:
  @DF-RHF Final Energy:  -422.95510965683337
    Total Energy =                       -422.9551096568333151
  Basis Set: 6-31G*
  Basis Set:
  Basis Set: 6-31G*
  Basis Set:
  @DF-RHF Final Energy:  -422.95517048737048
    Total Energy =                       -422.9551704873706512
  Basis Set: 6-31G*
  Basis Set:
  Basis Set: 6-31G*
  Basis Set:
  @DF-RHF Final Energy:  -422.95518278408548
    Total Energy =                       -422.9551827840856504
  Basis Set: 6-31G*
  Basis Set:
  Charge       = 0
  Multiplicity = 1
  Basis Set: 6-31G*
  Basis Set:

    Orbital Energies (a.u.)
    -----------------------

    Doubly Occupied:

       1A    -20.586942     2A    -20.555263     3A    -11.374887
       4A    -11.293765     5A    -11.241213     6A    -11.222741
       7A    -11.220919     8A    -11.218734     9A    -11.211601
      10A     -1.458505    11A     -1.367525    12A     -1.095313
      13A     -1.041496    14A     -0.981203    15A     -0.946615
      16A     -0.851827    17A     -0.798075    18A     -0.765388
      19A     -0.696576    20A     -0.677537    21A     -0.676491
      22A     -0.651324    23A     -0.620253    24A     -0.606467
      25A     -0.580103    26A     -0.568935    27A     -0.556923
      28A     -0.537908    29A     -0.510711    30A     -0.496447
      31A     -0.485064    32A     -0.480195    33A     -0.470940
      34A     -0.468214    35A     -0.449577    36A     -0.431914

  @DF-RHF Final Energy:  -422.95518377429039

   => Energetics <=

    Nuclear Repulsion Energy =            453.0516663252972194
    One-Electron Energy =               -1473.6185132991822684
    Two-Electron Energy =                 597.6116631995953412
    DFT Exchange-Correlation Energy =       0.0000000000000000
    Empirical Dispersion Energy =           0.0000000000000000
    PCM Polarization Energy =               0.0000000000000000
    EFP Energy =                            0.0000000000000000
    Total Energy =                       -422.9551837742897078
    Molecular point group: c1
  Basis Set: 6-31G*
  Basis Set:

  -Total Gradient:
     Atom            X                  Y                   Z
    ------   -----------------  -----------------  -----------------
       1        0.000386187769     0.000379476478    -0.000255281938
       2       -0.000529115667    -0.000642276281     0.000117964788
       3       -0.000004251134     0.000037269666    -0.000035162182
       4        0.000223163249     0.000250076877     0.000647682596
       5        0.000020462942    -0.000009597305     0.000010950547
       6        0.000001089792    -0.000013692339     0.000013280963
       7        0.000001614917    -0.000011466811     0.000029234718
       8        0.000002121141     0.000000963732    -0.000010984425
       9        0.000002757044     0.000010473294    -0.000002447127
      10        0.000004298141     0.000005613783    -0.000006180245
      11       -0.000004000248    -0.000013397745     0.000011225034
      12        0.000007644514     0.000002562599    -0.000001451717
      13       -0.000004828017     0.000006666632    -0.000000555085
      14       -0.000007669852     0.000005417383     0.000000759578
      15       -0.000001682232     0.000000967539    -0.000001337642
      16        0.000001760447    -0.000002953439     0.000003663282
      17       -0.000000926738     0.000001346826    -0.000002167857
      18       -0.000000764519     0.000005014953     0.000004853207
      19        0.000000231487    -0.000002697330     0.000000055223
      20       -0.000108328454    -0.000006060678    -0.000545433436
      21        0.000026226538     0.000011474854    -0.000002120170
      22       -0.000000637121    -0.000008774569     0.000009872854
      23       -0.000015353999    -0.000006408114     0.000013579040

  **** Optimization is complete! (in 7 steps) ****
    Final optimized geometry and variables:
    Molecular point group: c1

    Geometry (in Angstrom), charge = 0, multiplicity = 1:

    O           -0.131367123409    -1.057564729015    -2.158256631481
    C            0.592979699203    -1.210561356449    -1.237810428663
    C            0.466538571992    -0.479518387734     0.080260779491
    O            1.579634455020    -2.134325094367    -1.280838410300
    C           -0.717609868873     0.481597885956     0.134550883885
    H            0.395463980470    -1.236901553371     0.856923416508
    H            1.395447523880     0.051848396145     0.272130061084
    C           -0.825195050760     1.196187594645     1.482446137567
    H           -1.631384523313    -0.068343043342    -0.066112968603
    H           -0.622852086564     1.210833365995    -0.663916456680
    C           -2.011868836266     2.158703420751     1.555255773923
    H           -0.912952851046     0.458995028998     2.279114929449
    H            0.094188187331     1.746630892871     1.677717386403
    C           -2.119053366852     2.872614125315     2.902140728944
    H           -2.931134261137     1.610300501905     1.362704859396
    H           -1.925136813749     2.896625999614     0.760898647350
    H           -2.241844151806     2.161714836083     3.714404556632
    H           -2.969083488270     3.547376397849     2.922487206905
    H           -1.227341995405     3.458049017954     3.108210528932
    C            2.916742640507    -1.691901391813    -1.349500210220
    H            3.056025790645    -1.017476496002    -2.186535778516
    H            3.520325153605    -2.573149572164    -1.500490066194
    H            3.226665372303    -1.204366340072    -0.432352193964

  Mulliken Charges: (a.u.)
   Center  Symbol    Alpha    Beta     Spin     Total
       1     O     4.25100  4.25100  0.00000 -0.50200
       2     C     2.61141  2.61141  0.00000  0.77717
       3     C     3.21954  3.21954  0.00000 -0.43909
       4     O     4.31384  4.31384  0.00000 -0.62769
       5     C     3.15146  3.15146  0.00000 -0.30292
       6     H     0.39889  0.39889  0.00000  0.20222
       7     H     0.40746  0.40746  0.00000  0.18508
       8     C     3.15340  3.15340  0.00000 -0.30681
       9     H     0.40969  0.40969  0.00000  0.18061
      10     H     0.41175  0.41175  0.00000  0.17650
      11     C     3.15175  3.15175  0.00000 -0.30351
      12     H     0.42352  0.42352  0.00000  0.15297
      13     H     0.42512  0.42512  0.00000  0.14975
      14     C     3.23967  3.23967  0.00000 -0.47935
      15     H     0.42055  0.42055  0.00000  0.15890
      16     H     0.42121  0.42121  0.00000  0.15759
      17     H     0.42157  0.42157  0.00000  0.15685
      18     H     0.41797  0.41797  0.00000  0.16405
      19     H     0.42206  0.42206  0.00000  0.15587
      20     C     3.09276  3.09276  0.00000 -0.18552
      21     H     0.41335  0.41335  0.00000  0.17329
      22     H     0.40094  0.40094  0.00000  0.19813
      23     H     0.42105  0.42105  0.00000  0.15790

   Total alpha = 36.00000, Total beta = 36.00000, Total charge =  0.00000
