  ==> Input File <==

--------------------------------------------------------------------------
set {
	reference rhf
	basis 6-31G*
}

set_num_threads( 1 )
memory 2 gb

molecule MOL {
0 1

H	 -0.000158	 1.970498	 0.756846
O	 -0.000074	 1.880206	 -0.189275
C	 -0.000015	 0.544847	 -0.545111
C	 -1.278788	 -0.123820	 -0.051541
C	 1.278802	 -0.123718	 -0.051505
H	 -0.000001	 0.490777	 -1.623619
F	 -1.777399	 0.563334	 0.953821
F	 -2.198021	 -0.196980	 -0.990698
F	 -1.031755	 -1.350130	 0.380587
F	 2.323327	 0.466644	 -0.591854
F	 1.326242	 -1.401483	 -0.363667
F	 1.388946	 -0.015632	 1.262939

	symmetry c1
}
set optking {
	frozen_dihedral = ("
		6 3 2 1
	")
}

ee = energy('scf')
oeprop('DIPOLE', 'QUADRUPOLE', 'MULLIKEN_CHARGES')
f=open( 'psi4out.xyz', 'w' )
f.write( "12  " )
f.write( str(ee) + "\n" )
f.write( MOL.save_string_xyz() )
f.close()
--------------------------------------------------------------------------

    Molecular point group: c1

    Geometry (in Angstrom), charge = 0, multiplicity = 1:

       Center              X                  Y                   Z               Mass
    ------------   -----------------  -----------------  -----------------  -----------------
           H         -0.003694015534     1.974221951091     0.752729861590     1.007825032070
           O         -0.003610015534     1.883929951091    -0.193391138410    15.994914619560
           C         -0.003551015534     0.548570951091    -0.549227138410    12.000000000000
           C         -1.282324015534    -0.120096048909    -0.055657138410    12.000000000000
           C          1.275265984466    -0.119994048909    -0.055621138410    12.000000000000
           H         -0.003537015534     0.494500951091    -1.627735138410     1.007825032070
           F         -1.780935015534     0.567057951091     0.949704861590    18.998403224000
           F         -2.201557015534    -0.193256048909    -0.994814138410    18.998403224000
           F         -1.035291015534    -1.346406048909     0.376470861590    18.998403224000
           F          2.319790984466     0.470367951091    -0.595970138410    18.998403224000
           F          1.322705984466    -1.397759048909    -0.367783138410    18.998403224000
           F          1.385409984466    -0.011908048909     1.258822861590    18.998403224000

  Charge       = 0
  Multiplicity = 1
  Basis Set: 6-31G*
  Basis Set:

    Orbital Energies (a.u.)
    -----------------------

    Doubly Occupied:

       1A    -26.363567     2A    -26.362898     3A    -26.362460
       4A    -26.358545     5A    -26.358434     6A    -26.357412
       7A    -20.613950     8A    -11.526548     9A    -11.524750
      10A    -11.347664    11A     -1.765435    12A     -1.758245
      13A     -1.661801    14A     -1.660040    15A     -1.657633
      16A     -1.652914    17A     -1.433199    18A     -1.101473
      19A     -0.997240    20A     -0.937275    21A     -0.866456
      22A     -0.860731    23A     -0.851407    24A     -0.845403
      25A     -0.834728    26A     -0.814761    27A     -0.738434
      28A     -0.730706    29A     -0.724717    30A     -0.721228
      31A     -0.688422    32A     -0.687529    33A     -0.681735
      34A     -0.676726    35A     -0.667484    36A     -0.661091
      37A     -0.656159    38A     -0.649400    39A     -0.618871
      40A     -0.549336    41A     -0.505507

  @DF-RHF Final Energy:  -786.27217465004583

   => Energetics <=

    Nuclear Repulsion Energy =            671.7908956077708353
    One-Electron Energy =               -2430.4613717685815573
    Two-Electron Energy =                 972.3983015107620531
    DFT Exchange-Correlation Energy =       0.0000000000000000
    Empirical Dispersion Energy =           0.0000000000000000
    PCM Polarization Energy =               0.0000000000000000
    EFP Energy =                            0.0000000000000000
    Total Energy =                       -786.2721746500486688

  Mulliken Charges: (a.u.)
   Center  Symbol    Alpha    Beta     Spin     Total
       1     H     0.26562  0.26562  0.00000  0.46877
       2     O     4.36148  4.36148  0.00000 -0.72296
       3     C     3.07042  3.07042  0.00000 -0.14084
       4     C     2.42882  2.42882  0.00000  1.14236
       5     C     2.43917  2.43917  0.00000  1.12166
       6     H     0.37235  0.37235  0.00000  0.25530
       7     F     4.67727  4.67727  0.00000 -0.35455
       8     F     4.67544  4.67544  0.00000 -0.35089
       9     F     4.67760  4.67760  0.00000 -0.35520
      10     F     4.67513  4.67513  0.00000 -0.35027
      11     F     4.67454  4.67454  0.00000 -0.34909
      12     F     4.68215  4.68215  0.00000 -0.36429

   Total alpha = 41.00000, Total beta = 41.00000, Total charge = -0.00000
