                              Psi4 1.0.54 Driver

  ==> Input File <==

--------------------------------------------------------------------------
set {
	reference rhf
	basis cc-pvtz
}

set_num_threads( 4 )
memory 2 gb

molecule MOL {
0 1

H	 -3.034039	 -0.667848	 0.004703
O	 -2.240597	 -1.171748	 0.000934
C	 -1.159675	 -0.364500	 0.000370
C	 -1.168837	 0.885199	 0.585674
C	 -0.014131	 -0.838021	 -0.620566
H	 -2.056374	 1.255054	 1.065825
C	 -0.019904	 1.656069	 0.541614
H	 -0.040921	 -1.812768	 -1.067877
C	 1.131397	 -0.068952	 -0.661499
H	 -0.024079	 2.630117	 0.993262
C	 1.120744	 1.192082	 -0.073563
C	 2.384453	 -0.593490	 -1.315987
H	 2.002481	 1.803835	 -0.101112
H	 2.856424	 0.171004	 -1.920648
H	 2.171722	 -1.443217	 -1.950382
H	 3.103262	 -0.908620	 -0.567222

	symmetry c1
}
set optking {
	frozen_dihedral = ("
		5 3 2 1
	")
}

ee,wfn = optimize('scf', return_wfn=True)
oeprop( wfn, 'DIPOLE', 'QUADRUPOLE', 'MULLIKEN_CHARGES')
f=open( 'psi4out.xyz', 'w' )
f.write( "16  " )
f.write( str(ee) + "\n" )
f.write( MOL.save_string_xyz() )
f.close()
--------------------------------------------------------------------------

    Molecular point group: c1
  Charge       = 0
  Multiplicity = 1
  Basis Set: CC-PVTZ
  Basis Set:
  @DF-RHF Final Energy:  -344.71950746311603
    Total Energy =                       -344.7195074631162584
    Molecular point group: c1
  Basis Set: CC-PVTZ
  Basis Set:
  Basis Set: CC-PVTZ
  Basis Set:
  @DF-RHF Final Energy:  -344.71955455800401
    Total Energy =                       -344.7195545580035514
  Basis Set: CC-PVTZ
  Basis Set:
  Basis Set: CC-PVTZ
  Basis Set:
  @DF-RHF Final Energy:  -344.71956254423833
    Total Energy =                       -344.7195625442385563
  Basis Set: CC-PVTZ
  Basis Set:
  Charge       = 0
  Multiplicity = 1
  Basis Set: CC-PVTZ
  Basis Set:

    Orbital Energies (a.u.)
    -----------------------

    Doubly Occupied:

       1A    -20.579299     2A    -11.293005     3A    -11.240479
       4A    -11.232524     5A    -11.219836     6A    -11.219232
       7A    -11.214747     8A    -11.214322     9A     -1.409017
      10A     -1.154319    11A     -1.046358    12A     -1.008380
      13A     -0.938676    14A     -0.827230    15A     -0.824758
      16A     -0.717841    17A     -0.683522    18A     -0.657763
      19A     -0.616251    20A     -0.595335    21A     -0.575878
      22A     -0.571128    23A     -0.560692    24A     -0.530260
      25A     -0.507053    26A     -0.484987    27A     -0.471666
      28A     -0.333317    29A     -0.313344

  @DF-RHF Final Energy:  -344.71956352991452

   => Energetics <=

    Nuclear Repulsion Energy =            346.2668119811776819
    One-Electron Energy =               -1153.8903119151118517
    Two-Electron Energy =                 462.9039364040195323
    DFT Exchange-Correlation Energy =       0.0000000000000000
    Empirical Dispersion Energy =           0.0000000000000000
    PCM Polarization Energy =               0.0000000000000000
    EFP Energy =                            0.0000000000000000
    Total Energy =                       -344.7195635299146943
    Molecular point group: c1
  Basis Set: CC-PVTZ
  Basis Set:

  -Total Gradient:
     Atom            X                  Y                   Z
    ------   -----------------  -----------------  -----------------
       1       -0.000001418594     0.000021253320    -0.002583592932
       2       -0.000275613750     0.000256419793     0.002448915760
       3        0.000845458241    -0.000904414788     0.001750694053
       4       -0.000052608296    -0.000130586341    -0.000026734801
       5       -0.000469227663     0.000787263535    -0.001600028219
       6        0.000008217691    -0.000001266872     0.000005389595
       7        0.000169142385     0.000039356664    -0.000020880289
       8       -0.000015868904    -0.000017752436    -0.000023841161
       9       -0.000052929826    -0.000205979562     0.000004526549
      10       -0.000017832960     0.000006598264    -0.000014523679
      11       -0.000120321625     0.000123277327     0.000065144628
      12       -0.000013989961     0.000018568350    -0.000003677847
      13        0.000010709421    -0.000004067500     0.000005957101
      14       -0.000000539588     0.000004729770    -0.000014536530
      15       -0.000000860248    -0.000009369747     0.000004329356
      16       -0.000012316326     0.000015970219     0.000002858417

  **** Optimization is complete! (in 4 steps) ****
    Final optimized geometry and variables:
    Molecular point group: c1

    Geometry (in Angstrom), charge = 0, multiplicity = 1:

    H           -2.999658028419    -0.719155586360     0.240261676698
    O           -2.206466038754    -1.223534358848     0.229050011909
    C           -1.122739434835    -0.411637094338     0.209864428989
    C           -1.134402891543     0.839172232713     0.792592720633
    C            0.017936310142    -0.879709844954    -0.420778720281
    H           -2.018543128188     1.198939325594     1.285417102395
    C            0.009734781724     1.615552003094     0.738646215079
    H           -0.010992141574    -1.851996214649    -0.873375357065
    C            1.164637880220    -0.110227146840    -0.462477243066
    H            0.004883421766     2.591076060907     1.187029396609
    C            1.150505843093     1.151315553332     0.121864556873
    C            2.416024641364    -0.631591198491    -1.122665050615
    H            2.030391159866     1.765764572239     0.090338135598
    H            2.886851554116     0.135103465701    -1.725451749206
    H            2.201394529395    -1.478687813784    -1.760044518806
    H            3.136610713649    -0.950612903946    -0.377246611855

  Mulliken Charges: (a.u.)
   Center  Symbol    Alpha    Beta     Spin     Total
       1     H     0.38590  0.38590  0.00000  0.22820
       2     O     4.18052  4.18052  0.00000 -0.36104
       3     C     2.84495  2.84495  0.00000  0.31011
       4     C     3.14324  3.14324  0.00000 -0.28648
       5     C     3.13984  3.13984  0.00000 -0.27968
       6     H     0.43042  0.43042  0.00000  0.13915
       7     C     3.05810  3.05810  0.00000 -0.11620
       8     H     0.42113  0.42113  0.00000  0.15773
       9     C     2.93725  2.93725  0.00000  0.12550
      10     H     0.42288  0.42288  0.00000  0.15424
      11     C     3.11622  3.11622  0.00000 -0.23243
      12     C     3.14618  3.14618  0.00000 -0.29237
      13     H     0.42768  0.42768  0.00000  0.14464
      14     H     0.44865  0.44865  0.00000  0.10271
      15     H     0.45033  0.45033  0.00000  0.09934
      16     H     0.44671  0.44671  0.00000  0.10658

   Total alpha = 29.00000, Total beta = 29.00000, Total charge = -0.00000

*** Psi4 exiting successfully. Buy a developer a beer!
