  ==> Input File <==

--------------------------------------------------------------------------
set {
	reference rhf
	basis cc-pvtz
}

set_num_threads( 4 )
memory 2 gb

molecule MOL {
0 1

O	 -2.374409	 1.338660	 -0.336961
C	 -2.104891	 0.204655	 -0.107126
C	 -0.881910	 -0.448129	 -0.720509
C	 -2.949910	 -0.638219	 0.818225
C	 0.399795	 0.286200	 -0.307186
H	 -0.993344	 -0.406697	 -1.796602
H	 -0.822408	 -1.489763	 -0.423315
C	 1.650173	 -0.339179	 -0.921970
H	 0.308334	 1.322990	 -0.605398
H	 0.493279	 0.278911	 0.776099
C	 2.964556	 0.317877	 -0.497021
H	 1.567997	 -0.309010	 -2.005629
H	 1.685081	 -1.390257	 -0.648801
C	 3.145940	 1.753590	 -0.983548
H	 3.784402	 -0.284390	 -0.875748
H	 3.045339	 0.290535	 0.586519
H	 3.064116	 1.811488	 -2.064077
H	 4.123349	 2.131293	 -0.706452
H	 2.407120	 2.423049	 -0.560170
H	 -3.440322	 -1.417144	 0.243099
H	 -3.694377	 -0.025850	 1.303346
H	 -2.331085	 -1.129829	 1.560495

	symmetry c1
}
set optking {
	frozen_dihedral = ("
		6 3 2 1
	")
}

ee = optimize('scf')
oeprop('DIPOLE', 'QUADRUPOLE', 'MULLIKEN_CHARGES')
f=open( 'psi4out.xyz', 'w' )
f.write( "22  " )
f.write( str(ee) + "\n" )
f.write( MOL.save_string_xyz() )
f.close()
--------------------------------------------------------------------------

    Molecular point group: c1
  Charge       = 0
  Multiplicity = 1
  Basis Set: CC-PVTZ
  Basis Set:
  @DF-RHF Final Energy:  -348.22321546214465
    Total Energy =                       -348.2232154621441396
    Molecular point group: c1
  Basis Set: CC-PVTZ
  Basis Set:
  Basis Set: CC-PVTZ
  Basis Set:
  @DF-RHF Final Energy:  -348.22294852628323
    Total Energy =                       -348.2229485262831759
  Basis Set: CC-PVTZ
  Basis Set:
  Basis Set: CC-PVTZ
  Basis Set:
  @DF-RHF Final Energy:  -348.22335091494585
    Total Energy =                       -348.2233509149457404
  Basis Set: CC-PVTZ
  Basis Set:
  Basis Set: CC-PVTZ
  Basis Set:
  @DF-RHF Final Energy:  -348.22336768782981
    Total Energy =                       -348.2233676878297501
  Basis Set: CC-PVTZ
  Basis Set:
  @DF-RHF Final Energy:  -348.22340908135726
    Total Energy =                       -348.2234090813569765
  Basis Set: CC-PVTZ
  Basis Set:
  @DF-RHF Final Energy:  -348.22343514721109
    Total Energy =                       -348.2234351472110347
  Basis Set: CC-PVTZ
  Basis Set:
  Basis Set: CC-PVTZ
  Basis Set:
  @DF-RHF Final Energy:  -348.22343307281443
    Total Energy =                       -348.2234330728143732
  Basis Set: CC-PVTZ
  Basis Set:
  Basis Set: CC-PVTZ
  Basis Set:
  @DF-RHF Final Energy:  -348.22343624418289
    Total Energy =                       -348.2234362441828353
  Basis Set: CC-PVTZ
  Basis Set:
  Charge       = 0
  Multiplicity = 1
  Basis Set: CC-PVTZ
  Basis Set:

    Orbital Energies (a.u.)
    -----------------------

    Doubly Occupied:

       1A    -20.536954     2A    -11.320134     3A    -11.228194
       4A    -11.227453     5A    -11.222591     6A    -11.218136
       7A    -11.216847     8A    -11.207273     9A     -1.397576
      10A     -1.094399    11A     -1.044022    12A     -1.001729
      13A     -0.937165    14A     -0.856260    15A     -0.784605
      16A     -0.733560    17A     -0.663209    18A     -0.646387
      19A     -0.625541    20A     -0.622790    21A     -0.598041
      22A     -0.582757    23A     -0.564386    24A     -0.545220
      25A     -0.532321    26A     -0.515510    27A     -0.500327
      28A     -0.487086    29A     -0.469248    30A     -0.462685
      31A     -0.459662    32A     -0.399062

  @DF-RHF Final Energy:  -348.22343627886050

   => Energetics <=

    Nuclear Repulsion Energy =            373.3483822807482966
    One-Electron Energy =               -1211.7413820254796519
    Two-Electron Energy =                 490.1695634658710787
    DFT Exchange-Correlation Energy =       0.0000000000000000
    Empirical Dispersion Energy =           0.0000000000000000
    PCM Polarization Energy =               0.0000000000000000
    EFP Energy =                            0.0000000000000000
    Total Energy =                       -348.2234362788602766
    Molecular point group: c1
  Basis Set: CC-PVTZ
  Basis Set:

  -Total Gradient:
     Atom            X                  Y                   Z
    ------   -----------------  -----------------  -----------------
       1       -0.000143109315    -0.000079356706    -0.000204802991
       2        0.000221251286     0.000157686418     0.000287407374
       3       -0.000195414118    -0.000303800732    -0.000072261223
       4        0.000003212622     0.000005236792     0.000001662429
       5       -0.000008220541    -0.000002065313    -0.000006617316
       6        0.000119316986     0.000227619045    -0.000005588006
       7        0.000000638545    -0.000002350604     0.000000585038
       8        0.000001483525    -0.000002890844     0.000006917899
       9        0.000000264197     0.000004641808     0.000000966024
      10        0.000001606914    -0.000000715736    -0.000001428719
      11        0.000002520496    -0.000001763468    -0.000004886758
      12        0.000000333909     0.000001737594     0.000002529067
      13        0.000001510947    -0.000001484319    -0.000000802322
      14       -0.000001667043     0.000000608155     0.000000727392
      15        0.000001053380    -0.000000957264     0.000000052374
      16       -0.000001479738    -0.000000392651    -0.000001278135
      17        0.000000457477    -0.000000101015     0.000000236038
      18       -0.000000457409    -0.000000283030     0.000000513013
      19       -0.000001426009     0.000001166003    -0.000000181807
      20       -0.000000634669    -0.000001265567    -0.000001719128
      21       -0.000000584846    -0.000001110073     0.000000522808
      22       -0.000000656596    -0.000000158493    -0.000002553051

  **** Optimization is complete! (in 9 steps) ****
    Final optimized geometry and variables:
    Molecular point group: c1

    Geometry (in Angstrom), charge = 0, multiplicity = 1:

    O           -2.357148467912     1.015150873022     0.032722522397
    C           -2.089554155735    -0.115196507648     0.281343327291
    C           -0.857980966565    -0.774076339338    -0.315249048850
    C           -2.952602581986    -0.951621311711     1.193368378982
    C            0.427717987957    -0.044303070121     0.082445036331
    H           -0.973736277339    -0.740374217488    -1.393822343931
    H           -0.806426714076    -1.817013882378    -0.024300186746
    C            1.668368295442    -0.659168489104    -0.561206433603
    H            0.326653250120     0.995647338367    -0.195948980471
    H            0.535837536211    -0.068830078494     1.164408577452
    C            2.989077644100    -0.013447994326    -0.138661805204
    H            1.573472073967    -0.604973539434    -1.643223149824
    H            1.706258488816    -1.716371728615    -0.312399416654
    C            3.164794930225     1.433131510369    -0.594005253987
    H            3.803716656365    -0.607206989298    -0.541502502118
    H            3.083357867914    -0.065587977160     0.942841860728
    H            3.071437190604     1.515695676569    -1.672056886178
    H            4.145047734012     1.804973926105    -0.318859127571
    H            2.429997627736     2.091805263330    -0.147601731963
    H           -3.322067738294    -1.818242589994     0.654888212487
    H           -3.781947227822    -0.368136411430     1.562443238787
    H           -2.360861653269    -1.321167520403     2.024550125999

  Mulliken Charges: (a.u.)
   Center  Symbol    Alpha    Beta     Spin     Total
       1     O     4.17655  4.17655  0.00000 -0.35310
       2     C     2.85862  2.85862  0.00000  0.28275
       3     C     3.10218  3.10218  0.00000 -0.20437
       4     C     3.15335  3.15335  0.00000 -0.30669
       5     C     3.09746  3.09746  0.00000 -0.19492
       6     H     0.44194  0.44194  0.00000  0.11611
       7     H     0.44735  0.44735  0.00000  0.10529
       8     C     3.09678  3.09678  0.00000 -0.19356
       9     H     0.43653  0.43653  0.00000  0.12694
      10     H     0.45374  0.45374  0.00000  0.09251
      11     C     3.09061  3.09061  0.00000 -0.18122
      12     H     0.45231  0.45231  0.00000  0.09538
      13     H     0.44959  0.44959  0.00000  0.10083
      14     C     3.15195  3.15195  0.00000 -0.30389
      15     H     0.44812  0.44812  0.00000  0.10376
      16     H     0.45463  0.45463  0.00000  0.09073
      17     H     0.45437  0.45437  0.00000  0.09127
      18     H     0.44659  0.44659  0.00000  0.10682
      19     H     0.45151  0.45151  0.00000  0.09699
      20     H     0.44895  0.44895  0.00000  0.10209
      21     H     0.43642  0.43642  0.00000  0.12716
      22     H     0.45044  0.45044  0.00000  0.09911

   Total alpha = 32.00000, Total beta = 32.00000, Total charge =  0.00000
