  ==> Input File <==

--------------------------------------------------------------------------
set {
	reference rhf
	basis 6-31G*
}

set_num_threads( 4 )
memory 2 gb

molecule MOL {
0 1

H	 -3.239302	 1.253877	 -0.383940
C	 -2.683531	 2.031661	 0.135976
O	 -1.323966	 1.964025	 -0.150983
H	 -3.039208	 2.997337	 -0.195847
H	 -2.872865	 1.935483	 1.204306
C	 -0.719715	 0.768384	 0.229244
C	 0.719720	 0.768376	 -0.229267
H	 -0.750417	 0.657425	 1.313882
H	 -1.235893	 -0.082954	 -0.209831
O	 1.392611	 -0.295398	 0.366430
H	 0.750534	 0.687200	 -1.313918
H	 1.185043	 1.714359	 0.050526
C	 2.706965	 -0.449871	 -0.062409
H	 2.756559	 -0.644779	 -1.131878
H	 3.305899	 0.433456	 0.155466
H	 3.125548	 -1.294566	 0.467107

	symmetry c1
}
set optking {
	frozen_dihedral = ("
		3 6 7 11
	")
}

ee = optimize('scf')
oeprop('DIPOLE', 'QUADRUPOLE', 'MULLIKEN_CHARGES')
f=open( 'psi4out.xyz', 'w' )
f.write( "16  " )
f.write( str(ee) + "\n" )
f.write( MOL.save_string_xyz() )
f.close()
--------------------------------------------------------------------------

    Molecular point group: c1
  Charge       = 0
  Multiplicity = 1
  Basis Set: 6-31G*
  Basis Set:
  @DF-RHF Final Energy:  -306.97910242618389
    Total Energy =                       -306.9791024261838857
    Molecular point group: c1
  Basis Set: 6-31G*
  Basis Set:
  Basis Set: 6-31G*
  Basis Set:
  @DF-RHF Final Energy:  -306.97948229667838
    Total Energy =                       -306.9794822966783272
  Basis Set: 6-31G*
  Basis Set:
  Basis Set: 6-31G*
  Basis Set:
  @DF-RHF Final Energy:  -306.97954451294572
    Total Energy =                       -306.9795445129457789
  Basis Set: 6-31G*
  Basis Set:
  Charge       = 0
  Multiplicity = 1
  Basis Set: 6-31G*
  Basis Set:

    Orbital Energies (a.u.)
    -----------------------

    Doubly Occupied:

       1A    -20.558626     2A    -20.558347     3A    -11.267243
       4A    -11.267037     5A    -11.266947     6A    -11.266587
       7A     -1.388766     8A     -1.377363     9A     -1.030303
      10A     -0.941388    11A     -0.883204    12A     -0.831110
      13A     -0.691586    14A     -0.674121    15A     -0.659223
      16A     -0.647517    17A     -0.619334    18A     -0.600086
      19A     -0.576391    20A     -0.518297    21A     -0.508121
      22A     -0.482781    23A     -0.466322    24A     -0.418302
      25A     -0.417984

  @DF-RHF Final Energy:  -306.97954672931166

   => Energetics <=

    Nuclear Repulsion Energy =            254.7548398865732224
    One-Electron Energy =                -923.6348002990293935
    Two-Electron Energy =                 361.9004136831445066
    DFT Exchange-Correlation Energy =       0.0000000000000000
    Empirical Dispersion Energy =           0.0000000000000000
    PCM Polarization Energy =               0.0000000000000000
    EFP Energy =                            0.0000000000000000
    Total Energy =                       -306.9795467293116644
    Molecular point group: c1
  Basis Set: 6-31G*
  Basis Set:

  -Total Gradient:
     Atom            X                  Y                   Z
    ------   -----------------  -----------------  -----------------
       1       -0.000021168978     0.000006691523    -0.000009636170
       2        0.000023623008    -0.000100616794     0.000039020815
       3        0.000484603884     0.000755250522     0.001466828044
       4        0.000072165361    -0.000008657575    -0.000014691821
       5       -0.000012517611     0.000016844975     0.000009596570
       6       -0.000633077713    -0.001434549289    -0.001846245941
       7        0.000139119603     0.002911123638     0.000261315116
       8        0.000015176303    -0.000009128893    -0.000008190386
       9       -0.000003444941    -0.000002427996    -0.000012272994
      10       -0.000044644120     0.000028238455     0.000006869208
      11        0.000072315775    -0.002229852529     0.000142562496
      12       -0.000036707493    -0.000004415192     0.000000760609
      13       -0.000003605156     0.000077234137    -0.000057977935
      14        0.000013624398    -0.000014412685    -0.000009746659
      15        0.000010386117    -0.000007361251     0.000013269588
      16       -0.000075848437     0.000016038955     0.000018539461

  **** Optimization is complete! (in 4 steps) ****
    Final optimized geometry and variables:
    Molecular point group: c1

    Geometry (in Angstrom), charge = 0, multiplicity = 1:

    H           -3.277646813060     0.467791523939    -0.338933993646
    C           -2.682656113991     1.252233495823     0.124716827227
    O           -1.338936218164     1.145841513219    -0.223492587379
    H           -3.035281582231     2.212716408020    -0.225002832310
    H           -2.819191194147     1.197380654271     1.203001594089
    C           -0.737295262651    -0.048611774002     0.171993060546
    C            0.702495918720    -0.021009190008    -0.298649707879
    H           -0.755904169067    -0.150391854080     1.255033026725
    H           -1.255018853195    -0.906920109180    -0.251426348001
    O            1.358927831087    -1.101129589222     0.293297482820
    H            0.743744726802    -0.104713271411    -1.382912404766
    H            1.160878905026     0.921855825981    -0.010161426782
    C            2.696466462030    -1.227331830637    -0.071334398382
    H            2.804326247546    -1.379982923368    -1.143506971260
    H            3.270466440428    -0.347022608198     0.211344111377
    H            3.096257265585    -2.087859296482     0.447174464223

  Mulliken Charges: (a.u.)
   Center  Symbol    Alpha    Beta     Spin     Total
       1     H     0.42875  0.42875  0.00000  0.14249
       2     C     3.07959  3.07959  0.00000 -0.15917
       3     O     4.30986  4.30986  0.00000 -0.61972
       4     H     0.41157  0.41157  0.00000  0.17686
       5     H     0.42841  0.42841  0.00000  0.14317
       6     C     2.99387  2.99387  0.00000  0.01225
       7     C     2.99390  2.99390  0.00000  0.01221
       8     H     0.42236  0.42236  0.00000  0.15528
       9     H     0.42544  0.42544  0.00000  0.14912
      10     O     4.31022  4.31022  0.00000 -0.62043
      11     H     0.42574  0.42574  0.00000  0.14852
      12     H     0.42182  0.42182  0.00000  0.15636
      13     C     3.07946  3.07946  0.00000 -0.15892
      14     H     0.42892  0.42892  0.00000  0.14216
      15     H     0.42848  0.42848  0.00000  0.14304
      16     H     0.41161  0.41161  0.00000  0.17678

   Total alpha = 25.00000, Total beta = 25.00000, Total charge = -0.00000
