                              Psi4 1.0.54 Driver

  ==> Input File <==

--------------------------------------------------------------------------
set {
	reference rhf
	basis cc-pvtz
}

set_num_threads( 4 )
memory 2 gb

molecule MOL {
0 1

O	 -2.532279	 0.909964	 -1.381377
C	 -2.514370	 -0.077731	 -0.728260
C	 -3.662601	 -1.046971	 -0.648099
O	 -1.481217	 -0.452708	 0.001092
H	 -3.885545	 -1.399620	 -1.646104
H	 -3.440901	 -1.881993	 -0.002942
H	 -4.533425	 -0.518944	 -0.283508
C	 -0.332055	 0.384012	 -0.000250
C	 0.892252	 -0.506059	 -0.000295
H	 -0.360822	 1.020205	 -0.874146
H	 -0.359817	 1.021310	 0.872861
C	 2.188199	 0.299473	 -0.001416
H	 0.857046	 -1.152781	 -0.871031
H	 0.857910	 -1.151798	 0.871202
C	 3.437151	 -0.577593	 -0.000991
H	 2.209565	 0.950707	 -0.871712
H	 2.210062	 0.952234	 0.867721
C	 4.732399	 0.226982	 -0.000914
H	 3.417321	 -1.229122	 -0.869998
H	 3.416993	 -1.228707	 0.868337
H	 4.797903	 0.863451	 -0.876963
H	 5.598517	 -0.424436	 -0.000420
H	 4.797415	 0.864118	 0.874691

	symmetry c1
}
set optking {
	frozen_dihedral = ("
		2 4 8 10
	")
}

ee,wfn = optimize('scf', return_wfn=True)
oeprop( wfn, 'DIPOLE', 'QUADRUPOLE', 'MULLIKEN_CHARGES')
f=open( 'psi4out.xyz', 'w' )
f.write( "23  " )
f.write( str(ee) + "\n" )
f.write( MOL.save_string_xyz() )
f.close()
--------------------------------------------------------------------------

    Molecular point group: c1
  Charge       = 0
  Multiplicity = 1
  Basis Set: CC-PVTZ
  Basis Set:
  @DF-RHF Final Energy:  -423.13281580035408
    Total Energy =                       -423.1328158003537965
    Molecular point group: c1
  Basis Set: CC-PVTZ
  Basis Set:
  Basis Set: CC-PVTZ
  Basis Set:
  @DF-RHF Final Energy:  -423.08767044197265
    Total Energy =                       -423.0876704419727048
  Basis Set: CC-PVTZ
  Basis Set:
  Basis Set: CC-PVTZ
  Basis Set:
  @DF-RHF Final Energy:  -423.13176261592071
    Total Energy =                       -423.1317626159205929
  Basis Set: CC-PVTZ
  Basis Set:
  Basis Set: CC-PVTZ
  Basis Set:
  @DF-RHF Final Energy:  -423.13312301558631
    Total Energy =                       -423.1331230155866479
  Basis Set: CC-PVTZ
  Basis Set:
  Basis Set: CC-PVTZ
  Basis Set:
  @DF-RHF Final Energy:  -423.13072999114831
    Total Energy =                       -423.1307299911479731
  Basis Set: CC-PVTZ
  Basis Set:
  Basis Set: CC-PVTZ
  Basis Set:
  @DF-RHF Final Energy:  -423.13324390865932
    Total Energy =                       -423.1332439086592103
  Basis Set: CC-PVTZ
  Basis Set:
  Basis Set: CC-PVTZ
  Basis Set:
  @DF-RHF Final Energy:  -423.13328475538043
    Total Energy =                       -423.1332847553803731
  Basis Set: CC-PVTZ
  Basis Set:
  Charge       = 0
  Multiplicity = 1
  Basis Set: CC-PVTZ
  Basis Set:

    Orbital Energies (a.u.)
    -----------------------

    Doubly Occupied:

       1A    -20.595171     2A    -20.528946     3A    -11.367412
       4A    -11.278443     5A    -11.230163     6A    -11.222417
       7A    -11.221378     8A    -11.219476     9A    -11.210893
      10A     -1.469090    11A     -1.364370    12A     -1.095126
      13A     -1.043158    14A     -1.003909    15A     -0.932280
      16A     -0.844824    17A     -0.802042    18A     -0.775288
      19A     -0.698162    20A     -0.684343    21A     -0.667225
      22A     -0.648949    23A     -0.606782    24A     -0.588894
      25A     -0.585635    26A     -0.570741    27A     -0.555953
      28A     -0.538502    29A     -0.524151    30A     -0.507075
      31A     -0.491162    32A     -0.478611    33A     -0.472711
      34A     -0.470745    35A     -0.448951    36A     -0.437265

  @DF-RHF Final Energy:  -423.13328605520945

   => Energetics <=

    Nuclear Repulsion Energy =            450.8900354453579098
    One-Electron Energy =               -1469.6861623192376101
    Two-Electron Energy =                 595.6628408186701336
    DFT Exchange-Correlation Energy =       0.0000000000000000
    Empirical Dispersion Energy =           0.0000000000000000
    PCM Polarization Energy =               0.0000000000000000
    EFP Energy =                            0.0000000000000000
    Total Energy =                       -423.1332860552096236
    Molecular point group: c1
  Basis Set: CC-PVTZ
  Basis Set:

  -Total Gradient:
     Atom            X                  Y                   Z
    ------   -----------------  -----------------  -----------------
       1       -0.000056312654    -0.000022845011     0.000010567363
       2        0.000378296020    -0.000345738858    -0.001088993372
       3       -0.000083031638     0.000056729908    -0.000007567889
       4       -0.000831486026     0.000528078852     0.001737049633
       5        0.000017715837     0.000005996038     0.000047598365
       6        0.000016024494     0.000021097372     0.000005117626
       7        0.000039061862    -0.000017676855    -0.000043086091
       8        0.001004206786    -0.000880460624    -0.001661651916
       9       -0.000003193498     0.000037181840     0.000008857693
      10       -0.000577540713     0.000576637980     0.001000063347
      11        0.000043694659     0.000033247560     0.000001705575
      12        0.000020963376    -0.000019231986    -0.000009690414
      13       -0.000003629062    -0.000000250913    -0.000009194532
      14       -0.000009542681     0.000004539803     0.000006645493
      15        0.000003286605     0.000025045142     0.000000126661
      16        0.000006444108     0.000001886718    -0.000005499287
      17        0.000005861374    -0.000001430662     0.000004170947
      18        0.000027090429    -0.000009458595     0.000001474772
      19       -0.000005818220     0.000001581992    -0.000007880542
      20       -0.000003377057    -0.000001260280     0.000007108158
      21       -0.000003445586     0.000003076393    -0.000006079511
      22        0.000013942496     0.000002052155     0.000001379899
      23        0.000000789077     0.000001202032     0.000007778023

  **** Optimization is complete! (in 8 steps) ****
    Final optimized geometry and variables:
    Molecular point group: c1

    Geometry (in Angstrom), charge = 0, multiplicity = 1:

    O           -2.748780951318     1.211889030183    -0.507070231044
    C           -2.622712843886     0.065077911740    -0.240603038055
    C           -3.721236565958    -0.950294221874    -0.407695824012
    O           -1.514377231250    -0.469765982481     0.236363053678
    H           -4.032074166812    -0.952103849813    -1.443758603569
    H           -3.405169628129    -1.938683767973    -0.114986060332
    H           -4.568497286540    -0.640742808355     0.189295488727
    C           -0.366073968360     0.348315068198     0.427970231409
    C            0.867136657959    -0.455501268498     0.071463460637
    H           -0.456344348422     1.239596587093    -0.171063243644
    H           -0.346200819814     0.646958955770     1.469048525604
    C            2.153203851787     0.331878820031     0.305404925725
    H            0.800579020141    -0.755517700355    -0.969641405608
    H            0.877804312204    -1.366860136773     0.660504199012
    C            3.410450441818    -0.456133653679    -0.051512401488
    H            2.128099605524     1.248506415246    -0.278675483440
    H            2.207018888205     0.636362278073     1.347891565442
    C            4.695489386578     0.330337329355     0.183594414988
    H            3.358911095452    -0.759562873025    -1.093348861518
    H            3.436426608720    -1.372313655615     0.531751678617
    H            4.714469407765     1.236470518005    -0.412638410615
    H            5.567810518921    -0.256566188877    -0.079482429389
    H            4.792965802633     0.619002620051     1.224852432594

  Mulliken Charges: (a.u.)
   Center  Symbol    Alpha    Beta     Spin     Total
       1     O     4.20314  4.20314  0.00000 -0.40628
       2     C     2.80927  2.80927  0.00000  0.38147
       3     C     3.14264  3.14264  0.00000 -0.28528
       4     O     4.14955  4.14955  0.00000 -0.29911
       5     H     0.44231  0.44231  0.00000  0.11537
       6     H     0.44209  0.44209  0.00000  0.11582
       7     H     0.44215  0.44215  0.00000  0.11571
       8     C     2.98443  2.98443  0.00000  0.03113
       9     C     3.08240  3.08240  0.00000 -0.16479
      10     H     0.44339  0.44339  0.00000  0.11322
      11     H     0.45478  0.45478  0.00000  0.09044
      12     C     3.09854  3.09854  0.00000 -0.19707
      13     H     0.45165  0.45165  0.00000  0.09670
      14     H     0.45017  0.45017  0.00000  0.09967
      15     C     3.08482  3.08482  0.00000 -0.16964
      16     H     0.45168  0.45168  0.00000  0.09665
      17     H     0.45368  0.45368  0.00000  0.09265
      18     C     3.14969  3.14969  0.00000 -0.29937
      19     H     0.45325  0.45325  0.00000  0.09350
      20     H     0.45360  0.45360  0.00000  0.09281
      21     H     0.45431  0.45431  0.00000  0.09138
      22     H     0.44766  0.44766  0.00000  0.10468
      23     H     0.45482  0.45482  0.00000  0.09036

   Total alpha = 36.00000, Total beta = 36.00000, Total charge = -0.00000

*** Psi4 exiting successfully. Buy a developer a beer!
