  ==> Input File <==

--------------------------------------------------------------------------
set {
	reference rhf
	basis 6-31G*
}

set_num_threads( 4 )
memory 2 gb

molecule MOL {
0 1

O	 1.099727	 1.489646	 -0.404189
C	 0.781037	 0.663788	 -1.197559
C	 -0.504609	 -0.126445	 -1.174271
O	 1.536570	 0.321946	 -2.233556
C	 -1.412532	 0.227344	 -0.000452
H	 -1.005681	 0.040753	 -2.123864
H	 -0.238115	 -1.179817	 -1.162355
C	 -2.706999	 -0.587347	 -0.000541
H	 -1.644726	 1.287288	 -0.033743
H	 -0.875847	 0.065414	 0.929199
C	 -3.956778	 0.291888	 0.000910
H	 -2.726114	 -1.239230	 -0.871609
H	 -2.725217	 -1.240844	 0.869333
H	 -3.985213	 0.933254	 -0.875158
H	 -4.860123	 -0.309979	 0.000519
H	 -3.984618	 0.931166	 0.878514
C	 2.776409	 0.991544	 -2.373474
H	 2.623098	 2.054801	 -2.489529
H	 3.235205	 0.580984	 -3.259417
H	 3.403054	 0.815077	 -1.511103

	symmetry c1
}
set optking {
	frozen_dihedral = ("
		9 5 8 12
	")
}

ee = optimize('scf')
oeprop('DIPOLE', 'QUADRUPOLE', 'MULLIKEN_CHARGES')
f=open( 'psi4out.xyz', 'w' )
f.write( "20  " )
f.write( str(ee) + "\n" )
f.write( MOL.save_string_xyz() )
f.close()
--------------------------------------------------------------------------

    Molecular point group: c1
  Charge       = 0
  Multiplicity = 1
  Basis Set: 6-31G*
  Basis Set:
  @DF-RHF Final Energy:  -383.93562762063652
    Total Energy =                       -383.9356276206364100
    Molecular point group: c1
  Basis Set: 6-31G*
  Basis Set:
  Basis Set: 6-31G*
  Basis Set:
  @DF-RHF Final Energy:  -383.93587096974841
    Total Energy =                       -383.9358709697485210
  Basis Set: 6-31G*
  Basis Set:
  Basis Set: 6-31G*
  Basis Set:
  @DF-RHF Final Energy:  -383.93592878905639
    Total Energy =                       -383.9359287890562200
  Basis Set: 6-31G*
  Basis Set:
  Basis Set: 6-31G*
  Basis Set:
  @DF-RHF Final Energy:  -383.93575965252830
    Total Energy =                       -383.9357596525285317
  Basis Set: 6-31G*
  Basis Set:
  Basis Set: 6-31G*
  Basis Set:
  @DF-RHF Final Energy:  -383.93595264664174
    Total Energy =                       -383.9359526466416810
  Basis Set: 6-31G*
  Basis Set:
  Charge       = 0
  Multiplicity = 1
  Basis Set: 6-31G*
  Basis Set:

    Orbital Energies (a.u.)
    -----------------------

    Doubly Occupied:

       1A    -20.603733     2A    -20.545658     3A    -11.372228
       4A    -11.280935     5A    -11.236160     6A    -11.219914
       7A    -11.218959     8A    -11.211496     9A     -1.469427
      10A     -1.362893    11A     -1.086349    12A     -1.023497
      13A     -0.969066    14A     -0.886330    15A     -0.804546
      16A     -0.767549    17A     -0.699356    18A     -0.682725
      19A     -0.672365    20A     -0.635639    21A     -0.603048
      22A     -0.596351    23A     -0.575731    24A     -0.543468
      25A     -0.528292    26A     -0.522471    27A     -0.510898
      28A     -0.476348    29A     -0.472524    30A     -0.464598
      31A     -0.455194    32A     -0.436363

  @DF-RHF Final Energy:  -383.93595277745641

   => Energetics <=

    Nuclear Repulsion Energy =            381.5946375437168285
    One-Electron Energy =               -1279.1929678762503499
    Two-Electron Energy =                 513.6623775550770006
    DFT Exchange-Correlation Energy =       0.0000000000000000
    Empirical Dispersion Energy =           0.0000000000000000
    PCM Polarization Energy =               0.0000000000000000
    EFP Energy =                            0.0000000000000000
    Total Energy =                       -383.9359527774565777
    Molecular point group: c1
  Basis Set: 6-31G*
  Basis Set:

  -Total Gradient:
     Atom            X                  Y                   Z
    ------   -----------------  -----------------  -----------------
       1        0.000025048500    -0.000005577010    -0.000018621566
       2       -0.000027689383     0.000001094296     0.000013953714
       3       -0.000009023956     0.000000293582    -0.000005595113
       4        0.000011751097     0.000020631673     0.000012213599
       5        0.000121071393    -0.000253783619    -0.001199234685
       6       -0.000007261431    -0.000011155734     0.000007951862
       7       -0.000003556396    -0.000000750536     0.000008145499
       8       -0.000605219333     0.001006235395    -0.000471273512
       9       -0.000017029974     0.000033075269     0.001096879930
      10        0.000001595602    -0.000004713611    -0.000013444048
      11       -0.000007972192     0.000001892838     0.000007640747
      12        0.000494887766    -0.000777080811     0.000570564857
      13       -0.000006597830     0.000007402867     0.000001118742
      14        0.000006554395    -0.000013808381    -0.000002951063
      15       -0.000001148305    -0.000008315292     0.000008613551
      16        0.000011691581     0.000003654447    -0.000006333776
      17        0.000005580370    -0.000002084172    -0.000010404512
      18        0.000000565894    -0.000000326430     0.000000182608
      19        0.000006793479     0.000003551714    -0.000000050758
      20       -0.000000041285    -0.000000236493     0.000000643921

  **** Optimization is complete! (in 6 steps) ****
    Final optimized geometry and variables:
    Molecular point group: c1

    Geometry (in Angstrom), charge = 0, multiplicity = 1:

    O            1.368285155812     1.071543526059     0.527737505071
    C            1.054231652701     0.240997032883    -0.262706477993
    C           -0.230987593538    -0.550091070389    -0.241582614212
    O            1.815151181707    -0.105287000220    -1.293332286353
    C           -1.144251156207    -0.194135942864     0.928226928180
    H           -0.730070985035    -0.385750412214    -1.192840839776
    H            0.035184949035    -1.603432919493    -0.225781682053
    C           -2.456444473659    -1.010832036167     0.934247474235
    H           -1.363813690468     0.867651492939     0.895433020486
    H           -0.601684896273    -0.346742807208     1.854289752223
    C           -3.712193395016    -0.139389546758     0.954968390679
    H           -2.492557167494    -1.666451212733     0.067536516521
    H           -2.470621436319    -1.670619350003     1.796927465412
    H           -3.757057596036     0.502654658701     0.079618216515
    H           -4.612320619842    -0.746231449121     0.968649997173
    H           -3.728798558933     0.499741792247     1.832905480533
    C            3.054783358479     0.565151667815    -1.430939655464
    H            2.900730117173     1.627652802108    -1.552895258022
    H            3.518124918253     0.150848793487    -2.312771005408
    H            3.677748836262     0.393686763099    -0.564898407448

  Mulliken Charges: (a.u.)
   Center  Symbol    Alpha    Beta     Spin     Total
       1     O     4.28590  4.28590  0.00000 -0.57181
       2     C     2.60597  2.60597  0.00000  0.78805
       3     C     3.20972  3.20972  0.00000 -0.41943
       4     O     4.30716  4.30716  0.00000 -0.61433
       5     C     3.15604  3.15604  0.00000 -0.31208
       6     H     0.40067  0.40067  0.00000  0.19867
       7     H     0.40024  0.40024  0.00000  0.19951
       8     C     3.15799  3.15799  0.00000 -0.31598
       9     H     0.40883  0.40883  0.00000  0.18234
      10     H     0.40917  0.40917  0.00000  0.18165
      11     C     3.23972  3.23972  0.00000 -0.47945
      12     H     0.42107  0.42107  0.00000  0.15786
      13     H     0.41792  0.41792  0.00000  0.16417
      14     H     0.42180  0.42180  0.00000  0.15639
      15     H     0.41980  0.41980  0.00000  0.16040
      16     H     0.41898  0.41898  0.00000  0.16203
      17     C     3.09245  3.09245  0.00000 -0.18489
      18     H     0.40906  0.40906  0.00000  0.18187
      19     H     0.40843  0.40843  0.00000  0.18313
      20     H     0.40905  0.40905  0.00000  0.18189

   Total alpha = 32.00000, Total beta = 32.00000, Total charge = -0.00000
