  ==> Input File <==

--------------------------------------------------------------------------
set {
	reference rhf
	basis 6-31G*
}

set_num_threads( 4 )
memory 2 gb

molecule MOL {
0 1

H	 -3.439213	 -0.768750	 -0.392761
O	 -2.609848	 -0.419713	 -0.686193
C	 -2.026376	 0.340750	 0.341611
C	 -0.673256	 0.843270	 -0.132153
H	 -2.663217	 1.186068	 0.596185
H	 -1.905194	 -0.261650	 1.241101
C	 0.486613	 -0.083066	 0.235839
H	 -0.715586	 0.970948	 -1.210718
H	 -0.508072	 1.829858	 0.297090
C	 1.840406	 0.433480	 -0.254303
H	 0.300215	 -1.068318	 -0.178947
H	 0.519509	 -0.203625	 1.318070
C	 3.000220	 -0.489290	 0.118523
H	 1.809207	 0.553576	 -1.335192
H	 2.021860	 1.424500	 0.157276
H	 2.864959	 -1.479103	 -0.307933
H	 3.946603	 -0.099227	 -0.243630
H	 3.080049	 -0.602997	 1.196117

	symmetry c1
}
set optking {
	frozen_dihedral = ("
		2 3 4 8
	")
}

ee = optimize('scf')
oeprop('DIPOLE', 'QUADRUPOLE', 'MULLIKEN_CHARGES')
f=open( 'psi4out.xyz', 'w' )
f.write( "18  " )
f.write( str(ee) + "\n" )
f.write( MOL.save_string_xyz() )
f.close()
--------------------------------------------------------------------------

    Molecular point group: c1
  Charge       = 0
  Multiplicity = 1
  Basis Set: 6-31G*
  Basis Set:
  @DF-RHF Final Energy:  -271.17657875627845
    Total Energy =                       -271.1765787562783316
    Molecular point group: c1
  Basis Set: 6-31G*
  Basis Set:
  Basis Set: 6-31G*
  Basis Set:
  @DF-RHF Final Energy:  -271.17693019886383
    Total Energy =                       -271.1769301988638858
  Basis Set: 6-31G*
  Basis Set:
  Basis Set: 6-31G*
  Basis Set:
  @DF-RHF Final Energy:  -271.17699510684906
    Total Energy =                       -271.1769951068489490
  Basis Set: 6-31G*
  Basis Set:
  Basis Set: 6-31G*
  Basis Set:
  @DF-RHF Final Energy:  -271.17700014959382
    Total Energy =                       -271.1770001495939937
  Basis Set: 6-31G*
  Basis Set:
  Charge       = 0
  Multiplicity = 1
  Basis Set: 6-31G*
  Basis Set:

    Orbital Energies (a.u.)
    -----------------------

    Doubly Occupied:

       1A    -20.552340     2A    -11.267599     3A    -11.212240
       4A    -11.211204     5A    -11.210018     6A    -11.206081
       7A     -1.358502     8A     -1.076251     9A     -1.008424
      10A     -0.912504    11A     -0.819110    12A     -0.787084
      13A     -0.704510    14A     -0.635513    15A     -0.631623
      16A     -0.578054    17A     -0.570613    18A     -0.561122
      19A     -0.524296    20A     -0.497778    21A     -0.489536
      22A     -0.468319    23A     -0.461294    24A     -0.452582
      25A     -0.425096

  @DF-RHF Final Energy:  -271.17700039464916

   => Energetics <=

    Nuclear Repulsion Energy =            247.6592203355714332
    One-Electron Energy =                -858.4290578611246474
    Two-Electron Energy =                 339.5928371309040017
    DFT Exchange-Correlation Energy =       0.0000000000000000
    Empirical Dispersion Energy =           0.0000000000000000
    PCM Polarization Energy =               0.0000000000000000
    EFP Energy =                            0.0000000000000000
    Total Energy =                       -271.1770003946491556
    Molecular point group: c1
  Basis Set: 6-31G*
  Basis Set:

  -Total Gradient:
     Atom            X                  Y                   Z
    ------   -----------------  -----------------  -----------------
       1        0.000020371522     0.000029056886     0.000028183694
       2       -0.001627823951     0.003119512098    -0.001492720524
       3        0.002465942455    -0.004984030842     0.001798395435
       4       -0.002507011852     0.006457332615     0.000203948548
       5        0.000009265352     0.000010577577    -0.000003060467
       6        0.000009197663     0.000005230970     0.000007638053
       7       -0.000010477292    -0.000017902537    -0.000022510641
       8        0.001673016170    -0.004602079095    -0.000537439769
       9       -0.000035970751    -0.000010623709     0.000007228172
      10       -0.000000767183    -0.000000892397    -0.000010041322
      11        0.000011289864    -0.000024327459     0.000013887746
      12        0.000003526780     0.000015382423    -0.000008468744
      13       -0.000002099587     0.000000648526     0.000011344788
      14       -0.000016626357     0.000006440695     0.000000796736
      15        0.000007610420    -0.000002314460     0.000004060217
      16        0.000000349530     0.000001774478    -0.000003093718
      17       -0.000002171033     0.000001776536     0.000000428376
      18        0.000002378255    -0.000005562303     0.000001423421

  **** Optimization is complete! (in 5 steps) ****
    Final optimized geometry and variables:
    Molecular point group: c1

    Geometry (in Angstrom), charge = 0, multiplicity = 1:

    H           -3.305809342982    -0.934744059016    -0.371828979443
    O           -2.499434256027    -0.521498299670    -0.645952053717
    C           -1.985405401363     0.256495820590     0.407596889201
    C           -0.624553503776     0.798706841387    -0.020076158404
    H           -2.665892041791     1.078416695543     0.621918087295
    H           -1.893254920457    -0.334693853597     1.316774664802
    C            0.531804601302    -0.141098106331     0.334037033201
    H           -0.650586688402     0.915111495333    -1.098891032073
    H           -0.456664336382     1.776231836156     0.423497406589
    C            1.883343342469     0.342354912985    -0.193064950640
    H            0.317571889673    -1.128335986162    -0.069128629678
    H            0.589158571557    -0.254429749874     1.415834570754
    C            3.035383417350    -0.594412985689     0.168740139655
    H            1.829763505174     0.447347600483    -1.274415426734
    H            2.089696509839     1.336107996492     0.199848502832
    H            2.874335026621    -1.588235825533    -0.239244634152
    H            3.979691571884    -0.226187950890    -0.220392898139
    H            3.137616096162    -0.692905794209     1.245922892133

  Mulliken Charges: (a.u.)
   Center  Symbol    Alpha    Beta     Spin     Total
       1     H     0.28134  0.28134  0.00000  0.43732
       2     O     4.37084  4.37084  0.00000 -0.74167
       3     C     2.99746  2.99746  0.00000  0.00509
       4     C     3.16147  3.16147  0.00000 -0.32293
       5     H     0.42960  0.42960  0.00000  0.14079
       6     H     0.43120  0.43120  0.00000  0.13761
       7     C     3.15589  3.15589  0.00000 -0.31178
       8     H     0.40774  0.40774  0.00000  0.18453
       9     H     0.42216  0.42216  0.00000  0.15569
      10     C     3.15189  3.15189  0.00000 -0.30377
      11     H     0.41499  0.41499  0.00000  0.17002
      12     H     0.42693  0.42693  0.00000  0.14615
      13     C     3.23913  3.23913  0.00000 -0.47825
      14     H     0.42138  0.42138  0.00000  0.15723
      15     H     0.42447  0.42447  0.00000  0.15106
      16     H     0.42109  0.42109  0.00000  0.15782
      17     H     0.41976  0.41976  0.00000  0.16048
      18     H     0.42268  0.42268  0.00000  0.15464

   Total alpha = 25.00000, Total beta = 25.00000, Total charge = -0.00000
