  ==> Input File <==

--------------------------------------------------------------------------
set {
	reference rhf
	basis cc-pvtz
}

set_num_threads( 4 )
memory 2 gb

molecule MOL {
0 1

H	 -3.162190	 0.493205	 -0.000107
C	 -2.363908	 -0.234727	 0.000005
O	 -1.158738	 0.454634	 -0.000087
H	 -2.464314	 -0.863616	 -0.882153
H	 -2.464327	 -0.863359	 0.882345
C	 -0.028611	 -0.359694	 0.000037
C	 1.212847	 0.509314	 -0.000053
H	 -0.034155	 -1.007047	 -0.877198
H	 -0.034195	 -1.006836	 0.877430
C	 1.372299	 1.297088	 1.295453
H	 2.078030	 -0.124352	 -0.160836
H	 1.160120	 1.186850	 -0.845107
H	 1.451490	 0.636677	 2.152584
H	 2.265968	 1.908350	 1.268327
H	 0.527603	 1.956851	 1.463588

	symmetry c1
}
set optking {
	frozen_dihedral = ("
		11 7 6 8
	")
}

ee = optimize('scf')
oeprop('DIPOLE', 'QUADRUPOLE', 'MULLIKEN_CHARGES')
f=open( 'psi4out.xyz', 'w' )
f.write( "15  " )
f.write( str(ee) + "\n" )
f.write( MOL.save_string_xyz() )
f.close()
--------------------------------------------------------------------------

    Molecular point group: c1
  Charge       = 0
  Multiplicity = 1
  Basis Set: CC-PVTZ
  Basis Set:
  @DF-RHF Final Energy:  -232.22804109415907
    Total Energy =                       -232.2280410941590389
    Molecular point group: c1
  Basis Set: CC-PVTZ
  Basis Set:
  Basis Set: CC-PVTZ
  Basis Set:
  @DF-RHF Final Energy:  -232.22813455175432
    Total Energy =                       -232.2281345517541240
  Basis Set: CC-PVTZ
  Basis Set:
  Basis Set: CC-PVTZ
  Basis Set:
  @DF-RHF Final Energy:  -232.22814474515479
    Total Energy =                       -232.2281447451547933
  Basis Set: CC-PVTZ
  Basis Set:
  Charge       = 0
  Multiplicity = 1
  Basis Set: CC-PVTZ
  Basis Set:

    Orbital Energies (a.u.)
    -----------------------

    Doubly Occupied:

       1A    -20.548245     2A    -11.264768     3A    -11.262340
       4A    -11.213535     5A    -11.202546     6A     -1.382482
       7A     -1.055442     8A     -0.951842     9A     -0.886438
      10A     -0.800376    11A     -0.671470    12A     -0.664021
      13A     -0.634685    14A     -0.591382    15A     -0.568987
      16A     -0.546539    17A     -0.500313    18A     -0.484714
      19A     -0.479971    20A     -0.460788    21A     -0.416151

  @DF-RHF Final Energy:  -232.22814498592709

   => Energetics <=

    Nuclear Repulsion Energy =            192.8764986517648481
    One-Electron Energy =                -697.0352197881019265
    Two-Electron Energy =                 271.9305761504097632
    DFT Exchange-Correlation Energy =       0.0000000000000000
    Empirical Dispersion Energy =           0.0000000000000000
    PCM Polarization Energy =               0.0000000000000000
    EFP Energy =                            0.0000000000000000
    Total Energy =                       -232.2281449859273152
    Molecular point group: c1
  Basis Set: CC-PVTZ
  Basis Set:

  -Total Gradient:
     Atom            X                  Y                   Z
    ------   -----------------  -----------------  -----------------
       1       -0.000012567183    -0.000006517982    -0.000000100631
       2       -0.000024510565     0.000010863191     0.000007252571
       3        0.000007022191    -0.000022048510     0.000029261409
       4        0.000003687859     0.000000136007     0.000001365233
       5       -0.000001098193     0.000000461536    -0.000003820942
       6       -0.000497260861     0.000778163100    -0.000753372742
       7        0.000226514717    -0.000286969862     0.001088017831
       8        0.000413955008    -0.000585975816     0.000428518160
       9       -0.000020382718     0.000019150658     0.000003608231
      10       -0.000031584327     0.000016171423     0.000015472737
      11       -0.000052473537     0.000101451879    -0.000814811040
      12       -0.000013135667    -0.000013812885     0.000004721579
      13        0.000007797887    -0.000004209364    -0.000000361406
      14       -0.000005850911    -0.000012767894    -0.000010131693
      15       -0.000000113703     0.000005904517     0.000004380703

  **** Optimization is complete! (in 4 steps) ****
    Final optimized geometry and variables:
    Molecular point group: c1

    Geometry (in Angstrom), charge = 0, multiplicity = 1:

    H           -2.940924836305     0.158585634693    -0.267041891960
    C           -2.139583783812    -0.566125556052    -0.261697051518
    O           -0.936858266269     0.126971085755    -0.270415763639
    H           -2.239097528749    -1.203433969479    -1.138008913721
    H           -2.235966918034    -1.187312314344     0.626316701572
    C            0.197069336108    -0.683477977282    -0.270825505660
    C            1.441743954455     0.182903430564    -0.251231625897
    H            0.201041285755    -1.321335775935    -1.153809678512
    H            0.184232253314    -1.341029125048     0.599275883794
    C            1.611811793943     0.977976056407     1.038494619182
    H            2.302304033453    -0.460315481830    -0.410025765177
    H            1.398309605742     0.859363320122    -1.098420928203
    H            1.695621129430     0.317299599207     1.895545606086
    H            2.507879143128     1.586627102334     1.001886505836
    H            0.766243951364     1.632849758865     1.202826153583

  Mulliken Charges: (a.u.)
   Center  Symbol    Alpha    Beta     Spin     Total
       1     H     0.44720  0.44720  0.00000  0.10561
       2     C     3.03225  3.03225  0.00000 -0.06449
       3     O     4.17507  4.17507  0.00000 -0.35014
       4     H     0.47142  0.47142  0.00000  0.05715
       5     H     0.47195  0.47195  0.00000  0.05610
       6     C     2.97020  2.97020  0.00000  0.05961
       7     C     3.07991  3.07991  0.00000 -0.15982
       8     H     0.46556  0.46556  0.00000  0.06888
       9     H     0.47419  0.47419  0.00000  0.05162
      10     C     3.14970  3.14970  0.00000 -0.29941
      11     H     0.45533  0.45533  0.00000  0.08935
      12     H     0.45260  0.45260  0.00000  0.09481
      13     H     0.45850  0.45850  0.00000  0.08301
      14     H     0.45036  0.45036  0.00000  0.09928
      15     H     0.44578  0.44578  0.00000  0.10844

   Total alpha = 21.00000, Total beta = 21.00000, Total charge = -0.00000
