  ==> Input File <==

--------------------------------------------------------------------------
set {
	reference rhf
	basis cc-pvtz
}

set_num_threads( 4 )
memory 2 gb

molecule MOL {
0 1

H	 1.128311	 0.207724	 1.465118
C	 1.134565	 0.093781	 0.372499
C	 0.062554	 0.862911	 -0.350953
O	 1.948932	 -0.587720	 -0.146651
C	 -0.612226	 0.039523	 -1.452460
H	 0.497176	 1.772617	 -0.744695
H	 -0.679863	 1.140328	 0.393985
C	 0.315004	 -0.289059	 -2.619048
H	 -1.469847	 0.592814	 -1.817056
H	 -1.004380	 -0.879502	 -1.025782
H	 0.688717	 0.615998	 -3.084631
H	 -0.206670	 -0.862631	 -3.375694
H	 1.173127	 -0.869535	 -2.298567

	symmetry c1
}
set optking {
	frozen_dihedral = ("
		6 3 2 4
	")
}

ee = optimize('scf')
oeprop('DIPOLE', 'QUADRUPOLE', 'MULLIKEN_CHARGES')
f=open( 'psi4out.xyz', 'w' )
f.write( "13  " )
f.write( str(ee) + "\n" )
f.write( MOL.save_string_xyz() )
f.close()
--------------------------------------------------------------------------

    Molecular point group: c1
  Charge       = 0
  Multiplicity = 1
  Basis Set: CC-PVTZ
  Basis Set:
  @DF-RHF Final Energy:  -231.06604150656190
    Total Energy =                       -231.0660415065617599
    Molecular point group: c1
  Basis Set: CC-PVTZ
  Basis Set:
  Basis Set: CC-PVTZ
  Basis Set:
  @DF-RHF Final Energy:  -231.06778024668182
    Total Energy =                       -231.0677802466817923
  Basis Set: CC-PVTZ
  Basis Set:
  Basis Set: CC-PVTZ
  Basis Set:
  @DF-RHF Final Energy:  -231.06786404284904
    Total Energy =                       -231.0678640428491519
  Basis Set: CC-PVTZ
  Basis Set:
  Basis Set: CC-PVTZ
  Basis Set:
  @DF-RHF Final Energy:  -231.06770945525295
    Total Energy =                       -231.0677094552530662
  Basis Set: CC-PVTZ
  Basis Set:
  Basis Set: CC-PVTZ
  Basis Set:
  @DF-RHF Final Energy:  -231.06801372093361
    Total Energy =                       -231.0680137209336351
  Basis Set: CC-PVTZ
  Basis Set:
  Basis Set: CC-PVTZ
  Basis Set:
  @DF-RHF Final Energy:  -231.06801878355543
    Total Energy =                       -231.0680187835555159
  Basis Set: CC-PVTZ
  Basis Set:
  Charge       = 0
  Multiplicity = 1
  Basis Set: CC-PVTZ
  Basis Set:

    Orbital Energies (a.u.)
    -----------------------

    Doubly Occupied:

       1A    -20.553425     2A    -11.324144     3A    -11.236426
       4A    -11.228562     5A    -11.205725     6A     -1.409168
       7A     -1.077846     8A     -0.972169     9A     -0.846365
      10A     -0.774531    11A     -0.685910    12A     -0.650159
      13A     -0.604109    14A     -0.589756    15A     -0.572179
      16A     -0.524675    17A     -0.498833    18A     -0.486817
      19A     -0.480974    20A     -0.409821

  @DF-RHF Final Energy:  -231.06801963338293

   => Energetics <=

    Nuclear Repulsion Energy =            176.0868999225570235
    One-Electron Energy =                -662.0466494296068731
    Two-Electron Energy =                 254.8917298736667192
    DFT Exchange-Correlation Energy =       0.0000000000000000
    Empirical Dispersion Energy =           0.0000000000000000
    PCM Polarization Energy =               0.0000000000000000
    EFP Energy =                            0.0000000000000000
    Total Energy =                       -231.0680196333831589
    Molecular point group: c1
  Basis Set: CC-PVTZ
  Basis Set:

  -Total Gradient:
     Atom            X                  Y                   Z
    ------   -----------------  -----------------  -----------------
       1        0.000021695778    -0.000008475875    -0.000009691840
       2       -0.002158914185    -0.002773876005     0.000133229748
       3        0.000047724276     0.002216277676     0.001983148149
       4        0.001569646717     0.001738845160    -0.000324171048
       5       -0.000007447940     0.000029761416    -0.000020285248
       6        0.000488797466    -0.001216436657    -0.001741338544
       7        0.000019131628     0.000015851442    -0.000009372158
       8        0.000025649161    -0.000026445521    -0.000014092206
       9        0.000002635099     0.000004147145     0.000002036720
      10        0.000002001270     0.000014033242     0.000009092498
      11       -0.000006420279    -0.000005558529    -0.000004323640
      12        0.000005605637     0.000000347151    -0.000004356895
      13       -0.000010104626     0.000011529353     0.000000124461

  **** Optimization is complete! (in 7 steps) ****
    Final optimized geometry and variables:
    Molecular point group: c1

    Geometry (in Angstrom), charge = 0, multiplicity = 1:

    H            0.533611140200     0.332107455743     2.354643878899
    C            0.535900826106     0.099132281718     1.282744055627
    C           -0.490149461268     0.840564138652     0.457700867645
    O            1.334138377231    -0.659565649565     0.851506774171
    C           -1.160832494297     0.011237217521    -0.645180679264
    H            0.028839595356     1.685097447323     0.008827397652
    H           -1.235463410865     1.248273238293     1.130847190935
    C           -0.289806931542    -0.237718278900    -1.873245348440
    H           -2.059481750694     0.536955988413    -0.949928003733
    H           -1.487714185680    -0.936792414441    -0.230281430875
    H            0.014238359479     0.700905128535    -2.325868636001
    H           -0.841379489691    -0.798386469867    -2.619271770342
    H            0.601366996979    -0.792507974487    -1.619711326244

  Mulliken Charges: (a.u.)
   Center  Symbol    Alpha    Beta     Spin     Total
       1     H     0.44976  0.44976  0.00000  0.10048
       2     C     2.92023  2.92023  0.00000  0.15954
       3     C     3.09558  3.09558  0.00000 -0.19116
       4     O     4.16772  4.16772  0.00000 -0.33543
       5     C     3.08393  3.08393  0.00000 -0.16786
       6     H     0.44540  0.44540  0.00000  0.10920
       7     H     0.44129  0.44129  0.00000  0.11742
       8     C     3.14734  3.14734  0.00000 -0.29469
       9     H     0.44784  0.44784  0.00000  0.10433
      10     H     0.45147  0.45147  0.00000  0.09706
      11     H     0.45951  0.45951  0.00000  0.08097
      12     H     0.45074  0.45074  0.00000  0.09851
      13     H     0.43919  0.43919  0.00000  0.12162

   Total alpha = 20.00000, Total beta = 20.00000, Total charge = -0.00000
