                              Psi4 1.0.54 Driver

  ==> Input File <==

--------------------------------------------------------------------------
set {
	reference rhf
	basis cc-pvtz
}

set_num_threads( 4 )
memory 2 gb

molecule MOL {
0 1

H	 2.336358	 -0.957350	 0.883346
O	 2.012307	 -0.863440	 0.000222
C	 1.050374	 0.054877	 0.000135
C	 -0.318151	 -0.570512	 0.000144
O	 1.286319	 1.213453	 -0.000040
C	 -1.454884	 0.441630	 -0.000560
H	 -0.371613	 -1.223646	 -0.864985
H	 -0.371920	 -1.222758	 0.865929
C	 -2.822577	 -0.232186	 0.000063
H	 -1.359760	 1.084704	 -0.867077
H	 -1.359641	 1.085996	 0.864983
H	 -2.954352	 -0.858985	 -0.875745
H	 -3.615886	 0.505352	 0.000019
H	 -2.953878	 -0.858359	 0.876394

	symmetry c1
}
set optking {
	frozen_dihedral = ("
		1 2 3 5
	")
}

ee,wfn = optimize('scf', return_wfn=True)
oeprop( wfn, 'DIPOLE', 'QUADRUPOLE', 'MULLIKEN_CHARGES')
f=open( 'psi4out.xyz', 'w' )
f.write( "14  " )
f.write( str(ee) + "\n" )
f.write( MOL.save_string_xyz() )
f.close()
--------------------------------------------------------------------------

    Molecular point group: c1
  Charge       = 0
  Multiplicity = 1
  Basis Set: CC-PVTZ
  Basis Set:
  @DF-RHF Final Energy:  -305.98080182927976
    Total Energy =                       -305.9808018292796987
    Molecular point group: c1
  Basis Set: CC-PVTZ
  Basis Set:
  Basis Set: CC-PVTZ
  Basis Set:
  @DF-RHF Final Energy:  -305.98029693027689
    Total Energy =                       -305.9802969302768929
  Basis Set: CC-PVTZ
  Basis Set:
  Basis Set: CC-PVTZ
  Basis Set:
  @DF-RHF Final Energy:  -305.98149529703272
    Total Energy =                       -305.9814952970326658
  Basis Set: CC-PVTZ
  Basis Set:
  Basis Set: CC-PVTZ
  Basis Set:
  @DF-RHF Final Energy:  -305.98244546528883
    Total Energy =                       -305.9824454652890608
  Basis Set: CC-PVTZ
  Basis Set:
  Basis Set: CC-PVTZ
  Basis Set:
  @DF-RHF Final Energy:  -305.98245456077183
    Total Energy =                       -305.9824545607717710
  Basis Set: CC-PVTZ
  Basis Set:
  Charge       = 0
  Multiplicity = 1
  Basis Set: CC-PVTZ
  Basis Set:

    Orbital Energies (a.u.)
    -----------------------

    Doubly Occupied:

       1A    -20.586798     2A    -20.550837     3A    -11.374647
       4A    -11.241189     5A    -11.224958     6A    -11.216713
       7A     -1.464122     8A     -1.370593     9A     -1.084385
      10A     -0.978149    11A     -0.854074    12A     -0.798056
      13A     -0.712440    14A     -0.680387    15A     -0.665584
      16A     -0.631514    17A     -0.579785    18A     -0.560463
      19A     -0.545111    20A     -0.509301    21A     -0.498996
      22A     -0.484232    23A     -0.484141    24A     -0.447724

  @DF-RHF Final Energy:  -305.98245517398720

   => Energetics <=

    Nuclear Repulsion Energy =            239.6615340784198622
    One-Electron Energy =                -892.1995848547171590
    Two-Electron Energy =                 346.5555956023102340
    DFT Exchange-Correlation Energy =       0.0000000000000000
    Empirical Dispersion Energy =           0.0000000000000000
    PCM Polarization Energy =               0.0000000000000000
    EFP Energy =                            0.0000000000000000
    Total Energy =                       -305.9824551739870344
    Molecular point group: c1
  Basis Set: CC-PVTZ
  Basis Set:

  -Total Gradient:
     Atom            X                  Y                   Z
    ------   -----------------  -----------------  -----------------
       1       -0.003532680169    -0.003966399778     0.001257163326
       2        0.004188216680     0.005027471744    -0.003704923830
       3       -0.000235910155    -0.001248510477     0.007198780568
       4        0.000023628623     0.000021784818     0.000052347617
       5       -0.000469363690     0.000163235835    -0.004765954257
       6        0.000004345175     0.000017013242    -0.000016531485
       7        0.000011300671    -0.000002231514    -0.000019030309
       8       -0.000000178069    -0.000008201072    -0.000011644120
       9        0.000008826928    -0.000006418394     0.000002950790
      10        0.000000064716     0.000000823940     0.000000395541
      11       -0.000001042475     0.000002768855     0.000006545269
      12       -0.000001359336    -0.000000996346    -0.000004202490
      13        0.000005602612     0.000001282121     0.000000241234
      14       -0.000001451510    -0.000001622974     0.000003862145

  **** Optimization is complete! (in 6 steps) ****
    Final optimized geometry and variables:
    Molecular point group: c1

    Geometry (in Angstrom), charge = 0, multiplicity = 1:

    H            2.474018168872    -1.014090953172     0.720452025623
    O            2.040870948271    -0.871314553076    -0.104911071373
    C            1.053815501142     0.057676313385    -0.002876827462
    C           -0.321082216890    -0.554141870991     0.007354963863
    O            1.286018088311     1.208933165737    -0.003857298809
    C           -1.456548052910     0.458435504277     0.030500267043
    H           -0.381870546387    -1.199068224209    -0.863803819437
    H           -0.370641270153    -1.221067429166     0.864094726923
    C           -2.825916957889    -0.212138466089     0.034327399434
    H           -1.367149312801     1.111967254715    -0.828797337764
    H           -1.353016399361     1.092366572857     0.903144223667
    H           -2.966299611993    -0.827461704510    -0.848171544499
    H           -3.617604020434     0.526940407810     0.050299183277
    H           -2.951532741124    -0.849124608282     0.903803186625

  Mulliken Charges: (a.u.)
   Center  Symbol    Alpha    Beta     Spin     Total
       1     H     0.38631  0.38631  0.00000  0.22737
       2     O     4.17699  4.17699  0.00000 -0.35398
       3     C     2.80164  2.80164  0.00000  0.39671
       4     C     3.10794  3.10794  0.00000 -0.21589
       5     O     4.16321  4.16321  0.00000 -0.32642
       6     C     3.08086  3.08086  0.00000 -0.16172
       7     H     0.43737  0.43737  0.00000  0.12525
       8     H     0.44755  0.44755  0.00000  0.10490
       9     C     3.15013  3.15013  0.00000 -0.30026
      10     H     0.44495  0.44495  0.00000  0.11010
      11     H     0.44714  0.44714  0.00000  0.10572
      12     H     0.45488  0.45488  0.00000  0.09024
      13     H     0.44486  0.44486  0.00000  0.11028
      14     H     0.45615  0.45615  0.00000  0.08770

   Total alpha = 24.00000, Total beta = 24.00000, Total charge = -0.00000

*** Psi4 exiting successfully. Buy a developer a beer!
