  ==> Input File <==

--------------------------------------------------------------------------
set {
	reference rhf
	basis 6-31G*
}

set_num_threads( 4 )
memory 2 gb

molecule MOL {
0 1

H	 1.265709	 -2.294013	 -2.136956
C	 1.247992	 -1.333874	 -1.628963
C	 0.094065	 -1.281286	 -0.632566
H	 1.134589	 -0.552320	 -2.371982
H	 2.211668	 -1.200038	 -1.149432
N	 -0.000257	 -0.000071	 0.054619
H	 -0.827189	 -1.445278	 -1.177338
H	 0.175844	 -2.106578	 0.080800
C	 -1.363055	 0.315058	 0.462241
C	 0.950973	 0.115288	 1.152121
C	 -2.412078	 -0.285320	 -0.468531
H	 -1.482241	 1.391144	 0.451970
H	 -1.549931	 -0.001174	 1.492681
C	 1.369056	 1.557206	 1.422894
H	 1.838803	 -0.448416	 0.894925
H	 0.556728	 -0.339486	 2.065653
H	 -2.262839	 0.075384	 -1.480151
H	 -2.369300	 -1.368867	 -0.491760
H	 -3.410332	 -0.003975	 -0.144961
H	 1.814604	 1.989242	 0.533812
H	 0.530202	 2.181284	 1.711687
H	 2.097584	 1.595069	 2.227966

	symmetry c1
}
set optking {
	frozen_dihedral = ("
		3 6 9 11
	")
}

ee = optimize('scf')
oeprop('DIPOLE', 'QUADRUPOLE', 'MULLIKEN_CHARGES')
f=open( 'psi4out.xyz', 'w' )
f.write( "22  " )
f.write( str(ee) + "\n" )
f.write( MOL.save_string_xyz() )
f.close()
--------------------------------------------------------------------------

    Molecular point group: c1
  Charge       = 0
  Multiplicity = 1
  Basis Set: 6-31G*
  Basis Set:
  @DF-RHF Final Energy:  -290.35741214219769
    Total Energy =                       -290.3574121421979157
    Molecular point group: c1
  Basis Set: 6-31G*
  Basis Set:
  Basis Set: 6-31G*
  Basis Set:
  @DF-RHF Final Energy:  -290.35299984720729
    Total Energy =                       -290.3529998472071725
  Basis Set: 6-31G*
  Basis Set:
  Basis Set: 6-31G*
  Basis Set:
  @DF-RHF Final Energy:  -290.36390129574346
    Total Energy =                       -290.3639012957431760
  Basis Set: 6-31G*
  Basis Set:
  Basis Set: 6-31G*
  Basis Set:
  @DF-RHF Final Energy:  -290.36605978790772
    Total Energy =                       -290.3660597879076022
  Basis Set: 6-31G*
  Basis Set:
  @DF-RHF Final Energy:  -290.36621544669498
    Total Energy =                       -290.3662154466948664
  @DF-RHF Final Energy:  -290.36644819143896
    Total Energy =                       -290.3664481914389626
  @DF-RHF Final Energy:  -290.36646719713531
    Total Energy =                       -290.3664671971352504
  @DF-RHF Final Energy:  -290.36648487189723
    Total Energy =                       -290.3664848718964890
  Basis Set: 6-31G*
  Basis Set:
  @DF-RHF Final Energy:  -290.36648911127719
    Total Energy =                       -290.3664891112772466
  Basis Set: 6-31G*
  Basis Set:
  Basis Set: 6-31G*
  Basis Set:
  @DF-RHF Final Energy:  -290.36649196843365
    Total Energy =                       -290.3664919684335359
  Basis Set: 6-31G*
  Basis Set:
  Basis Set: 6-31G*
  Basis Set:
  @DF-RHF Final Energy:  -290.36649398813904
    Total Energy =                       -290.3664939881390410
  Basis Set: 6-31G*
  Basis Set:
  Charge       = 0
  Multiplicity = 1
  Basis Set: 6-31G*
  Basis Set:

    Orbital Energies (a.u.)
    -----------------------

    Doubly Occupied:

       1A    -15.535135     2A    -11.240940     3A    -11.238851
       4A    -11.238193     5A    -11.212239     6A    -11.204841
       7A    -11.204224     8A     -1.220046     9A     -1.024323
      10A     -1.022864    11A     -0.956975    12A     -0.855787
      13A     -0.844162    14A     -0.759967    15A     -0.648427
      16A     -0.639931    17A     -0.630513    18A     -0.594463
      19A     -0.592208    20A     -0.546949    21A     -0.529689
      22A     -0.519960    23A     -0.515917    24A     -0.501538
      25A     -0.490838    26A     -0.486297    27A     -0.465059
      28A     -0.459880    29A     -0.333155

  @DF-RHF Final Energy:  -290.36649434716577

   => Energetics <=

    Nuclear Repulsion Energy =            337.4580225016027839
    One-Electron Energy =               -1060.6222867604033127
    Two-Electron Energy =                 432.7977699116347594
    DFT Exchange-Correlation Energy =       0.0000000000000000
    Empirical Dispersion Energy =           0.0000000000000000
    PCM Polarization Energy =               0.0000000000000000
    EFP Energy =                            0.0000000000000000
    Total Energy =                       -290.3664943471658262
    Molecular point group: c1
  Basis Set: 6-31G*
  Basis Set:

  -Total Gradient:
     Atom            X                  Y                   Z
    ------   -----------------  -----------------  -----------------
       1       -0.000008461024    -0.000005781026     0.000028140742
       2        0.000014641258     0.000013303077     0.000076025608
       3       -0.000587541489     0.001585073512    -0.003347223064
       4       -0.000015272185    -0.000000761599    -0.000019585209
       5        0.000001067180     0.000014135175    -0.000061334545
       6        0.000854809910    -0.003883564496     0.005627611320
       7        0.000062313308     0.000056252232    -0.000017440692
       8        0.000004401759     0.000020254276     0.000000128707
       9        0.000007590036     0.005085185321    -0.004517765071
      10        0.000034663749     0.000006104154     0.000098891545
      11       -0.000217966846    -0.002993108287     0.002099467692
      12        0.000063147277     0.000000720689     0.000049046391
      13       -0.000033225396    -0.000029251923    -0.000036469889
      14       -0.000050015935    -0.000029429777    -0.000007717653
      15       -0.000029798360     0.000001221000     0.000038484543
      16       -0.000014003937     0.000037148940    -0.000021562333
      17       -0.000028559402     0.000015354813    -0.000000810781
      18       -0.000029802822     0.000053235949     0.000020678648
      19       -0.000040397295     0.000023648692    -0.000008641854
      20       -0.000000738695     0.000002337978     0.000006837816
      21       -0.000010409879     0.000015117449     0.000001606667
      22        0.000023558787     0.000012803852    -0.000008368588

  **** Optimization is complete! (in 12 steps) ****
    Final optimized geometry and variables:
    Molecular point group: c1

    Geometry (in Angstrom), charge = 0, multiplicity = 1:

    H            1.377680262590    -2.199290214447    -2.191882660012
    C            1.377452524607    -1.265068401551    -1.637289424973
    C            0.161396506943    -1.211752503107    -0.713738964350
    H            1.342180938203    -0.444431439542    -2.345432265924
    H            2.318777380050    -1.207888318146    -1.103244967674
    N            0.028824779675     0.064791433504    -0.030295166048
    H           -0.709088015869    -1.366463014129    -1.331012316668
    H            0.196572497200    -2.051879658399    -0.011574149387
    C           -1.308175740419     0.469930141076     0.397766892687
    C            1.004900133604     0.254985406052     1.027811036817
    C           -2.479235579571    -0.027459086772    -0.444504407008
    H           -1.338050956148     1.553368470559     0.410071404411
    H           -1.490582435503     0.147793679866     1.428374857540
    C            1.221538109114     1.718981085841     1.403210513368
    H            1.952680603885    -0.145420233191     0.694822053488
    H            0.726230701344    -0.312433578557     1.922701462917
    H           -2.356762073367     0.221132376649    -1.493834294475
    H           -2.629536549414    -1.097014067881    -0.358610407056
    H           -3.385768360812     0.456936087554    -0.094976616898
    H            1.463579161719     2.301624268131     0.520738015069
    H            0.349792080620     2.160452888133     1.872713545910
    H            2.045220402501     1.802252186440     2.106108701155

  Mulliken Charges: (a.u.)
   Center  Symbol    Alpha    Beta     Spin     Total
       1     H     0.42324  0.42324  0.00000  0.15352
       2     C     3.23782  3.23782  0.00000 -0.47563
       3     C     3.05400  3.05400  0.00000 -0.10800
       4     H     0.41540  0.41540  0.00000  0.16920
       5     H     0.42132  0.42132  0.00000  0.15735
       6     N     3.79512  3.79512  0.00000 -0.59024
       7     H     0.41349  0.41349  0.00000  0.17302
       8     H     0.43567  0.43567  0.00000  0.12866
       9     C     3.04102  3.04102  0.00000 -0.08205
      10     C     3.05384  3.05384  0.00000 -0.10768
      11     C     3.25678  3.25678  0.00000 -0.51356
      12     H     0.41673  0.41673  0.00000  0.16655
      13     H     0.43578  0.43578  0.00000  0.12845
      14     C     3.24254  3.24254  0.00000 -0.48508
      15     H     0.41786  0.41786  0.00000  0.16427
      16     H     0.43454  0.43454  0.00000  0.13092
      17     H     0.41505  0.41505  0.00000  0.16990
      18     H     0.41731  0.41731  0.00000  0.16537
      19     H     0.41634  0.41634  0.00000  0.16732
      20     H     0.41475  0.41475  0.00000  0.17051
      21     H     0.41977  0.41977  0.00000  0.16047
      22     H     0.42163  0.42163  0.00000  0.15675

   Total alpha = 29.00000, Total beta = 29.00000, Total charge = -0.00000
