  ==> Input File <==

--------------------------------------------------------------------------
set {
	reference rhf
	basis 6-31G*
}

set_num_threads( 4 )
memory 2 gb

molecule MOL {
0 1

O	 2.724407	 1.570737	 0.412032
C	 2.404379	 0.844101	 1.302167
C	 1.119396	 0.036373	 1.265679
C	 3.267882	 0.680221	 2.536129
C	 0.291004	 0.242674	 0.000989
H	 1.382377	 -1.013679	 1.386598
H	 0.539690	 0.292189	 2.151626
C	 -0.994322	 -0.586602	 0.000262
H	 0.894483	 -0.010852	 -0.864844
H	 0.050620	 1.296423	 -0.098891
C	 -2.259874	 0.272531	 0.000494
H	 -1.004862	 -1.240012	 -0.870939
H	 -1.005220	 -1.241071	 0.870675
C	 -3.549786	 -0.549746	 -0.000374
H	 -2.250389	 0.926680	 -0.869574
H	 -2.250838	 0.925513	 0.871430
C	 -4.809590	 0.315458	 -0.000369
H	 -3.560515	 -1.202009	 -0.871156
H	 -3.561123	 -1.202955	 0.869711
H	 -4.844746	 0.956611	 -0.876632
H	 -5.706986	 -0.295590	 -0.001609
H	 -4.845960	 0.954827	 0.877144
H	 3.562955	 -0.358009	 2.657074
H	 4.150462	 1.298455	 2.448518
H	 2.713859	 0.963466	 3.426334

	symmetry c1
}
set optking {
	frozen_dihedral = ("
		9 5 8 12
	")
}

ee = optimize('scf')
oeprop('DIPOLE', 'QUADRUPOLE', 'MULLIKEN_CHARGES')
f=open( 'psi4out.xyz', 'w' )
f.write( "25  " )
f.write( str(ee) + "\n" )
f.write( MOL.save_string_xyz() )
f.close()
--------------------------------------------------------------------------

    Molecular point group: c1
  Charge       = 0
  Multiplicity = 1
  Basis Set: 6-31G*
  Basis Set:
  @DF-RHF Final Energy:  -387.13075664078309
    Total Energy =                       -387.1307566407829199
    Molecular point group: c1
  Basis Set: 6-31G*
  Basis Set:
  Basis Set: 6-31G*
  Basis Set:
  @DF-RHF Final Energy:  -387.13099384027652
    Total Energy =                       -387.1309938402766875
  Basis Set: 6-31G*
  Basis Set:
  Basis Set: 6-31G*
  Basis Set:
  @DF-RHF Final Energy:  -387.13104131959449
    Total Energy =                       -387.1310413195942601
  Basis Set: 6-31G*
  Basis Set:
  Basis Set: 6-31G*
  Basis Set:
  @DF-RHF Final Energy:  -387.13078890829973
    Total Energy =                       -387.1307889082993370
  Basis Set: 6-31G*
  Basis Set:
  Basis Set: 6-31G*
  Basis Set:
  @DF-RHF Final Energy:  -387.13107056882711
    Total Energy =                       -387.1310705688269991
  Basis Set: 6-31G*
  Basis Set:
  Basis Set: 6-31G*
  Basis Set:
  @DF-RHF Final Energy:  -387.13106280040893
    Total Energy =                       -387.1310628004094951
  Basis Set: 6-31G*
  Basis Set:
  Basis Set: 6-31G*
  Basis Set:
  @DF-RHF Final Energy:  -387.13107241581014
    Total Energy =                       -387.1310724158101948
  Basis Set: 6-31G*
  Basis Set:
  Charge       = 0
  Multiplicity = 1
  Basis Set: 6-31G*
  Basis Set:

    Orbital Energies (a.u.)
    -----------------------

    Doubly Occupied:

       1A    -20.550576     2A    -11.326107     3A    -11.232292
       4A    -11.228350     5A    -11.216682     6A    -11.216141
       7A    -11.215875     8A    -11.214816     9A    -11.209137
      10A     -1.395745    11A     -1.092207    12A     -1.056148
      13A     -1.013665    14A     -0.969032    15A     -0.891441
      16A     -0.815602    17A     -0.790980    18A     -0.731909
      19A     -0.658134    20A     -0.646372    21A     -0.638107
      22A     -0.621737    23A     -0.597357    24A     -0.577913
      25A     -0.568756    26A     -0.564897    27A     -0.540084
      28A     -0.522577    29A     -0.518049    30A     -0.491684
      31A     -0.484174    32A     -0.477794    33A     -0.464384
      34A     -0.459924    35A     -0.445671    36A     -0.399502

  @DF-RHF Final Energy:  -387.13107246310557

   => Energetics <=

    Nuclear Repulsion Energy =            440.4232781650986794
    One-Electron Energy =               -1397.4210531013682157
    Two-Electron Energy =                 569.8667024731632864
    DFT Exchange-Correlation Energy =       0.0000000000000000
    Empirical Dispersion Energy =           0.0000000000000000
    PCM Polarization Energy =               0.0000000000000000
    EFP Energy =                            0.0000000000000000
    Total Energy =                       -387.1310724631061930
    Molecular point group: c1
  Basis Set: 6-31G*
  Basis Set:

  -Total Gradient:
     Atom            X                  Y                   Z
    ------   -----------------  -----------------  -----------------
       1       -0.000008106171     0.000000466111    -0.000000391708
       2        0.000004262460    -0.000001025102     0.000001082971
       3       -0.000008210835     0.000009941377     0.000003930548
       4        0.000010075711    -0.000017350416    -0.000007841328
       5        0.000563792580    -0.000890855437     0.000651645765
       6        0.000006409661     0.000001285549    -0.000004258934
       7        0.000001008577    -0.000004493164    -0.000000590034
       8       -0.000559179025     0.000881849949    -0.000643671746
       9       -0.000376906569     0.000598273627    -0.000439253092
      10       -0.000001536708     0.000004471328    -0.000000738809
      11       -0.000000368560    -0.000001673048     0.000003940327
      12        0.000371897693    -0.000591710540     0.000436713730
      13        0.000000826314    -0.000002101792     0.000001587250
      14        0.000000813961    -0.000000519934    -0.000013760479
      15       -0.000001352451    -0.000004314876    -0.000000582650
      16       -0.000000902288     0.000002580298    -0.000000837648
      17        0.000001573828     0.000002601009     0.000010764943
      18        0.000003128102     0.000002393620    -0.000003801470
      19        0.000001007812    -0.000000922802    -0.000002847865
      20       -0.000001197464    -0.000004259374    -0.000003091661
      21        0.000002588449    -0.000000879898     0.000005097997
      22        0.000000238651     0.000005257981    -0.000001222245
      23       -0.000003041454     0.000001555396     0.000008544963
      24       -0.000003056900     0.000001406919    -0.000000692721
      25       -0.000003765388     0.000008023213     0.000000273897

  **** Optimization is complete! (in 8 steps) ****
    Final optimized geometry and variables:
    Molecular point group: c1

    Geometry (in Angstrom), charge = 0, multiplicity = 1:

    O            2.927108550957     1.267042399740    -0.190963891522
    C            2.612948043474     0.528965967348     0.692000532545
    C            1.338526102116    -0.294310292257     0.643904819820
    C            3.474170761641     0.365765150820     1.927695488254
    C            0.515860538390    -0.095639446337    -0.626617647035
    H            1.612275096060    -1.341461337326     0.764898730209
    H            0.747933287341    -0.046983257300     1.525406470249
    C           -0.792222581226    -0.918311851930    -0.634567610275
    H            1.128089451468    -0.344846222533    -1.485519589429
    H            0.291205435600     0.960390102933    -0.730977552284
    C           -2.055798031930    -0.054772544050    -0.626086050950
    H           -0.812324040104    -1.570060667166    -1.503947039408
    H           -0.818374824886    -1.583035168929     0.226883143232
    C           -3.348635320100    -0.871239873479    -0.613805276671
    H           -2.049405097566     0.597006387057    -1.497799586400
    H           -2.036317848977     0.601798752378     0.242968024176
    C           -4.605163305229    -0.001169779465    -0.609054242945
    H           -3.367636012261    -1.527358160987    -1.481518509518
    H           -3.356532665472    -1.520867621307     0.259130383495
    H           -4.644848370510     0.634694495671    -1.488913565602
    H           -5.504786427986    -0.608777928141    -0.599500159641
    H           -4.632400369800     0.643701330043     0.264846836151
    H            3.785515730484    -0.668828547815     2.038613134871
    H            4.347068665002     0.998883128380     1.850022775353
    H            2.912467450821     0.630498429145     2.818800892276

  Mulliken Charges: (a.u.)
   Center  Symbol    Alpha    Beta     Spin     Total
       1     O     4.26110  4.26110  0.00000 -0.52220
       2     C     2.73626  2.73626  0.00000  0.52747
       3     C     3.21206  3.21206  0.00000 -0.42411
       4     C     3.28671  3.28671  0.00000 -0.57341
       5     C     3.15236  3.15236  0.00000 -0.30473
       6     H     0.40951  0.40951  0.00000  0.18098
       7     H     0.40999  0.40999  0.00000  0.18003
       8     C     3.15815  3.15815  0.00000 -0.31630
       9     H     0.40977  0.40977  0.00000  0.18046
      10     H     0.40883  0.40883  0.00000  0.18234
      11     C     3.15210  3.15210  0.00000 -0.30420
      12     H     0.41884  0.41884  0.00000  0.16233
      13     H     0.42378  0.42378  0.00000  0.15245
      14     C     3.15226  3.15226  0.00000 -0.30453
      15     H     0.42101  0.42101  0.00000  0.15798
      16     H     0.42520  0.42520  0.00000  0.14961
      17     C     3.23921  3.23921  0.00000 -0.47841
      18     H     0.42262  0.42262  0.00000  0.15476
      19     H     0.42387  0.42387  0.00000  0.15225
      20     H     0.42105  0.42105  0.00000  0.15790
      21     H     0.41934  0.41934  0.00000  0.16131
      22     H     0.42203  0.42203  0.00000  0.15594
      23     H     0.40868  0.40868  0.00000  0.18265
      24     H     0.39646  0.39646  0.00000  0.20707
      25     H     0.40882  0.40882  0.00000  0.18237

   Total alpha = 36.00000, Total beta = 36.00000, Total charge =  0.00000
