                              Psi4 1.0.54 Driver

  ==> Input File <==

--------------------------------------------------------------------------
set {
	reference rhf
	basis cc-pvtz
}

set_num_threads( 4 )
memory 2 gb

molecule MOL {
0 1

H	 -3.162190	 0.493205	 -0.000107
C	 -2.363908	 -0.234727	 0.000005
O	 -1.158738	 0.454634	 -0.000087
H	 -2.464314	 -0.863616	 -0.882153
H	 -2.464327	 -0.863359	 0.882345
C	 -0.028611	 -0.359694	 0.000037
C	 1.212847	 0.509314	 -0.000053
H	 -0.034155	 -1.007047	 -0.877198
H	 -0.034195	 -1.006836	 0.877430
C	 1.645561	 0.906720	 1.406779
H	 2.011371	 -0.029158	 -0.498382
H	 1.014634	 1.394715	 -0.593962
H	 1.872566	 0.035116	 2.011644
H	 2.533517	 1.526143	 1.377279
H	 0.869300	 1.468753	 1.915311

	symmetry c1
}
set optking {
	frozen_dihedral = ("
		11 7 6 8
	")
}

ee,wfn = optimize('scf', return_wfn=True)
oeprop( wfn, 'DIPOLE', 'QUADRUPOLE', 'MULLIKEN_CHARGES')
f=open( 'psi4out.xyz', 'w' )
f.write( "15  " )
f.write( str(ee) + "\n" )
f.write( MOL.save_string_xyz() )
f.close()
--------------------------------------------------------------------------

    Molecular point group: c1
  Charge       = 0
  Multiplicity = 1
  Basis Set: CC-PVTZ
  Basis Set:
  @DF-RHF Final Energy:  -232.22581818941973
    Total Energy =                       -232.2258181894199538
    Molecular point group: c1
  Basis Set: CC-PVTZ
  Basis Set:
  Basis Set: CC-PVTZ
  Basis Set:
  @DF-RHF Final Energy:  -232.22616776181866
    Total Energy =                       -232.2261677618186582
  Basis Set: CC-PVTZ
  Basis Set:
  Basis Set: CC-PVTZ
  Basis Set:
  @DF-RHF Final Energy:  -232.22625702597068
    Total Energy =                       -232.2262570259704262
  Basis Set: CC-PVTZ
  Basis Set:
  Basis Set: CC-PVTZ
  Basis Set:
  @DF-RHF Final Energy:  -232.22625851508320
    Total Energy =                       -232.2262585150832024
  Basis Set: CC-PVTZ
  Basis Set:
  Charge       = 0
  Multiplicity = 1
  Basis Set: CC-PVTZ
  Basis Set:

    Orbital Energies (a.u.)
    -----------------------

    Doubly Occupied:

       1A    -20.548674     2A    -11.264572     3A    -11.262208
       4A    -11.212936     5A    -11.204977     6A     -1.382591
       7A     -1.055226     8A     -0.953260     9A     -0.884103
      10A     -0.804297    11A     -0.669643    12A     -0.664838
      13A     -0.634075    14A     -0.585171    15A     -0.577990
      16A     -0.546260    17A     -0.496232    18A     -0.486579
      19A     -0.481978    20A     -0.461578    21A     -0.415116

  @DF-RHF Final Energy:  -232.22625874740564

   => Energetics <=

    Nuclear Repulsion Energy =            192.0544487163675456
    One-Electron Energy =                -695.3768082752253576
    Two-Electron Energy =                 271.0961008114519473
    DFT Exchange-Correlation Energy =       0.0000000000000000
    Empirical Dispersion Energy =           0.0000000000000000
    PCM Polarization Energy =               0.0000000000000000
    EFP Energy =                            0.0000000000000000
    Total Energy =                       -232.2262587474058364
    Molecular point group: c1
  Basis Set: CC-PVTZ
  Basis Set:

  -Total Gradient:
     Atom            X                  Y                   Z
    ------   -----------------  -----------------  -----------------
       1       -0.000002710237    -0.000000144140    -0.000001353350
       2       -0.000001637721    -0.000002897767    -0.000000871188
       3       -0.000019957137     0.000009761509     0.000002157596
       4       -0.000004750481     0.000000686089    -0.000000911519
       5       -0.000002380840     0.000001030121     0.000001164884
       6       -0.002690426893     0.004389390908    -0.003524370261
       7        0.001808897225    -0.003143772396     0.005103562391
       8        0.001991475887    -0.003168049976     0.002127921708
       9       -0.000011164916     0.000012594417     0.000001809033
      10       -0.000004666119     0.000004792109     0.000007859225
      11       -0.001061323566     0.001892483061    -0.003705766659
      12       -0.000001079851     0.000006475214    -0.000001526721
      13       -0.000001331857     0.000005479564    -0.000007838616
      14        0.000000477946    -0.000003376205    -0.000001341250
      15        0.000000578557    -0.000004452508    -0.000000495273

  **** Optimization is complete! (in 5 steps) ****
    Final optimized geometry and variables:
    Molecular point group: c1

    Geometry (in Angstrom), charge = 0, multiplicity = 1:

    H           -2.980727640043     0.293339498581    -0.250683422337
    C           -2.193694140741    -0.446385280787    -0.277475226452
    O           -0.978183122604     0.224381516052    -0.289217311993
    H           -2.319819811760    -1.058676503957    -1.168055437936
    H           -2.287122142161    -1.088452747225     0.595824920931
    C            0.139059618594    -0.606650309263    -0.334658005719
    C            1.403615601476     0.235674593893    -0.265927220105
    H            0.134188496926    -1.216597913366    -1.236869775934
    H            0.111936042730    -1.305994737798     0.502326580697
    C            1.803131898550     0.631126029779     1.150082650691
    H            2.208411792594    -0.292351430575    -0.767244636123
    H            1.227321678949     1.127678677790    -0.857923742169
    H            2.044344807414    -0.241717477211     1.747789538865
    H            2.672282908392     1.278557038381     1.144308527657
    H            0.995648020819     1.160585945557     1.641694352821

  Mulliken Charges: (a.u.)
   Center  Symbol    Alpha    Beta     Spin     Total
       1     H     0.44711  0.44711  0.00000  0.10578
       2     C     3.03246  3.03246  0.00000 -0.06493
       3     O     4.17461  4.17461  0.00000 -0.34922
       4     H     0.47152  0.47152  0.00000  0.05695
       5     H     0.47164  0.47164  0.00000  0.05671
       6     C     2.96500  2.96500  0.00000  0.07000
       7     C     3.08087  3.08087  0.00000 -0.16175
       8     H     0.46712  0.46712  0.00000  0.06576
       9     H     0.47794  0.47794  0.00000  0.04412
      10     C     3.15019  3.15019  0.00000 -0.30037
      11     H     0.45405  0.45405  0.00000  0.09189
      12     H     0.45169  0.45169  0.00000  0.09661
      13     H     0.45756  0.45756  0.00000  0.08489
      14     H     0.44981  0.44981  0.00000  0.10039
      15     H     0.44842  0.44842  0.00000  0.10316

   Total alpha = 21.00000, Total beta = 21.00000, Total charge = -0.00000

*** Psi4 exiting successfully. Buy a developer a beer!
