  ==> Input File <==

--------------------------------------------------------------------------
set {
	reference rhf
	basis cc-pvtz
}

set_num_threads( 4 )
memory 2 gb

molecule MOL {
0 1

O	 -0.668008	 -0.091203	 0.056469
C	 0.485107	 0.171416	 -0.000134
C	 1.606966	 -0.836201	 0.000174
O	 0.947793	 1.407238	 -0.072600
C	 2.988788	 -0.202529	 -0.000115
H	 1.465110	 -1.474645	 -0.864821
H	 1.465209	 -1.474077	 0.865596
H	 3.131767	 0.419673	 -0.873407
H	 3.750876	 -0.972315	 0.000098
H	 3.131883	 0.420264	 0.872742
C	 0.003906	 2.468966	 -0.082561
C	 0.770895	 3.767804	 -0.167625
H	 -0.593236	 2.418873	 0.817027
H	 -0.659490	 2.343746	 -0.926687
H	 1.432308	 3.881682	 0.682044
H	 0.078471	 4.601285	 -0.177182
H	 1.365625	 3.806176	 -1.071614

	symmetry c1
}
set optking {
	frozen_dihedral = ("
		4 2 3 6
	")
}

ee = optimize('scf')
oeprop('DIPOLE', 'QUADRUPOLE', 'MULLIKEN_CHARGES')
f=open( 'psi4out.xyz', 'w' )
f.write( "17  " )
f.write( str(ee) + "\n" )
f.write( MOL.save_string_xyz() )
f.close()
--------------------------------------------------------------------------

    Molecular point group: c1
  Charge       = 0
  Multiplicity = 1
  Basis Set: CC-PVTZ
  Basis Set:
  @DF-RHF Final Energy:  -345.03660230028589
    Total Energy =                       -345.0366023002860629
    Molecular point group: c1
  Basis Set: CC-PVTZ
  Basis Set:
  Basis Set: CC-PVTZ
  Basis Set:
  @DF-RHF Final Energy:  -345.03758618725936
    Total Energy =                       -345.0375861872596488
  Basis Set: CC-PVTZ
  Basis Set:
  Basis Set: CC-PVTZ
  Basis Set:
  @DF-RHF Final Energy:  -345.03780988491013
    Total Energy =                       -345.0378098849102457
  Basis Set: CC-PVTZ
  Basis Set:
  Basis Set: CC-PVTZ
  Basis Set:
  @DF-RHF Final Energy:  -345.03793084533925
    Total Energy =                       -345.0379308453392468
  Basis Set: CC-PVTZ
  Basis Set:
  Basis Set: CC-PVTZ
  Basis Set:
  @DF-RHF Final Energy:  -345.03798127269658
    Total Energy =                       -345.0379812726964701
  Basis Set: CC-PVTZ
  Basis Set:
  Basis Set: CC-PVTZ
  Basis Set:
  @DF-RHF Final Energy:  -345.03798107117990
    Total Energy =                       -345.0379810711795017
  Basis Set: CC-PVTZ
  Basis Set:
  Charge       = 0
  Multiplicity = 1
  Basis Set: CC-PVTZ
  Basis Set:

    Orbital Energies (a.u.)
    -----------------------

    Doubly Occupied:

       1A    -20.596574     2A    -20.527762     3A    -11.363876
       4A    -11.283533     5A    -11.236136     6A    -11.221290
       7A    -11.218472     8A     -1.471640     9A     -1.362929
      10A     -1.072798    11A     -1.031304    12A     -0.906145
      13A     -0.862102    14A     -0.780497    15A     -0.693187
      16A     -0.680570    17A     -0.674608    18A     -0.630769
      19A     -0.575565    20A     -0.573669    21A     -0.554749
      22A     -0.551007    23A     -0.523106    24A     -0.515429
      25A     -0.508137    26A     -0.491352    27A     -0.453416
      28A     -0.433876

  @DF-RHF Final Energy:  -345.03800692286927

   => Energetics <=

    Nuclear Repulsion Energy =            318.0783437181913769
    One-Electron Energy =               -1100.6437011137365971
    Two-Electron Energy =                 437.5273504726761189
    DFT Exchange-Correlation Energy =       0.0000000000000000
    Empirical Dispersion Energy =           0.0000000000000000
    PCM Polarization Energy =               0.0000000000000000
    EFP Energy =                            0.0000000000000000
    Total Energy =                       -345.0380069228691013
    Molecular point group: c1
  Basis Set: CC-PVTZ
  Basis Set:

  -Total Gradient:
     Atom            X                  Y                   Z
    ------   -----------------  -----------------  -----------------
       1       -0.000011542349     0.000003007099    -0.000010146843
       2       -0.000026075363    -0.000044787976    -0.000110165904
       3        0.000157464084     0.000184744574    -0.000070872576
       4       -0.000007552173     0.000024338337     0.000115848300
       5       -0.000036883525    -0.000021648619    -0.000003195655
       6       -0.000088832792    -0.000106793530     0.000076094439
       7       -0.000014530003    -0.000032576039     0.000010587332
       8        0.000005137436    -0.000001597357     0.000004265247
       9        0.000006123693     0.000005579794    -0.000000088456
      10        0.000003964052    -0.000000563908    -0.000001640102
      11        0.000014302054    -0.000011992203    -0.000023611366
      12        0.000000803750     0.000000200930     0.000005190473
      13        0.000000718533    -0.000002151191     0.000004888741
      14       -0.000002453537     0.000005408436     0.000002307642
      15        0.000001217282     0.000001835237    -0.000000148654
      16       -0.000001050718    -0.000001146174     0.000000701518
      17       -0.000000810429    -0.000001857413    -0.000000014138

  **** Optimization is complete! (in 7 steps) ****
    Final optimized geometry and variables:
    Molecular point group: c1

    Geometry (in Angstrom), charge = 0, multiplicity = 1:

    O           -1.513741438920    -1.063598072513     0.098844402846
    C           -0.366017337962    -0.774322582674     0.039454332558
    C            0.739245403953    -1.806649803523     0.036197401420
    O            0.064268392700     0.469539902870    -0.034961869787
    C            2.170253078840    -1.287411181929     0.043330950754
    H            0.558413044605    -2.427900829097    -0.833723059033
    H            0.552115609901    -2.441403061661     0.893914939280
    H            2.377265946644    -0.682011234105    -0.828886451122
    H            2.860867735237    -2.121983229153     0.046517662411
    H            2.368375938067    -0.683966918653     0.919491091422
    C           -0.908533804575     1.506043691537    -0.044952973663
    C           -0.177365578640     2.825029847973    -0.133787175484
    H           -1.501940813903     1.439742514516     0.855740090515
    H           -1.569476703550     1.359759951362    -0.887303327087
    H            0.482188437633     2.959158069060     0.714376172992
    H           -0.892857226308     3.638756738855    -0.143297261236
    H            0.414060803829     2.878812025560    -1.039170124854

  Mulliken Charges: (a.u.)
   Center  Symbol    Alpha    Beta     Spin     Total
       1     O     4.20537  4.20537  0.00000 -0.41074
       2     C     2.81069  2.81069  0.00000  0.37861
       3     C     3.09104  3.09104  0.00000 -0.18208
       4     O     4.14594  4.14594  0.00000 -0.29188
       5     C     3.14035  3.14035  0.00000 -0.28071
       6     H     0.44015  0.44015  0.00000  0.11970
       7     H     0.43851  0.43851  0.00000  0.12298
       8     H     0.45007  0.45007  0.00000  0.09987
       9     H     0.44926  0.44926  0.00000  0.10148
      10     H     0.45071  0.45071  0.00000  0.09858
      11     C     2.98127  2.98127  0.00000  0.03746
      12     C     3.13342  3.13342  0.00000 -0.26684
      13     H     0.45329  0.45329  0.00000  0.09341
      14     H     0.45330  0.45330  0.00000  0.09340
      15     H     0.45138  0.45138  0.00000  0.09724
      16     H     0.45378  0.45378  0.00000  0.09244
      17     H     0.45146  0.45146  0.00000  0.09708

   Total alpha = 28.00000, Total beta = 28.00000, Total charge = -0.00000
