  ==> Input File <==

--------------------------------------------------------------------------
set {
	reference rhf
	basis 6-31G*
}

set_num_threads( 4 )
memory 2 gb

molecule MOL {
0 1

H	 3.815843	 4.741270	 1.659327
C	 3.305117	 3.855227	 1.326353
C	 1.975925	 3.928341	 0.937699
C	 3.977871	 2.644111	 1.287202
H	 1.455343	 4.868240	 0.968543
C	 1.319906	 2.788638	 0.509680
H	 5.008215	 2.589367	 1.588862
C	 3.323210	 1.501954	 0.859102
H	 0.291536	 2.826460	 0.205219
C	 1.991060	 1.571916	 0.468917
H	 3.839927	 0.562642	 0.827205
C	 1.239129	 0.373821	 0.000060
O	 1.970282	 -0.730723	 0.000018
O	 0.098267	 0.395769	 -0.341714
C	 3.377318	 -0.566646	 -0.000065
H	 3.695437	 -0.028981	 -0.881264
H	 3.789299	 -1.563704	 0.000236
H	 3.695516	 -0.028316	 0.880770

	symmetry c1
}
set optking {
	frozen_dihedral = ("
		10 12 13 15
	")
}

ee = optimize('scf')
oeprop('DIPOLE', 'QUADRUPOLE', 'MULLIKEN_CHARGES')
f=open( 'psi4out.xyz', 'w' )
f.write( "18  " )
f.write( str(ee) + "\n" )
f.write( MOL.save_string_xyz() )
f.close()
--------------------------------------------------------------------------

    Molecular point group: c1
  Charge       = 0
  Multiplicity = 1
  Basis Set: 6-31G*
  Basis Set:
  @DF-RHF Final Energy:  -457.05010118509989
    Total Energy =                       -457.0501011850998339
    Molecular point group: c1
  Basis Set: 6-31G*
  Basis Set:
  Basis Set: 6-31G*
  Basis Set:
  @DF-RHF Final Energy:  -457.18548524807221
    Total Energy =                       -457.1854852480726095
  Basis Set: 6-31G*
  Basis Set:
  Basis Set: 6-31G*
  Basis Set:
  @DF-RHF Final Energy:  -457.24335913182819
    Total Energy =                       -457.2433591318288109
  Basis Set: 6-31G*
  Basis Set:
  Basis Set: 6-31G*
  Basis Set:
  @DF-RHF Final Energy:  -457.28170809141295
    Total Energy =                       -457.2817080914130656
  Basis Set: 6-31G*
  Basis Set:
  @DF-RHF Final Energy:  -457.30286744351400
    Total Energy =                       -457.3028674435142875
  @DF-RHF Final Energy:  -457.31388847310893
    Total Energy =                       -457.3138884731085909
  @DF-RHF Final Energy:  -457.31709333941200
    Total Energy =                       -457.3170933394119402
  @DF-RHF Final Energy:  -457.32109957420420
    Total Energy =                       -457.3210995742043679
  @DF-RHF Final Energy:  -457.32209114243392
    Total Energy =                       -457.3220911424339192
  @DF-RHF Final Energy:  -457.32371697920473
    Total Energy =                       -457.3237169792039367
  @DF-RHF Final Energy:  -457.32539887884678
    Total Energy =                       -457.3253988788466131
  @DF-RHF Final Energy:  -457.32604100236597
    Total Energy =                       -457.3260410023661962
  @DF-RHF Final Energy:  -457.32648752872018
    Total Energy =                       -457.3264875287204632
  @DF-RHF Final Energy:  -457.32708065607636
    Total Energy =                       -457.3270806560760775
  @DF-RHF Final Energy:  -457.32740416469449
    Total Energy =                       -457.3274041646942578
  @DF-RHF Final Energy:  -457.32770832245183
    Total Energy =                       -457.3277083224515991
  @DF-RHF Final Energy:  -457.32791523710227
    Total Energy =                       -457.3279152371026157
  @DF-RHF Final Energy:  -457.32805266991875
    Total Energy =                       -457.3280526699188613
  @DF-RHF Final Energy:  -457.32813430058644
    Total Energy =                       -457.3281343005867257
  @DF-RHF Final Energy:  -457.32817276522655
    Total Energy =                       -457.3281727652263271
  @DF-RHF Final Energy:  -457.32819249949807
    Total Energy =                       -457.3281924994981864
  @DF-RHF Final Energy:  -457.32820249639002
    Total Energy =                       -457.3282024963903041
  Basis Set: 6-31G*
  Basis Set:
  @DF-RHF Final Energy:  -457.32820828485666
    Total Energy =                       -457.3282082848564869
  Basis Set: 6-31G*
  Basis Set:
  Basis Set: 6-31G*
  Basis Set:
  @DF-RHF Final Energy:  -457.32821104614834
    Total Energy =                       -457.3282110461478851
  Basis Set: 6-31G*
  Basis Set:
  Basis Set: 6-31G*
  Basis Set:
  @DF-RHF Final Energy:  -457.32821249810104
    Total Energy =                       -457.3282124981012657
  Basis Set: 6-31G*
  Basis Set:
  Charge       = 0
  Multiplicity = 1
  Basis Set: 6-31G*
  Basis Set:

    Orbital Energies (a.u.)
    -----------------------

    Doubly Occupied:

       1A    -20.602906     2A    -20.541442     3A    -11.379640
       4A    -11.293797     5A    -11.256845     6A    -11.254672
       7A    -11.250321     8A    -11.249531     9A    -11.247345
      10A    -11.245256    11A     -1.464016    12A     -1.365592
      13A     -1.173299    14A     -1.047576    15A     -1.033526
      16A     -0.986604    17A     -0.876102    18A     -0.845796
      19A     -0.785050    20A     -0.737400    21A     -0.690368
      22A     -0.677008    23A     -0.673210    24A     -0.639993
      25A     -0.629526    26A     -0.604771    27A     -0.597430
      28A     -0.565267    29A     -0.539594    30A     -0.516656
      31A     -0.513270    32A     -0.501994    33A     -0.449675
      34A     -0.439295    35A     -0.351502    36A     -0.348831

  @DF-RHF Final Energy:  -457.32821288317643

   => Energetics <=

    Nuclear Repulsion Energy =            497.9663248547024068
    One-Electron Energy =               -1609.8388693500787667
    Two-Electron Energy =                 654.5443316122001534
    DFT Exchange-Correlation Energy =       0.0000000000000000
    Empirical Dispersion Energy =           0.0000000000000000
    PCM Polarization Energy =               0.0000000000000000
    EFP Energy =                            0.0000000000000000
    Total Energy =                       -457.3282128831762066
    Molecular point group: c1
  Basis Set: 6-31G*
  Basis Set:

  -Total Gradient:
     Atom            X                  Y                   Z
    ------   -----------------  -----------------  -----------------
       1       -0.000000363093     0.000000456143     0.000000177814
       2       -0.000012019850     0.000001691582     0.000002321938
       3        0.000014758936    -0.000000651788    -0.000005665503
       4       -0.000008008017    -0.000016435162    -0.000006604338
       5       -0.000000605091    -0.000000333998     0.000000373371
       6        0.000009215939    -0.000005692829     0.000016488281
       7        0.000000313293    -0.000000853663    -0.000001456502
       8       -0.000013071376    -0.000012833139    -0.000010771020
       9        0.000000754738     0.000001426782    -0.000002138396
      10       -0.000269494433     0.000334733329    -0.001176802655
      11        0.000035313049     0.000002930730     0.000027660076
      12        0.000755102411    -0.000541451752     0.002516053660
      13       -0.001173926777     0.000314613444    -0.002575142163
      14        0.000007287876    -0.000002078291     0.000002971605
      15        0.000671392629    -0.000082553402     0.001212447374
      16       -0.000000597749    -0.000003208582     0.000000738629
      17       -0.000015585442     0.000002466139     0.000006519783
      18       -0.000000467037     0.000007774458    -0.000007171952

  **** Optimization is complete! (in 26 steps) ****
    Final optimized geometry and variables:
    Molecular point group: c1

    Geometry (in Angstrom), charge = 0, multiplicity = 1:

    H            1.487311072843     3.510180648933     0.711015579487
    C            1.018087362545     2.557559069058     0.542457362936
    C           -0.188771618185     2.489474864406    -0.136071959778
    C            1.614578871857     1.399325193805     1.013877876317
    H           -0.658320745980     3.387840690837    -0.493605540170
    C           -0.799260266073     1.264817495963    -0.341048873629
    H            2.540102185719     1.451189517937     1.558155055072
    C            1.016694516339     0.171060549406     0.787552899143
    H           -1.748679657760     1.204653536026    -0.839017010051
    C           -0.189540369891     0.097623623305     0.102204109280
    H            1.477886844664    -0.720630502177     1.170413663545
    C           -0.925215327082    -1.195934666952    -0.095992136808
    O           -0.257740445019    -2.271376998335    -0.513855321735
    O           -2.089418071158    -1.280792565673     0.108145477444
    C            0.992238608713    -2.226996845580    -1.169788622235
    H            1.115298261493    -1.318492522863    -1.741791142916
    H            1.004692774557    -3.075495879426    -1.837087620364
    H            1.803621303700    -2.322313063814    -0.461944003066

  Mulliken Charges: (a.u.)
   Center  Symbol    Alpha    Beta     Spin     Total
       1     H     0.39421  0.39421  0.00000  0.21159
       2     C     3.09387  3.09387  0.00000 -0.18774
       3     C     3.10307  3.10307  0.00000 -0.20613
       4     C     3.10269  3.10269  0.00000 -0.20538
       5     H     0.39351  0.39351  0.00000  0.21298
       6     C     3.09057  3.09057  0.00000 -0.18114
       7     H     0.39472  0.39472  0.00000  0.21056
       8     C     3.09812  3.09812  0.00000 -0.19623
       9     H     0.38001  0.38001  0.00000  0.23999
      10     C     3.06786  3.06786  0.00000 -0.13571
      11     H     0.38992  0.38992  0.00000  0.22016
      12     C     2.60351  2.60351  0.00000  0.79298
      13     O     4.30471  4.30471  0.00000 -0.60942
      14     O     4.26340  4.26340  0.00000 -0.52681
      15     C     3.09205  3.09205  0.00000 -0.18410
      16     H     0.41043  0.41043  0.00000  0.17915
      17     H     0.40105  0.40105  0.00000  0.19791
      18     H     0.41633  0.41633  0.00000  0.16734

   Total alpha = 36.00000, Total beta = 36.00000, Total charge =  0.00000
