  ==> Input File <==

--------------------------------------------------------------------------
set {
	reference rhf
	basis cc-pvtz
}

set_num_threads( 4 )
memory 2 gb

molecule MOL {
0 1

H	 1.651322	 -0.822465	 0.000000
O	 0.729993	 -1.034364	 0.000000
C	 0.037305	 0.100061	 0.000000
C	 0.930689	 1.304197	 -0.000000
O	 -1.144386	 0.120081	 -0.000000
H	 1.568693	 1.280691	 0.873995
H	 0.330633	 2.198992	 0.000000
H	 1.568693	 1.280691	 -0.873995

	symmetry c1
}
set optking {
	frozen_dihedral = ("
		4 3 2 1
	")
}

ee = optimize('scf')
oeprop('DIPOLE', 'QUADRUPOLE', 'MULLIKEN_CHARGES')
f=open( 'psi4out.xyz', 'w' )
f.write( "8  " )
f.write( str(ee) + "\n" )
f.write( MOL.save_string_xyz() )
f.close()
--------------------------------------------------------------------------

    Molecular point group: c1
  Charge       = 0
  Multiplicity = 1
  Basis Set: CC-PVTZ
  Basis Set:
  @DF-RHF Final Energy:  -227.89353541642112
    Total Energy =                       -227.8935354164211162
    Molecular point group: c1
  Basis Set: CC-PVTZ
  Basis Set:
  Basis Set: CC-PVTZ
  Basis Set:
  @DF-RHF Final Energy:  -227.89486648082618
    Total Energy =                       -227.8948664808260958
  Basis Set: CC-PVTZ
  Basis Set:
  Basis Set: CC-PVTZ
  Basis Set:
  @DF-RHF Final Energy:  -227.89502499344655
    Total Energy =                       -227.8950249934465546
  Basis Set: CC-PVTZ
  Basis Set:
  Charge       = 0
  Multiplicity = 1
  Basis Set: CC-PVTZ
  Basis Set:

    Orbital Energies (a.u.)
    -----------------------

    Doubly Occupied:

       1A    -20.607880     2A    -20.537908     3A    -11.377862
       4A    -11.250625     5A     -1.474606     6A     -1.376077
       7A     -1.028048     8A     -0.843797     9A     -0.723216
      10A     -0.672574    11A     -0.659008    12A     -0.605023
      13A     -0.572484    14A     -0.558493    15A     -0.482943
      16A     -0.449442

  @DF-RHF Final Energy:  -227.89502657951556

   => Energetics <=

    Nuclear Repulsion Energy =            122.6144418721673475
    One-Electron Energy =                -554.5789679744590330
    Two-Electron Energy =                 204.0694995227761694
    DFT Exchange-Correlation Energy =       0.0000000000000000
    Empirical Dispersion Energy =           0.0000000000000000
    PCM Polarization Energy =               0.0000000000000000
    EFP Energy =                            0.0000000000000000
    Total Energy =                       -227.8950265795155303
    Molecular point group: c1
  Basis Set: CC-PVTZ
  Basis Set:

  -Total Gradient:
     Atom            X                  Y                   Z
    ------   -----------------  -----------------  -----------------
       1        0.000061387048     0.000083736890    -0.000000000079
       2       -0.000074228682     0.000118615300    -0.000000000158
       3        0.000085046475    -0.000086282316     0.000000000842
       4        0.000033820195     0.000000698921    -0.000000000277
       5       -0.000116823812    -0.000135155444    -0.000000000338
       6       -0.000005185149     0.000009498563    -0.000007398189
       7        0.000021169013    -0.000000610387     0.000000000014
       8       -0.000005185088     0.000009498476     0.000007398186

  **** Optimization is complete! (in 4 steps) ****
    Final optimized geometry and variables:
    Molecular point group: c1

    Geometry (in Angstrom), charge = 0, multiplicity = 1:

    H           -1.046295334628    -1.470369195485    -0.000000002604
    O           -1.164227191610    -0.536977952628     0.000000000306
    C           -0.000401190981     0.117023613586     0.000000001386
    C            1.229313897030    -0.755110105714     0.000000000009
    O            0.019778211197     1.292123047363    -0.000000001144
    H            1.233959932750    -1.391421738841     0.877813654445
    H            2.109158238360    -0.133901427834    -0.000000001061
    H            1.233959930696    -1.391421739437    -0.877813654096

  Mulliken Charges: (a.u.)
   Center  Symbol    Alpha    Beta     Spin     Total
       1     H     0.38919  0.38919  0.00000  0.22163
       2     O     4.14240  4.14240  0.00000 -0.28479
       3     C     2.80893  2.80893  0.00000  0.38214
       4     C     3.15493  3.15493  0.00000 -0.30986
       5     O     4.17615  4.17615  0.00000 -0.35230
       6     H     0.44775  0.44775  0.00000  0.10449
       7     H     0.43290  0.43290  0.00000  0.13420
       8     H     0.44775  0.44775  0.00000  0.10449

   Total alpha = 16.00000, Total beta = 16.00000, Total charge =  0.00000
