  ==> Input File <==

--------------------------------------------------------------------------
set {
	reference rhf
	basis 6-31G*
}

set_num_threads( 1 )
memory 2 gb

molecule MOL {
0 1

H	 2.465338	 -2.224223	 0.000000
O	 2.784187	 -1.332015	 0.000000
C	 1.765313	 -0.449364	 0.000000
C	 1.142058	 -0.193439	 -1.217374
C	 1.335369	 0.190503	 1.146234
H	 1.494640	 -0.703392	 -2.094010
C	 0.093077	 0.700141	 -1.282327
H	 1.797173	 0.012314	 2.097293
C	 0.279315	 1.081754	 1.045040
H	 -0.382351	 0.891782	 -2.226307
C	 -0.357487	 1.355922	 -0.144440
N	 -0.171575	 1.755946	 2.260627
H	 -1.169950	 2.051707	 -0.178956
O	 0.397162	 1.500874	 3.279208
O	 -1.081017	 2.521462	 2.164891

	symmetry c1
}
set optking {
	frozen_dihedral = ("
		11 9 12 14
	")
}

ee = energy('scf')
oeprop('DIPOLE', 'QUADRUPOLE', 'MULLIKEN_CHARGES')
f=open( 'psi4out.xyz', 'w' )
f.write( "15  " )
f.write( str(ee) + "\n" )
f.write( MOL.save_string_xyz() )
f.close()
--------------------------------------------------------------------------

    Molecular point group: c1

    Geometry (in Angstrom), charge = 0, multiplicity = 1:

       Center              X                  Y                   Z               Mass
    ------------   -----------------  -----------------  -----------------  -----------------
           H          1.843001460085    -2.942606838991    -0.797532074586     1.007825032070
           O          2.161850460085    -2.050398838991    -0.797532074586    15.994914619560
           C          1.142976460085    -1.167747838991    -0.797532074586    12.000000000000
           C          0.519721460085    -0.911822838991    -2.014906074586    12.000000000000
           C          0.713032460085    -0.527880838991     0.348701925414    12.000000000000
           H          0.872303460085    -1.421775838991    -2.891542074586     1.007825032070
           C         -0.529259539915    -0.018242838991    -2.079859074586    12.000000000000
           H          1.174836460085    -0.706069838991     1.299760925414     1.007825032070
           C         -0.343021539915     0.363370161009     0.247507925414    12.000000000000
           H         -1.004687539915     0.173398161009    -3.023839074586     1.007825032070
           C         -0.979823539915     0.637538161009    -0.941972074586    12.000000000000
           N         -0.793911539915     1.037562161009     1.463094925414    14.003074004780
           H         -1.792286539915     1.333323161009    -0.976488074586     1.007825032070
           O         -0.225174539915     0.782490161009     2.481675925414    15.994914619560
           O         -1.703353539915     1.803078161009     1.367358925414    15.994914619560

  Charge       = 0
  Multiplicity = 1
  Basis Set: 6-31G*
  Basis Set:

    Orbital Energies (a.u.)
    -----------------------

    Doubly Occupied:

       1A    -20.603436     2A    -20.602828     3A    -20.601441
       4A    -15.857962     5A    -11.321053     6A    -11.308663
       7A    -11.269102     8A    -11.267124     9A    -11.265415
      10A    -11.263130    11A     -1.636714    12A     -1.426454
      13A     -1.419950    14A     -1.200108    15A     -1.093690
      16A     -1.045716    17A     -0.963475    18A     -0.868204
      19A     -0.834599    20A     -0.793569    21A     -0.736125
      22A     -0.734951    23A     -0.722334    24A     -0.710542
      25A     -0.681725    26A     -0.642262    27A     -0.626547
      28A     -0.568468    29A     -0.558955    30A     -0.526832
      31A     -0.509247    32A     -0.489504    33A     -0.484037
      34A     -0.453395    35A     -0.376824    36A     -0.356536

  @DF-RHF Final Energy:  -509.02219553673564

   => Energetics <=

    Nuclear Repulsion Energy =            503.2168078077099267
    One-Electron Energy =               -1692.8359678955939671
    Two-Electron Energy =                 680.5969645511480621
    DFT Exchange-Correlation Energy =       0.0000000000000000
    Empirical Dispersion Energy =           0.0000000000000000
    PCM Polarization Energy =               0.0000000000000000
    EFP Energy =                            0.0000000000000000
    Total Energy =                       -509.0221955367359215

  Mulliken Charges: (a.u.)
   Center  Symbol    Alpha    Beta     Spin     Total
       1     H     0.26645  0.26645  0.00000  0.46710
       2     O     4.38353  4.38353  0.00000 -0.76705
       3     C     2.81603  2.81603  0.00000  0.36794
       4     C     3.10609  3.10609  0.00000 -0.21218
       5     C     3.11108  3.11108  0.00000 -0.22215
       6     H     0.38505  0.38505  0.00000  0.22990
       7     C     3.10562  3.10562  0.00000 -0.21124
       8     H     0.35881  0.35881  0.00000  0.28238
       9     C     2.91795  2.91795  0.00000  0.16411
      10     H     0.38774  0.38774  0.00000  0.22453
      11     C     3.09075  3.09075  0.00000 -0.18150
      12     N     3.24021  3.24021  0.00000  0.51959
      13     H     0.36393  0.36393  0.00000  0.27214
      14     O     4.23341  4.23341  0.00000 -0.46682
      15     O     4.23337  4.23337  0.00000 -0.46674

   Total alpha = 36.00000, Total beta = 36.00000, Total charge =  0.00000
