  ==> Input File <==

--------------------------------------------------------------------------
set {
	reference rhf
	basis 6-31G*
}

set_num_threads( 4 )
memory 2 gb

molecule MOL {
0 1

H	 3.053071	 -1.842872	 2.619686
C	 2.844186	 -1.579634	 1.587784
C	 1.548873	 -0.776712	 1.476231
H	 3.691599	 -1.011351	 1.214726
H	 2.788197	 -2.502225	 1.016875
C	 1.217350	 -0.386724	 0.039429
H	 1.615722	 0.127460	 2.073218
H	 0.727168	 -1.360137	 1.888308
N	 0.000003	 0.397874	 -0.023260
H	 2.025645	 0.217628	 -0.363537
H	 1.165236	 -1.287155	 -0.581767
C	 -1.217365	 -0.386708	 0.039277
H	 -0.000031	 1.072115	 0.718656
C	 -2.452633	 0.504241	 -0.042481
H	 -1.215291	 -1.074557	 -0.802042
H	 -1.269739	 -1.003477	 0.942735
C	 -3.758029	 -0.289423	 -0.010781
H	 -2.394220	 1.093569	 -0.952170
H	 -2.440793	 1.210787	 0.785871
H	 -3.816659	 -0.981993	 -0.845726
H	 -4.617837	 0.370165	 -0.069296
H	 -3.847478	 -0.867502	 0.904682

	symmetry c1
}
set optking {
	frozen_dihedral = ("
		10 6 9 12
	")
}

ee = optimize('scf')
oeprop('DIPOLE', 'QUADRUPOLE', 'MULLIKEN_CHARGES')
f=open( 'psi4out.xyz', 'w' )
f.write( "22  " )
f.write( str(ee) + "\n" )
f.write( MOL.save_string_xyz() )
f.close()
--------------------------------------------------------------------------

    Molecular point group: c1
  Charge       = 0
  Multiplicity = 1
  Basis Set: 6-31G*
  Basis Set:
  @DF-RHF Final Energy:  -290.37825591485489
    Total Energy =                       -290.3782559148551172
    Molecular point group: c1
  Basis Set: 6-31G*
  Basis Set:
  Basis Set: 6-31G*
  Basis Set:
  @DF-RHF Final Energy:  -290.38026440781522
    Total Energy =                       -290.3802644078152753
  Basis Set: 6-31G*
  Basis Set:
  Basis Set: 6-31G*
  Basis Set:
  @DF-RHF Final Energy:  -290.38060639146852
    Total Energy =                       -290.3806063914683477
  Basis Set: 6-31G*
  Basis Set:
  Basis Set: 6-31G*
  Basis Set:
  @DF-RHF Final Energy:  -290.38062310350813
    Total Energy =                       -290.3806231035084124
  Basis Set: 6-31G*
  Basis Set:
  Basis Set: 6-31G*
  Basis Set:
  @DF-RHF Final Energy:  -290.38062526477631
    Total Energy =                       -290.3806252647762562
  Basis Set: 6-31G*
  Basis Set:
  Charge       = 0
  Multiplicity = 1
  Basis Set: 6-31G*
  Basis Set:

    Orbital Energies (a.u.)
    -----------------------

    Doubly Occupied:

       1A    -15.531751     2A    -11.237941     3A    -11.237867
       4A    -11.214276     5A    -11.212540     6A    -11.211069
       7A    -11.209185     8A     -1.202292     9A     -1.057510
      10A     -1.026492    11A     -0.928991    12A     -0.870889
      13A     -0.806195    14A     -0.802344    15A     -0.661258
      16A     -0.636767    17A     -0.614734    18A     -0.600697
      19A     -0.578794    20A     -0.554513    21A     -0.544593
      22A     -0.520068    23A     -0.509288    24A     -0.492319
      25A     -0.484828    26A     -0.473016    27A     -0.468965
      28A     -0.459046    29A     -0.349772

  @DF-RHF Final Energy:  -290.38062579624972

   => Energetics <=

    Nuclear Repulsion Energy =            316.1470938713874261
    One-Electron Energy =               -1018.0594392578951783
    Two-Electron Energy =                 411.5317195902581489
    DFT Exchange-Correlation Energy =       0.0000000000000000
    Empirical Dispersion Energy =           0.0000000000000000
    PCM Polarization Energy =               0.0000000000000000
    EFP Energy =                            0.0000000000000000
    Total Energy =                       -290.3806257962495465
    Molecular point group: c1
  Basis Set: 6-31G*
  Basis Set:

  -Total Gradient:
     Atom            X                  Y                   Z
    ------   -----------------  -----------------  -----------------
       1        0.000004120592    -0.000005774301    -0.000010420890
       2        0.000017398134    -0.000002506930     0.000014944599
       3       -0.000056557699     0.000015120422    -0.000028364849
       4        0.000004199891     0.000008685269     0.000001325392
       5       -0.000012312632    -0.000000913061     0.000001112151
       6        0.000327390113     0.000825812060     0.001356776457
       7        0.000008777525    -0.000021448802    -0.000011945989
       8       -0.000011081173    -0.000006293174     0.000031981598
       9       -0.000066927543     0.000033101592     0.001622626773
      10       -0.000301111151    -0.000652052643    -0.001585218295
      11        0.000003995683    -0.000010579669    -0.000009583451
      12        0.000012030830    -0.000171726400    -0.001372989057
      13        0.000022048539    -0.000023733172    -0.000015506304
      14        0.000010380496     0.000021532042    -0.000009096164
      15       -0.000004015743    -0.000003338535    -0.000003680883
      16        0.000003959639    -0.000001839284     0.000011886249
      17        0.000025683572    -0.000014758093     0.000013969457
      18        0.000000055140    -0.000000830961    -0.000008180425
      19       -0.000007025351     0.000005061672     0.000000676866
      20       -0.000001080007     0.000001688977    -0.000005375844
      21        0.000019170155     0.000010075461     0.000004229182
      22        0.000000900987    -0.000005282468     0.000000833427

  **** Optimization is complete! (in 6 steps) ****
    Final optimized geometry and variables:
    Molecular point group: c1

    Geometry (in Angstrom), charge = 0, multiplicity = 1:

    H            3.470945426622    -1.535342729984     2.069402188275
    C            3.196018007697    -1.221765204970     1.067453520948
    C            1.870380767312    -0.460648646212     1.068035147226
    H            4.002809235478    -0.605135479949     0.681182720704
    H            3.136656504070    -2.112277795993     0.447852803345
    C            1.465074050093     0.010142704088    -0.332669858616
    H            1.950501238805     0.405277159515     1.723316310687
    H            1.090353117707    -1.091670008416     1.485714657102
    N            0.225588983355     0.759135498922    -0.421807601236
    H            2.260064195541     0.622515931282    -0.751147174455
    H            1.377322052316    -0.849980564906    -0.991007772181
    C           -0.999577585358    -0.012398162337    -0.343889235461
    H            0.216382306007     1.500907589524     0.251312081854
    C           -2.216928675056     0.879977818398    -0.565858409655
    H           -0.964438874386    -0.768259068532    -1.123562251813
    H           -1.116070771410    -0.547977097913     0.602556124414
    C           -3.533453920355     0.105287099891    -0.528006737766
    H           -2.105203738355     1.384973669816    -1.520149190698
    H           -2.234998206196     1.657567124831     0.196051414673
    H           -3.561494069249    -0.659263365315    -1.299355366820
    H           -4.379782728098     0.765484532220    -0.688224920751
    H           -3.675966526759    -0.386826153366     0.430041346135

  Mulliken Charges: (a.u.)
   Center  Symbol    Alpha    Beta     Spin     Total
       1     H     0.41785  0.41785  0.00000  0.16430
       2     C     3.24342  3.24342  0.00000 -0.48684
       3     C     3.16030  3.16030  0.00000 -0.32061
       4     H     0.42077  0.42077  0.00000  0.15845
       5     H     0.42090  0.42090  0.00000  0.15819
       6     C     3.05154  3.05154  0.00000 -0.10307
       7     H     0.42647  0.42647  0.00000  0.14706
       8     H     0.42045  0.42045  0.00000  0.15911
       9     N     3.85833  3.85833  0.00000 -0.71666
      10     H     0.41853  0.41853  0.00000  0.16293
      11     H     0.42220  0.42220  0.00000  0.15560
      12     C     3.04842  3.04842  0.00000 -0.09683
      13     H     0.33485  0.33485  0.00000  0.33029
      14     C     3.15420  3.15420  0.00000 -0.30841
      15     H     0.42214  0.42214  0.00000  0.15572
      16     H     0.43558  0.43558  0.00000  0.12884
      17     C     3.24337  3.24337  0.00000 -0.48674
      18     H     0.41317  0.41317  0.00000  0.17367
      19     H     0.42682  0.42682  0.00000  0.14636
      20     H     0.42094  0.42094  0.00000  0.15811
      21     H     0.41782  0.41782  0.00000  0.16436
      22     H     0.42191  0.42191  0.00000  0.15617

   Total alpha = 29.00000, Total beta = 29.00000, Total charge =  0.00000
