                              Psi4 1.0.54 Driver

  ==> Input File <==

--------------------------------------------------------------------------
set {
	reference rhf
	basis cc-pvtz
}

set_num_threads( 4 )
memory 2 gb

molecule MOL {
0 1

O	 0.395927	 1.296676	 -0.000076
C	 0.503051	 0.114301	 -0.000074
C	 -0.701422	 -0.805636	 -0.000109
C	 1.858118	 -0.556123	 0.000212
C	 -0.859003	 -1.620718	 1.273818
H	 -1.581328	 -0.193424	 -0.180097
H	 -0.618006	 -1.454726	 -0.867960
H	 -0.966189	 -0.976154	 2.135953
H	 -1.735305	 -2.254535	 1.208813
H	 0.005664	 -2.248647	 1.442005
H	 1.961106	 -1.191101	 -0.872843
H	 2.636688	 0.191085	 -0.000109
H	 1.961070	 -1.190284	 0.873873

	symmetry c1
}
set optking {
	frozen_dihedral = ("
		6 3 2 1
	")
}

ee,wfn = optimize('scf', return_wfn=True)
oeprop( wfn, 'DIPOLE', 'QUADRUPOLE', 'MULLIKEN_CHARGES')
f=open( 'psi4out.xyz', 'w' )
f.write( "13  " )
f.write( str(ee) + "\n" )
f.write( MOL.save_string_xyz() )
f.close()
--------------------------------------------------------------------------

    Molecular point group: c1
  Charge       = 0
  Multiplicity = 1
  Basis Set: CC-PVTZ
  Basis Set:
  @DF-RHF Final Energy:  -231.08039785281068
    Total Energy =                       -231.0803978528106768
    Molecular point group: c1
  Basis Set: CC-PVTZ
  Basis Set:
  Basis Set: CC-PVTZ
  Basis Set:
  @DF-RHF Final Energy:  -231.08033766525116
    Total Energy =                       -231.0803376652511645
  Basis Set: CC-PVTZ
  Basis Set:
  Basis Set: CC-PVTZ
  Basis Set:
  @DF-RHF Final Energy:  -230.12775769836998
    Total Energy =                       -230.1277576983699760
  Basis Set: CC-PVTZ
  Basis Set:
  Basis Set: CC-PVTZ
  Basis Set:
  @DF-RHF Final Energy:  -230.31508758411593
    Total Energy =                       -230.3150875841162133
  Basis Set: CC-PVTZ
  Basis Set:
  @DF-RHF Final Energy:  -230.22125740499692
    Total Energy =                       -230.2212574049968339
  @DF-RHF Final Energy:  -230.50413106433228
    Total Energy =                       -230.5041310643322277
  @DF-RHF Final Energy:  -230.79242412370323
    Total Energy =                       -230.7924241237032845
  @DF-RHF Final Energy:  -230.94617884141593
    Total Energy =                       -230.9461788414159855
  @DF-RHF Final Energy:  -231.02749410741998
    Total Energy =                       -231.0274941074200683
  @DF-RHF Final Energy:  -231.05761601126684
    Total Energy =                       -231.0576160112665889
  @DF-RHF Final Energy:  -231.07839117045290
    Total Energy =                       -231.0783911704529032
  @DF-RHF Final Energy:  -231.08043686904185
    Total Energy =                       -231.0804368690419324
  @DF-RHF Final Energy:  -231.08014274231610
    Total Energy =                       -231.0801427423164114
  Basis Set: CC-PVTZ
  Basis Set:
  @DF-RHF Final Energy:  -231.08096553695836
    Total Energy =                       -231.0809655369582742
  Basis Set: CC-PVTZ
  Basis Set:
  Basis Set: CC-PVTZ
  Basis Set:
  @DF-RHF Final Energy:  -231.08101359106644
    Total Energy =                       -231.0810135910663234
  Basis Set: CC-PVTZ
  Basis Set:
  Basis Set: CC-PVTZ
  Basis Set:
  @DF-RHF Final Energy:  -231.08101852443792
    Total Energy =                       -231.0810185244379227
  Basis Set: CC-PVTZ
  Basis Set:
  Charge       = 0
  Multiplicity = 1
  Basis Set: CC-PVTZ
  Basis Set:

    Orbital Energies (a.u.)
    -----------------------

    Doubly Occupied:

       1A    -20.538912     2A    -11.320387     3A    -11.232087
       4A    -11.228484     5A    -11.227198     6A     -1.398429
       7A     -1.068196     8A     -0.996228     9A     -0.887922
      10A     -0.734905    11A     -0.656216    12A     -0.649575
      13A     -0.613680    14A     -0.595445    15A     -0.562601
      16A     -0.542631    17A     -0.530055    18A     -0.503396
      19A     -0.487773    20A     -0.402547

  @DF-RHF Final Energy:  -231.08101938282013

   => Energetics <=

    Nuclear Repulsion Energy =            177.1947342670322598
    One-Electron Energy =                -664.1981694353466992
    Two-Electron Energy =                 255.9224157854944508
    DFT Exchange-Correlation Energy =       0.0000000000000000
    Empirical Dispersion Energy =           0.0000000000000000
    PCM Polarization Energy =               0.0000000000000000
    EFP Energy =                            0.0000000000000000
    Total Energy =                       -231.0810193828200170
    Molecular point group: c1
  Basis Set: CC-PVTZ
  Basis Set:

  -Total Gradient:
     Atom            X                  Y                   Z
    ------   -----------------  -----------------  -----------------
       1        0.000098231246    -0.000214014310    -0.000184102074
       2       -0.000144409635     0.000319462920     0.000226989836
       3        0.000176577555    -0.000373075619    -0.000172382897
       4       -0.000026033450     0.000073390514     0.000041189974
       5       -0.000005153174     0.000000812643    -0.000005846720
       6       -0.000122204176     0.000249309854     0.000081729225
       7        0.000013378584    -0.000013031473     0.000001718493
       8       -0.000004146391     0.000023441343     0.000003257831
       9       -0.000000641259    -0.000004052233    -0.000000020447
      10        0.000000486659    -0.000003685589     0.000013732572
      11        0.000005541881    -0.000032707340    -0.000018675086
      12        0.000010432146    -0.000001212956    -0.000009601689
      13       -0.000002059985    -0.000024637751     0.000022010982

  **** Optimization is complete! (in 16 steps) ****
    Final optimized geometry and variables:
    Molecular point group: c1

    Geometry (in Angstrom), charge = 0, multiplicity = 1:

    O            0.877255453758     0.777034375241    -1.130733377368
    C            0.493316868514     0.055612768224    -0.268541886458
    C           -0.888286007522    -0.566933845417    -0.324587100140
    C            1.365857678351    -0.276404023366     0.921209538867
    C           -1.837044829739    -0.018132067695     0.745063406847
    H           -1.285898354001    -0.368724564639    -1.309842561295
    H           -0.792792964061    -1.642143192298    -0.207207608970
    H           -1.927294225287     1.058881647305     0.666415904471
    H           -2.824156945903    -0.444308147670     0.619286589390
    H           -1.502062969670    -0.257401083071     1.746746726561
    H            1.469565847915    -1.351034239684     1.023511350424
    H            2.337698843039     0.174805766340     0.793865754298
    H            0.915434671273     0.093027644604     1.835041822801

  Mulliken Charges: (a.u.)
   Center  Symbol    Alpha    Beta     Spin     Total
       1     O     4.17157  4.17157  0.00000 -0.34314
       2     C     2.85445  2.85445  0.00000  0.29111
       3     C     3.09597  3.09597  0.00000 -0.19194
       4     C     3.15755  3.15755  0.00000 -0.31510
       5     C     3.15556  3.15556  0.00000 -0.31112
       6     H     0.43776  0.43776  0.00000  0.12449
       7     H     0.45073  0.45073  0.00000  0.09854
       8     H     0.44600  0.44600  0.00000  0.10801
       9     H     0.44302  0.44302  0.00000  0.11397
      10     H     0.45336  0.45336  0.00000  0.09328
      11     H     0.45058  0.45058  0.00000  0.09883
      12     H     0.43406  0.43406  0.00000  0.13189
      13     H     0.44940  0.44940  0.00000  0.10119

   Total alpha = 20.00000, Total beta = 20.00000, Total charge = -0.00000

*** Psi4 exiting successfully. Buy a developer a beer!
