                              Psi4 1.0.54 Driver

  ==> Input File <==

--------------------------------------------------------------------------
set {
	reference rhf
	basis cc-pvtz
}

set_num_threads( 4 )
memory 2 gb

molecule MOL {
0 1

O	 1.045608	 0.908007	 1.962324
C	 0.440399	 1.008580	 0.933575
C	 -0.584112	 2.111278	 0.762504
N	 0.622280	 0.144970	 -0.099307
H	 -1.567305	 1.707703	 0.555612
H	 -0.614384	 2.668716	 1.683829
H	 -0.315790	 2.776761	 -0.048735
C	 1.664396	 -0.854993	 0.000772
C	 0.087899	 0.348805	 -1.424691
H	 2.462727	 -0.615153	 -0.690869
H	 1.261798	 -1.821849	 -0.240651
H	 2.081615	 -0.891605	 1.003877
H	 -0.135480	 -0.612198	 -1.869901
H	 -0.825936	 0.917419	 -1.402791
H	 0.795578	 0.859804	 -2.073624

	symmetry c1
}
set optking {
	frozen_dihedral = ("
		2 4 8 10
	")
}

ee,wfn = optimize('scf', return_wfn=True)
oeprop( wfn, 'DIPOLE', 'QUADRUPOLE', 'MULLIKEN_CHARGES')
f=open( 'psi4out.xyz', 'w' )
f.write( "15  " )
f.write( str(ee) + "\n" )
f.write( MOL.save_string_xyz() )
f.close()
--------------------------------------------------------------------------

    Molecular point group: c1
  Charge       = 0
  Multiplicity = 1
  Basis Set: CC-PVTZ
  Basis Set:
  @DF-RHF Final Energy:  -286.13511686309073
    Total Energy =                       -286.1351168630907296
    Molecular point group: c1
  Basis Set: CC-PVTZ
  Basis Set:
  Basis Set: CC-PVTZ
  Basis Set:
  @DF-RHF Final Energy:  -286.13553358516219
    Total Energy =                       -286.1355335851621930
  Basis Set: CC-PVTZ
  Basis Set:
  Basis Set: CC-PVTZ
  Basis Set:
  @DF-RHF Final Energy:  -286.13557564823122
    Total Energy =                       -286.1355756482311108
  Basis Set: CC-PVTZ
  Basis Set:
  Basis Set: CC-PVTZ
  Basis Set:
  @DF-RHF Final Energy:  -286.13552768187071
    Total Energy =                       -286.1355276818707125
  Basis Set: CC-PVTZ
  Basis Set:
  @DF-RHF Final Energy:  -286.13560690145459
    Total Energy =                       -286.1356069014543095
  @DF-RHF Final Energy:  -286.13561072936432
    Total Energy =                       -286.1356107293640321
  Basis Set: CC-PVTZ
  Basis Set:
  @DF-RHF Final Energy:  -286.13561367541632
    Total Energy =                       -286.1356136754166073
  Basis Set: CC-PVTZ
  Basis Set:
  Basis Set: CC-PVTZ
  Basis Set:
  @DF-RHF Final Energy:  -286.13561530724223
    Total Energy =                       -286.1356153072420057
  Basis Set: CC-PVTZ
  Basis Set:
  Basis Set: CC-PVTZ
  Basis Set:
  @DF-RHF Final Energy:  -286.13561790186685
    Total Energy =                       -286.1356179018667945
  Basis Set: CC-PVTZ
  Basis Set:
  Charge       = 0
  Multiplicity = 1
  Basis Set: CC-PVTZ
  Basis Set:

    Orbital Energies (a.u.)
    -----------------------

    Doubly Occupied:

       1A    -20.502603     2A    -15.578795     3A    -11.335336
       4A    -11.264146     5A    -11.246436     6A    -11.226442
       7A     -1.386656     8A     -1.246608     9A     -1.015097
      10A     -0.973390    11A     -0.921490    12A     -0.739363
      13A     -0.683386    14A     -0.662169    15A     -0.653851
      16A     -0.590682    17A     -0.577953    18A     -0.566891
      19A     -0.561400    20A     -0.548726    21A     -0.530528
      22A     -0.507700    23A     -0.413032    24A     -0.369872

  @DF-RHF Final Energy:  -286.13561872641617

   => Energetics <=

    Nuclear Repulsion Energy =            252.8142462744611123
    One-Electron Energy =                -889.6946268237213644
    Two-Electron Energy =                 350.7447618228441115
    DFT Exchange-Correlation Energy =       0.0000000000000000
    Empirical Dispersion Energy =           0.0000000000000000
    PCM Polarization Energy =               0.0000000000000000
    EFP Energy =                            0.0000000000000000
    Total Energy =                       -286.1356187264161690
    Molecular point group: c1
  Basis Set: CC-PVTZ
  Basis Set:

  -Total Gradient:
     Atom            X                  Y                   Z
    ------   -----------------  -----------------  -----------------
       1        0.000001779760    -0.000008043819    -0.000019647720
       2       -0.000098643165    -0.000084285277     0.000101407645
       3        0.000068407395     0.000063428964    -0.000050046955
       4        0.000066161591     0.000073555952    -0.000076095179
       5       -0.000019516108    -0.000039776183     0.000003925203
       6       -0.000002649937    -0.000001317526     0.000019604094
       7       -0.000017383612     0.000006548843     0.000003301746
       8        0.000086975286     0.000091610808     0.000172899885
       9        0.000028891548     0.000010693784     0.000036785465
      10       -0.000063318080    -0.000064141147    -0.000104545798
      11       -0.000018667637    -0.000034831762    -0.000017202081
      12       -0.000009714192     0.000000598561    -0.000007319788
      13       -0.000020258671    -0.000065622225    -0.000020447530
      14       -0.000054673801     0.000027764534     0.000004239577
      15        0.000052609622     0.000023816491    -0.000046858562

  **** Optimization is complete! (in 10 steps) ****
    Final optimized geometry and variables:
    Molecular point group: c1

    Geometry (in Angstrom), charge = 0, multiplicity = 1:

    O            0.459313642069     0.310496597185     1.628923136932
    C           -0.115320187826     0.410381656361     0.582294385571
    C           -1.137358079270     1.511546130147     0.385193926723
    N            0.104873234075    -0.444685095243    -0.448206662419
    H           -2.119466904189     1.104244377496     0.179553222243
    H           -1.174321822713     2.082095227626     1.298191044757
    H           -0.864601369125     2.164671652009    -0.434266767279
    C            1.126646376781    -1.461764491954    -0.323862540869
    C           -0.456391879389    -0.300387761305    -1.769283513272
    H            1.969524542825    -1.242837959581    -0.973513759455
    H            0.723309573209    -2.427435921443    -0.607851218545
    H            1.470280805617    -1.505037858221     0.693233175503
    H           -0.742250887281    -1.274588396857    -2.147646239297
    H           -1.336232764800     0.319057586976    -1.765285505043
    H            0.261792610280     0.128215542999    -2.464051967481

  Mulliken Charges: (a.u.)
   Center  Symbol    Alpha    Beta     Spin     Total
       1     O     4.22203  4.22203  0.00000 -0.44407
       2     C     2.84644  2.84644  0.00000  0.30711
       3     C     3.16046  3.16046  0.00000 -0.32092
       4     N     3.55931  3.55931  0.00000 -0.11862
       5     H     0.44931  0.44931  0.00000  0.10138
       6     H     0.42852  0.42852  0.00000  0.14295
       7     H     0.44946  0.44946  0.00000  0.10109
       8     C     3.10046  3.10046  0.00000 -0.20091
       9     C     3.09491  3.09491  0.00000 -0.18982
      10     H     0.45800  0.45800  0.00000  0.08400
      11     H     0.45641  0.45641  0.00000  0.08718
      12     H     0.42513  0.42513  0.00000  0.14975
      13     H     0.45057  0.45057  0.00000  0.09885
      14     H     0.44496  0.44496  0.00000  0.11008
      15     H     0.45403  0.45403  0.00000  0.09195

   Total alpha = 24.00000, Total beta = 24.00000, Total charge = -0.00000

*** Psi4 exiting successfully. Buy a developer a beer!
