                              Psi4 1.0.54 Driver

  ==> Input File <==

--------------------------------------------------------------------------
set {
	reference rhf
	basis cc-pvtz
}

set_num_threads( 4 )
memory 2 gb

molecule MOL {
0 1

H	 -2.149496	 -2.244167	 0.000000
O	 -2.454378	 -1.354528	 0.000000
C	 -1.430628	 -0.482077	 0.000000
C	 -1.457284	 0.534996	 0.943145
C	 -0.381014	 -0.568734	 -0.889956
H	 -2.281962	 0.585131	 1.626097
C	 -0.435994	 1.456217	 0.989284
H	 -0.347742	 -1.350403	 -1.624690
C	 0.641430	 0.368630	 -0.830067
H	 -0.464220	 2.239413	 1.721502
C	 0.625555	 1.384866	 0.103986
C	 1.735729	 0.270423	 -1.765039
H	 1.421680	 2.100426	 0.137632
N	 2.589898	 0.190673	 -2.497650

	symmetry c1
}
set optking {
	frozen_dihedral = ("
		5 3 2 1
	")
}

ee,wfn = optimize('scf', return_wfn=True)
oeprop( wfn, 'DIPOLE', 'QUADRUPOLE', 'MULLIKEN_CHARGES')
f=open( 'psi4out.xyz', 'w' )
f.write( "14  " )
f.write( str(ee) + "\n" )
f.write( MOL.save_string_xyz() )
f.close()
--------------------------------------------------------------------------

    Molecular point group: c1
  Charge       = 0
  Multiplicity = 1
  Basis Set: CC-PVTZ
  Basis Set:
  @DF-RHF Final Energy:  -397.43002843501398
    Total Energy =                       -397.4300284350134689
    Molecular point group: c1
  Basis Set: CC-PVTZ
  Basis Set:
  Basis Set: CC-PVTZ
  Basis Set:
  @DF-RHF Final Energy:  -397.43030998076813
    Total Energy =                       -397.4303099807681292
  Basis Set: CC-PVTZ
  Basis Set:
  Basis Set: CC-PVTZ
  Basis Set:
  @DF-RHF Final Energy:  -397.43044670675152
    Total Energy =                       -397.4304467067515816
  Basis Set: CC-PVTZ
  Basis Set:
  Basis Set: CC-PVTZ
  Basis Set:
  @DF-RHF Final Energy:  -397.43045188798260
    Total Energy =                       -397.4304518879823718
  Basis Set: CC-PVTZ
  Basis Set:
  Charge       = 0
  Multiplicity = 1
  Basis Set: CC-PVTZ
  Basis Set:

    Orbital Energies (a.u.)
    -----------------------

    Doubly Occupied:

       1A    -20.598899     2A    -15.565483     3A    -11.320004
       4A    -11.292283     5A    -11.269026     6A    -11.261867
       7A    -11.260390     8A    -11.258963     9A    -11.253792
      10A     -1.429042    11A     -1.238531    12A     -1.187377
      13A     -1.066843    14A     -1.042777    15A     -0.897056
      16A     -0.869097    17A     -0.783269    18A     -0.724074
      19A     -0.702753    20A     -0.675622    21A     -0.635009
      22A     -0.625903    23A     -0.575235    24A     -0.563868
      25A     -0.554834    26A     -0.547979    27A     -0.516979
      28A     -0.482023    29A     -0.479187    30A     -0.367452
      31A     -0.349613

  @DF-RHF Final Energy:  -397.43045315128347

   => Energetics <=

    Nuclear Repulsion Energy =            380.1941105856330978
    One-Electron Energy =               -1292.4586674202846552
    Two-Electron Energy =                 514.8341036833678572
    DFT Exchange-Correlation Energy =       0.0000000000000000
    Empirical Dispersion Energy =           0.0000000000000000
    PCM Polarization Energy =               0.0000000000000000
    EFP Energy =                            0.0000000000000000
    Total Energy =                       -397.4304531512837002
    Molecular point group: c1
  Basis Set: CC-PVTZ
  Basis Set:

  -Total Gradient:
     Atom            X                  Y                   Z
    ------   -----------------  -----------------  -----------------
       1       -0.000023504826    -0.000008452302     0.002504748303
       2       -0.000582260258     0.000553785615    -0.003743721475
       3        0.001659349987    -0.001646731898     0.002355302735
       4       -0.000020324403     0.000016143007     0.000020046594
       5       -0.001070710766     0.001085293956    -0.001150575751
       6       -0.000004781878    -0.000001567470    -0.000011367088
       7       -0.000064943890    -0.000038667915     0.000048986599
       8       -0.000010194463    -0.000000530828    -0.000004649279
       9        0.000124278126     0.000076229594     0.000082362295
      10        0.000018315605    -0.000000775030    -0.000013087553
      11       -0.000002306687    -0.000059479888    -0.000120885120
      12        0.000014041988     0.000018973495     0.000028628929
      13       -0.000003205150     0.000014711582     0.000009087964
      14       -0.000033753384    -0.000008931920    -0.000004877148

  **** Optimization is complete! (in 5 steps) ****
    Final optimized geometry and variables:
    Molecular point group: c1

    Geometry (in Angstrom), charge = 0, multiplicity = 1:

    H           -2.031192977666    -2.399775781158     0.372173200785
    O           -2.330883863596    -1.508654230106     0.409218716092
    C           -1.290011024663    -0.640911234473     0.447227119106
    C           -1.323189005230     0.384374620146     1.375299881795
    C           -0.250958360204    -0.722083691637    -0.456823230453
    H           -2.146849253108     0.436423396067     2.059431895775
    C           -0.308938350098     1.319307766093     1.407048222020
    H           -0.235712343434    -1.499187860938    -1.195821786818
    C            0.770206722392     0.214059268755    -0.404616461290
    H           -0.340310124905     2.111592206320     2.129149237134
    C            0.748966079530     1.240295295040     0.522840485342
    C            1.861775740018     0.118103307967    -1.342506845149
    H            1.541917600060     1.960191466035     0.547028946595
    N            2.715500111297     0.039922722855    -2.075945695121

  Mulliken Charges: (a.u.)
   Center  Symbol    Alpha    Beta     Spin     Total
       1     H     0.38313  0.38313  0.00000  0.23374
       2     O     4.17985  4.17985  0.00000 -0.35971
       3     C     2.85709  2.85709  0.00000  0.28581
       4     C     3.10489  3.10489  0.00000 -0.20978
       5     C     3.13491  3.13491  0.00000 -0.26981
       6     H     0.41166  0.41166  0.00000  0.17668
       7     C     3.05502  3.05502  0.00000 -0.11005
       8     H     0.41403  0.41403  0.00000  0.17194
       9     C     2.92959  2.92959  0.00000  0.14082
      10     H     0.41642  0.41642  0.00000  0.16716
      11     C     3.09916  3.09916  0.00000 -0.19832
      12     C     3.02536  3.02536  0.00000 -0.05072
      13     H     0.41401  0.41401  0.00000  0.17199
      14     N     3.57489  3.57489  0.00000 -0.14978

   Total alpha = 31.00000, Total beta = 31.00000, Total charge = -0.00000

*** Psi4 exiting successfully. Buy a developer a beer!
