  ==> Input File <==

--------------------------------------------------------------------------
set {
	reference rhf
	basis 6-31G*
}

set_num_threads( 1 )
memory 2 gb

molecule MOL {
0 1

O	 1.846825	 1.296220	 0.000415
C	 1.705091	 0.115954	 0.001797
C	 0.381791	 -0.609817	 0.001258
O	 2.721346	 -0.737485	 -0.000216
C	 -0.823008	 0.326187	 0.001381
H	 0.371250	 -1.265087	 -0.865474
H	 0.370908	 -1.265746	 0.867490
C	 -0.484139	 1.708488	 -0.558506
H	 -1.202007	 0.421039	 1.014076
H	 -1.623491	 -0.121175	 -0.579483
C	 -1.681264	 2.660702	 -0.564960
H	 0.321585	 2.150299	 0.025967
H	 -0.102421	 1.606430	 -1.573275
C	 -1.342362	 4.041303	 -1.125618
H	 -2.062182	 2.765742	 0.448455
H	 -2.486656	 2.221151	 -1.149148
H	 -0.562944	 4.521749	 -0.540902
H	 -2.210659	 4.692795	 -1.117240
H	 -0.990328	 3.972759	 -2.151135
C	 4.024888	 -0.184556	 -0.001949
H	 4.179030	 0.422472	 -0.882452
H	 4.701782	 -1.024608	 -0.003642
H	 4.181981	 0.421185	 0.878906

	symmetry c1
}
set optking {
	frozen_dihedral = ("
		15 11 8 12,
		9 5 8 12,
		1 2 3 6,
		1 2 4 20
	")
}

ee = energy('scf')
oeprop('DIPOLE', 'QUADRUPOLE', 'MULLIKEN_CHARGES')
f=open( 'psi4out.xyz', 'w' )
f.write( "23  " )
f.write( str(ee) + "\n" )
f.write( MOL.save_string_xyz() )
f.close()
--------------------------------------------------------------------------

    Molecular point group: c1

    Geometry (in Angstrom), charge = 0, multiplicity = 1:

       Center              X                  Y                   Z               Mass
    ------------   -----------------  -----------------  -----------------  -----------------
           O          1.098567020607     0.333050208103     0.251206942680    15.994914619560
           C          0.956833020607    -0.847215791897     0.252588942680    12.000000000000
           C         -0.366466979393    -1.572986791897     0.252049942680    12.000000000000
           O          1.973088020607    -1.700654791897     0.250575942680    15.994914619560
           C         -1.571265979393    -0.636982791897     0.252172942680    12.000000000000
           H         -0.377007979393    -2.228256791897    -0.614682057320     1.007825032070
           H         -0.377349979393    -2.228915791897     1.118281942680     1.007825032070
           C         -1.232396979393     0.745318208103    -0.307714057320    12.000000000000
           H         -1.950264979393    -0.542130791897     1.264867942680     1.007825032070
           H         -2.371748979393    -1.084344791897    -0.328691057320     1.007825032070
           C         -2.429521979393     1.697532208103    -0.314168057320    12.000000000000
           H         -0.426672979393     1.187129208103     0.276758942680     1.007825032070
           H         -0.850678979393     0.643260208103    -1.322483057320     1.007825032070
           C         -2.090619979393     3.078133208103    -0.874826057320    12.000000000000
           H         -2.810439979393     1.802572208103     0.699246942680     1.007825032070
           H         -3.234913979393     1.257981208103    -0.898356057320     1.007825032070
           H         -1.311201979393     3.558579208103    -0.290110057320     1.007825032070
           H         -2.958916979393     3.729625208103    -0.866448057320     1.007825032070
           H         -1.738585979393     3.009589208103    -1.900343057320     1.007825032070
           C          3.276630020607    -1.147725791897     0.248842942680    12.000000000000
           H          3.430772020607    -0.540697791897    -0.631660057320     1.007825032070
           H          3.953524020607    -1.987777791897     0.247149942680     1.007825032070
           H          3.433723020607    -0.541984791897     1.129697942680     1.007825032070

  Charge       = 0
  Multiplicity = 1
  Basis Set: 6-31G*
  Basis Set:

    Orbital Energies (a.u.)
    -----------------------

    Doubly Occupied:

       1A    -20.607297     2A    -20.545134     3A    -11.378064
       4A    -11.283479     5A    -11.236856     6A    -11.216733
       7A    -11.199260     8A    -11.196764     9A    -11.185756
      10A     -1.474754    11A     -1.371281    12A     -1.085942
      13A     -1.035398    14A     -0.985318    15A     -0.923907
      16A     -0.839077    17A     -0.789172    18A     -0.772839
      19A     -0.699142    20A     -0.687509    21A     -0.673573
      22A     -0.640337    23A     -0.608912    24A     -0.598134
      25A     -0.558371    26A     -0.551523    27A     -0.548984
      28A     -0.530076    29A     -0.520377    30A     -0.514388
      31A     -0.483014    32A     -0.471042    33A     -0.464752
      34A     -0.446344    35A     -0.440938    36A     -0.396379

  @DF-RHF Final Energy:  -422.94345276467556

   => Energetics <=

    Nuclear Repulsion Energy =            473.8192125356378597
    One-Electron Energy =               -1515.6040927146825652
    Two-Electron Energy =                 618.8414274143706280
    DFT Exchange-Correlation Energy =       0.0000000000000000
    Empirical Dispersion Energy =           0.0000000000000000
    PCM Polarization Energy =               0.0000000000000000
    EFP Energy =                            0.0000000000000000
    Total Energy =                       -422.9434527646740207

  Mulliken Charges: (a.u.)
   Center  Symbol    Alpha    Beta     Spin     Total
       1     O     4.28785  4.28785  0.00000 -0.57569
       2     C     2.60164  2.60164  0.00000  0.79673
       3     C     3.21181  3.21181  0.00000 -0.42362
       4     O     4.30726  4.30726  0.00000 -0.61453
       5     C     3.15648  3.15648  0.00000 -0.31296
       6     H     0.39751  0.39751  0.00000  0.20498
       7     H     0.39672  0.39672  0.00000  0.20656
       8     C     3.16524  3.16524  0.00000 -0.33048
       9     H     0.41835  0.41835  0.00000  0.16330
      10     H     0.41784  0.41784  0.00000  0.16431
      11     C     3.14804  3.14804  0.00000 -0.29608
      12     H     0.37759  0.37759  0.00000  0.24483
      13     H     0.43089  0.43089  0.00000  0.13822
      14     C     3.23747  3.23747  0.00000 -0.47494
      15     H     0.42791  0.42791  0.00000  0.14419
      16     H     0.43135  0.43135  0.00000  0.13729
      17     H     0.42123  0.42123  0.00000  0.15755
      18     H     0.42281  0.42281  0.00000  0.15437
      19     H     0.42359  0.42359  0.00000  0.15283
      20     C     3.09285  3.09285  0.00000 -0.18569
      21     H     0.40878  0.40878  0.00000  0.18245
      22     H     0.40774  0.40774  0.00000  0.18451
      23     H     0.40906  0.40906  0.00000  0.18189

   Total alpha = 36.00000, Total beta = 36.00000, Total charge = -0.00000
