  ==> Input File <==

--------------------------------------------------------------------------
set {
	reference rhf
	basis 6-31G*
}

set_num_threads( 1 )
memory 2 gb

molecule MOL {
0 1

H	 -2.572589	 1.116524	 -0.796329
N	 -1.583928	 1.148697	 -0.639836
C	 -0.868263	 0.524246	 -1.738466
H	 -1.399179	 0.647272	 0.207247
C	 0.621063	 0.548681	 -1.465615
H	 -1.166516	 -0.508131	 -1.926201
H	 -1.062656	 1.089343	 -2.644919
O	 0.874168	 -0.245412	 -0.342030
H	 1.167986	 0.164541	 -2.326399
H	 0.942979	 1.571861	 -1.284763
C	 2.202317	 -0.244239	 0.074611
H	 2.711377	 -1.041390	 -0.449894
H	 2.692099	 0.699270	 -0.159667
H	 2.283185	 -0.418429	 1.145558

	symmetry c1
}
set optking {
	frozen_dihedral = ("
		8 5 3 6,
		6 3 2 4,
		11 8 5 3
	")
}

ee = energy('scf')
oeprop('DIPOLE', 'QUADRUPOLE', 'MULLIKEN_CHARGES')
f=open( 'psi4out.xyz', 'w' )
f.write( "14  " )
f.write( str(ee) + "\n" )
f.write( MOL.save_string_xyz() )
f.close()
--------------------------------------------------------------------------

    Molecular point group: c1

    Geometry (in Angstrom), charge = 0, multiplicity = 1:

       Center              X                  Y                   Z               Mass
    ------------   -----------------  -----------------  -----------------  -----------------
           H         -2.824207686470     0.777485959490     0.006723274250     1.007825032070
           N         -1.835546686470     0.809658959490     0.163216274250    14.003074004780
           C         -1.119881686470     0.185207959490    -0.935413725750    12.000000000000
           H         -1.650797686470     0.308233959490     1.010299274250     1.007825032070
           C          0.369444313530     0.209642959490    -0.662562725750    12.000000000000
           H         -1.418134686470    -0.847169040510    -1.123148725750     1.007825032070
           H         -1.314274686470     0.750304959490    -1.841866725750     1.007825032070
           O          0.622549313530    -0.584450040510     0.461022274250    15.994914619560
           H          0.916367313530    -0.174497040510    -1.523346725750     1.007825032070
           H          0.691360313530     1.232822959490    -0.481710725750     1.007825032070
           C          1.950698313530    -0.583277040510     0.877663274250    12.000000000000
           H          2.459758313530    -1.380428040510     0.353158274250     1.007825032070
           H          2.440480313530     0.360231959490     0.643385274250     1.007825032070
           H          2.031566313530    -0.757467040510     1.948610274250     1.007825032070

  Charge       = 0
  Multiplicity = 1
  Basis Set: 6-31G*
  Basis Set:

    Orbital Energies (a.u.)
    -----------------------

    Doubly Occupied:

       1A    -20.555396     2A    -15.528311     3A    -11.266254
       4A    -11.265842     5A    -11.240701     6A     -1.380682
       7A     -1.173488     8A     -0.998499     9A     -0.907165
      10A     -0.815831    11A     -0.683682    12A     -0.673100
      13A     -0.643715    14A     -0.611861    15A     -0.605411
      16A     -0.539133    17A     -0.532159    18A     -0.496793
      19A     -0.473037    20A     -0.414414    21A     -0.379972

  @DF-RHF Final Energy:  -248.12247655788772

   => Energetics <=

    Nuclear Repulsion Energy =            194.7080425210081955
    One-Electron Energy =                -723.2900921331969357
    Two-Electron Energy =                 280.4595730543007335
    DFT Exchange-Correlation Energy =       0.0000000000000000
    Empirical Dispersion Energy =           0.0000000000000000
    PCM Polarization Energy =               0.0000000000000000
    EFP Energy =                            0.0000000000000000
    Total Energy =                       -248.1224765578879783

  Mulliken Charges: (a.u.)
   Center  Symbol    Alpha    Beta     Spin     Total
       1     H     0.33285  0.33285  0.00000  0.33430
       2     N     3.92530  3.92530  0.00000 -0.85060
       3     C     3.06895  3.06895  0.00000 -0.13790
       4     H     0.32363  0.32363  0.00000  0.35275
       5     C     2.99085  2.99085  0.00000  0.01830
       6     H     0.42656  0.42656  0.00000  0.14688
       7     H     0.42049  0.42049  0.00000  0.15902
       8     O     4.31130  4.31130  0.00000 -0.62261
       9     H     0.43146  0.43146  0.00000  0.13708
      10     H     0.42148  0.42148  0.00000  0.15704
      11     C     3.07767  3.07767  0.00000 -0.15535
      12     H     0.42548  0.42548  0.00000  0.14903
      13     H     0.42906  0.42906  0.00000  0.14187
      14     H     0.41491  0.41491  0.00000  0.17018

   Total alpha = 21.00000, Total beta = 21.00000, Total charge = -0.00000
