  ==> Input File <==

--------------------------------------------------------------------------
set {
	reference rhf
	basis cc-pvtz
}

set_num_threads( 4 )
memory 2 gb

molecule MOL {
0 1

H	 -0.890008	 2.407927	 -0.389566
C	 -0.774720	 1.357509	 -0.224439
C	 -1.901109	 0.499020	 -0.016124
C	 0.438756	 0.800578	 -0.206082
H	 -2.890708	 0.915880	 -0.024929
C	 -1.728970	 -0.810657	 0.188060
H	 1.329875	 1.377752	 -0.354132
N	 0.640204	 -0.530428	 -0.000115
H	 -2.547402	 -1.482073	 0.347217
C	 -0.404467	 -1.414442	 0.207277
C	 2.006991	 -1.033007	 -0.000020
O	 -0.209285	 -2.585652	 0.387317
H	 2.182444	 -1.636914	 -0.880881
H	 2.678769	 -0.195442	 -0.002236
H	 2.183828	 -1.633244	 0.883082

	symmetry c1
}
set optking {
	frozen_dihedral = ("
		10 8 11 13
	")
}

ee = optimize('scf')
oeprop('DIPOLE', 'QUADRUPOLE', 'MULLIKEN_CHARGES')
f=open( 'psi4out.xyz', 'w' )
f.write( "15  " )
f.write( str(ee) + "\n" )
f.write( MOL.save_string_xyz() )
f.close()
--------------------------------------------------------------------------

    Molecular point group: c1
  Charge       = 0
  Multiplicity = 1
  Basis Set: CC-PVTZ
  Basis Set:
  @DF-RHF Final Energy:  -360.72291059902619
    Total Energy =                       -360.7229105990265339
    Molecular point group: c1
  Basis Set: CC-PVTZ
  Basis Set:
  Basis Set: CC-PVTZ
  Basis Set:
  @DF-RHF Final Energy:  -360.72348506777070
    Total Energy =                       -360.7234850677704117
  Basis Set: CC-PVTZ
  Basis Set:
  Basis Set: CC-PVTZ
  Basis Set:
  @DF-RHF Final Energy:  -360.72354282124098
    Total Energy =                       -360.7235428212412103
  Basis Set: CC-PVTZ
  Basis Set:
  Basis Set: CC-PVTZ
  Basis Set:
  @DF-RHF Final Energy:  -360.72352227577016
    Total Energy =                       -360.7235222757698807
  Basis Set: CC-PVTZ
  Basis Set:
  Charge       = 0
  Multiplicity = 1
  Basis Set: CC-PVTZ
  Basis Set:

    Orbital Energies (a.u.)
    -----------------------

    Doubly Occupied:

       1A    -20.501990     2A    -15.617803     3A    -11.337599
       4A    -11.294617     5A    -11.266024     6A    -11.258152
       7A    -11.229486     8A    -11.227775     9A     -1.391342
      10A     -1.285898    11A     -1.118825    12A     -1.029350
      13A     -0.972641    14A     -0.876603    15A     -0.838965
      16A     -0.719677    17A     -0.701963    18A     -0.664050
      19A     -0.653496    20A     -0.626310    21A     -0.611938
      22A     -0.574969    23A     -0.552301    24A     -0.551179
      25A     -0.531389    26A     -0.484843    27A     -0.420455
      28A     -0.410757    29A     -0.310056

  @DF-RHF Final Energy:  -360.72354928022622

   => Energetics <=

    Nuclear Repulsion Energy =            358.8792501094226850
    One-Electron Energy =               -1201.0846926964923114
    Two-Electron Energy =                 481.4818933068433466
    DFT Exchange-Correlation Energy =       0.0000000000000000
    Empirical Dispersion Energy =           0.0000000000000000
    PCM Polarization Energy =               0.0000000000000000
    EFP Energy =                            0.0000000000000000
    Total Energy =                       -360.7235492802263366
    Molecular point group: c1
  Basis Set: CC-PVTZ
  Basis Set:

  -Total Gradient:
     Atom            X                  Y                   Z
    ------   -----------------  -----------------  -----------------
       1       -0.000005636724     0.000007241371    -0.000001525163
       2        0.000228599965    -0.000076809616    -0.000011028400
       3       -0.000137575865    -0.000170079178     0.000035908637
       4       -0.000155940219     0.000289953664    -0.000009419943
       5        0.000013264854     0.000012153336    -0.000001046787
       6       -0.000159148928     0.000142113940    -0.000039776665
       7        0.000020325363    -0.000039205216    -0.000005032884
       8       -0.000061993561    -0.000237489190    -0.000785837347
       9        0.000007680689    -0.000023207597     0.000004072893
      10        0.000384915034     0.000271121119     0.000535777262
      11       -0.000277692932    -0.000645162180     0.000626052509
      12       -0.000088601166    -0.000089386763    -0.000019866088
      13        0.000203466977     0.000499603429    -0.000288954200
      14        0.000032181937     0.000047984109    -0.000009380957
      15       -0.000003845427     0.000011168768    -0.000029942867

  **** Optimization is complete! (in 5 steps) ****
    Final optimized geometry and variables:
    Molecular point group: c1

    Geometry (in Angstrom), charge = 0, multiplicity = 1:

    H           -0.728812638968     2.920553605717    -0.441825972304
    C           -0.602719121645     1.871774725151    -0.274292842246
    C           -1.719729721039     1.004383096152    -0.059023217116
    C            0.618915409616     1.329171855980    -0.256347846936
    H           -2.712555553082     1.413607374812    -0.065191846051
    C           -1.537066720647    -0.304284411568     0.149062789224
    H            1.501403347631     1.917010583963    -0.407575765922
    N            0.829282117953     0.002325454055    -0.045160032828
    H           -2.349069669595    -0.982550227827     0.312743826929
    C           -0.206783483383    -0.890112835857     0.158754536532
    C            2.178148335560    -0.542330906890    -0.039321895446
    O            0.020577945869    -2.057745654061     0.325439864761
    H            2.346966285120    -1.150120471373    -0.917206733384
    H            2.885540145165     0.272847332279    -0.027497364083
    H            2.320172226342    -1.158957493879     0.833154371620

  Mulliken Charges: (a.u.)
   Center  Symbol    Alpha    Beta     Spin     Total
       1     H     0.41401  0.41401  0.00000  0.17198
       2     C     3.10682  3.10682  0.00000 -0.21365
       3     C     3.05939  3.05939  0.00000 -0.11877
       4     C     3.03869  3.03869  0.00000 -0.07738
       5     H     0.41843  0.41843  0.00000  0.16314
       6     C     3.11835  3.11835  0.00000 -0.23671
       7     H     0.41906  0.41906  0.00000  0.16189
       8     N     3.50861  3.50861  0.00000 -0.01723
       9     H     0.40935  0.40935  0.00000  0.18131
      10     C     2.84565  2.84565  0.00000  0.30870
      11     C     3.09213  3.09213  0.00000 -0.18426
      12     O     4.23562  4.23562  0.00000 -0.47124
      13     H     0.44286  0.44286  0.00000  0.11428
      14     H     0.45554  0.45554  0.00000  0.08893
      15     H     0.43549  0.43549  0.00000  0.12901

   Total alpha = 29.00000, Total beta = 29.00000, Total charge =  0.00000
