                              Psi4 1.0.54 Driver

  ==> Input File <==

--------------------------------------------------------------------------
set {
	reference rhf
	basis cc-pvtz
}

set_num_threads( 4 )
memory 2 gb

molecule MOL {
0 1

H	 -2.748712	 0.170114	 -0.473864
O	 -2.041679	 -0.058866	 0.103463
C	 -0.959304	 0.780994	 -0.094939
C	 0.354905	 0.037902	 -0.006215
H	 -0.985899	 1.279578	 -1.057596
H	 -0.969809	 1.529522	 0.682889
F	 0.412060	 -0.931028	 -0.902708
F	 1.359641	 0.856111	 -0.239961
F	 0.545380	 -0.506387	 1.171682

	symmetry c1
}
set optking {
	frozen_dihedral = ("
		1 2 3 5
	")
}

ee,wfn = optimize('scf', return_wfn=True)
oeprop( wfn, 'DIPOLE', 'QUADRUPOLE', 'MULLIKEN_CHARGES')
f=open( 'psi4out.xyz', 'w' )
f.write( "9  " )
f.write( str(ee) + "\n" )
f.write( MOL.save_string_xyz() )
f.close()
--------------------------------------------------------------------------

    Molecular point group: c1
  Charge       = 0
  Multiplicity = 1
  Basis Set: CC-PVTZ
  Basis Set:
  @DF-RHF Final Energy:  -450.84331976881941
    Total Energy =                       -450.8433197688194696
    Molecular point group: c1
  Basis Set: CC-PVTZ
  Basis Set:
  Basis Set: CC-PVTZ
  Basis Set:
  @DF-RHF Final Energy:  -450.84421003239640
    Total Energy =                       -450.8442100323965178
  Basis Set: CC-PVTZ
  Basis Set:
  Basis Set: CC-PVTZ
  Basis Set:
  @DF-RHF Final Energy:  -450.84443567172764
    Total Energy =                       -450.8444356717276378
  Basis Set: CC-PVTZ
  Basis Set:
  Basis Set: CC-PVTZ
  Basis Set:
  @DF-RHF Final Energy:  -450.84444540838098
    Total Energy =                       -450.8444454083809205
  Basis Set: CC-PVTZ
  Basis Set:
  Charge       = 0
  Multiplicity = 1
  Basis Set: CC-PVTZ
  Basis Set:

    Orbital Energies (a.u.)
    -----------------------

    Doubly Occupied:

       1A    -26.333786     2A    -26.330720     3A    -26.330119
       4A    -20.582424     5A    -11.489794     6A    -11.310244
       7A     -1.741911     8A     -1.638253     9A     -1.636759
      10A     -1.405921    11A     -1.050459    12A     -0.924012
      13A     -0.833029    14A     -0.831441    15A     -0.790676
      16A     -0.741668    17A     -0.713486    18A     -0.703808
      19A     -0.670796    20A     -0.657941    21A     -0.642594
      22A     -0.640265    23A     -0.600529    24A     -0.533579
      25A     -0.483050

  @DF-RHF Final Energy:  -450.84444645470506

   => Energetics <=

    Nuclear Repulsion Energy =            277.6534483377955098
    One-Electron Energy =               -1177.7612604116106922
    Two-Electron Energy =                 449.2633656191102318
    DFT Exchange-Correlation Energy =       0.0000000000000000
    Empirical Dispersion Energy =           0.0000000000000000
    PCM Polarization Energy =               0.0000000000000000
    EFP Energy =                            0.0000000000000000
    Total Energy =                       -450.8444464547050075
    Molecular point group: c1
  Basis Set: CC-PVTZ
  Basis Set:

  -Total Gradient:
     Atom            X                  Y                   Z
    ------   -----------------  -----------------  -----------------
       1       -0.000088939579     0.000133762554     0.000167553867
       2        0.000149536077    -0.000171860809    -0.000286514535
       3       -0.000140897750     0.000169899656     0.000205765285
       4        0.000087964430     0.000216671984     0.000135666079
       5        0.000073999356    -0.000174558827    -0.000070799277
       6       -0.000002906034    -0.000026070663    -0.000029874156
       7        0.000005056602    -0.000008808148     0.000002259649
       8       -0.000056965011    -0.000113631263    -0.000048456548
       9       -0.000026848091    -0.000025404479    -0.000075600362

  **** Optimization is complete! (in 5 steps) ****
    Final optimized geometry and variables:
    Molecular point group: c1

    Geometry (in Angstrom), charge = 0, multiplicity = 1:

    H           -2.712779369182     0.101134916543    -0.463998936789
    O           -2.004202592969    -0.074742560497     0.125234994726
    C           -0.945854994505     0.793912378088    -0.101217749240
    C            0.351971550684     0.025308686718    -0.016623769770
    H           -0.979613414346     1.248075318660    -1.083621608114
    H           -0.909846627443     1.578421578500     0.645170282571
    F            0.433911742980    -0.903496242057    -0.942528563204
    F            1.366739005829     0.850949629453    -0.189472095577
    F            0.505959035496    -0.557277928649     1.148869820937

  Mulliken Charges: (a.u.)
   Center  Symbol    Alpha    Beta     Spin     Total
       1     H     0.38685  0.38685  0.00000  0.22630
       2     O     4.18953  4.18953  0.00000 -0.37905
       3     C     2.98774  2.98774  0.00000  0.02451
       4     C     2.67666  2.67666  0.00000  0.64667
       5     H     0.46385  0.46385  0.00000  0.07230
       6     H     0.46195  0.46195  0.00000  0.07610
       7     F     4.61075  4.61075  0.00000 -0.22151
       8     F     4.61453  4.61453  0.00000 -0.22905
       9     F     4.60814  4.60814  0.00000 -0.21628

   Total alpha = 25.00000, Total beta = 25.00000, Total charge =  0.00000

*** Psi4 exiting successfully. Buy a developer a beer!
