                              Psi4 1.0.54 Driver

  ==> Input File <==

--------------------------------------------------------------------------
set {
	reference rhf
	basis cc-pvtz
}

set_num_threads( 4 )
memory 2 gb

molecule MOL {
0 1

H	 2.575485	 -2.169426	 4.146168
C	 2.244601	 -2.167053	 3.114365
C	 0.992867	 -1.313830	 2.941665
H	 3.061449	 -1.791210	 2.507290
H	 2.064235	 -3.196571	 2.823542
C	 0.492374	 -1.283118	 1.505165
H	 1.187616	 -0.296715	 3.263092
H	 0.204997	 -1.696234	 3.586340
N	 -0.681156	 -0.447464	 1.370091
H	 1.269330	 -0.878244	 0.863616
H	 0.312043	 -2.306383	 1.162392
C	 -1.215959	 -0.382435	 0.027143
H	 -1.390515	 -0.758189	 2.000630
C	 -2.451944	 0.502410	 -0.038737
H	 -0.447323	 0.026831	 -0.621607
H	 -1.458095	 -1.373106	 -0.369113
C	 -3.752217	 -0.292550	 0.005776
H	 -2.407325	 1.093801	 -0.946480
H	 -2.431979	 1.206234	 0.790023
H	 -3.817783	 -0.982946	 -0.828547
H	 -4.612613	 0.364348	 -0.042306
H	 -3.830160	 -0.871666	 0.919868

	symmetry c1
}
set optking {
	frozen_dihedral = ("
		15 12 14 18
	")
}

ee,wfn = optimize('scf', return_wfn=True)
oeprop( wfn, 'DIPOLE', 'QUADRUPOLE', 'MULLIKEN_CHARGES')
f=open( 'psi4out.xyz', 'w' )
f.write( "22  " )
f.write( str(ee) + "\n" )
f.write( MOL.save_string_xyz() )
f.close()
--------------------------------------------------------------------------

    Molecular point group: c1
  Charge       = 0
  Multiplicity = 1
  Basis Set: CC-PVTZ
  Basis Set:
  @DF-RHF Final Energy:  -290.48534876344564
    Total Energy =                       -290.4853487634460407
    Molecular point group: c1
  Basis Set: CC-PVTZ
  Basis Set:
  Basis Set: CC-PVTZ
  Basis Set:
  @DF-RHF Final Energy:  -290.48576475009742
    Total Energy =                       -290.4857647500971893
  Basis Set: CC-PVTZ
  Basis Set:
  Basis Set: CC-PVTZ
  Basis Set:
  @DF-RHF Final Energy:  -290.48584628676986
    Total Energy =                       -290.4858462867697995
  Basis Set: CC-PVTZ
  Basis Set:
  Basis Set: CC-PVTZ
  Basis Set:
  @DF-RHF Final Energy:  -290.48584865135166
    Total Energy =                       -290.4858486513517732
  Basis Set: CC-PVTZ
  Basis Set:
  Charge       = 0
  Multiplicity = 1
  Basis Set: CC-PVTZ
  Basis Set:

    Orbital Energies (a.u.)
    -----------------------

    Doubly Occupied:

       1A    -15.528785     2A    -11.236223     3A    -11.236115
       4A    -11.211861     5A    -11.211613     6A    -11.209073
       7A    -11.207571     8A     -1.207408     9A     -1.059368
      10A     -1.025574    11A     -0.929029    12A     -0.874961
      13A     -0.808781    14A     -0.793632    15A     -0.667093
      16A     -0.635119    17A     -0.620238    18A     -0.592714
      19A     -0.576253    20A     -0.567530    21A     -0.550084
      22A     -0.527545    23A     -0.506589    24A     -0.488847
      25A     -0.479609    26A     -0.470130    27A     -0.467440
      28A     -0.452194    29A     -0.360707

  @DF-RHF Final Energy:  -290.48584892376385

   => Energetics <=

    Nuclear Repulsion Energy =            315.9601665971308080
    One-Electron Energy =               -1017.8878698981234265
    Two-Electron Energy =                 411.4418543772285375
    DFT Exchange-Correlation Energy =       0.0000000000000000
    Empirical Dispersion Energy =           0.0000000000000000
    PCM Polarization Energy =               0.0000000000000000
    EFP Energy =                            0.0000000000000000
    Total Energy =                       -290.4858489237640242
    Molecular point group: c1
  Basis Set: CC-PVTZ
  Basis Set:

  -Total Gradient:
     Atom            X                  Y                   Z
    ------   -----------------  -----------------  -----------------
       1       -0.000004439696     0.000001878251    -0.000001161028
       2       -0.000001687165     0.000000283870    -0.000004428120
       3        0.000000161437    -0.000004071087     0.000004768278
       4        0.000000483464     0.000000831810    -0.000000038996
       5        0.000000408809    -0.000002155890    -0.000000883573
       6        0.000042525114    -0.000023324329     0.000009800461
       7        0.000001374809     0.000002670941    -0.000003183487
       8       -0.000001400802    -0.000001778836     0.000003250900
       9       -0.000015608716     0.000016273487    -0.000024699258
      10       -0.000002065428     0.000004953113     0.000001178696
      11       -0.000006680401     0.000007058890     0.000003319589
      12        0.002025890635     0.003370882589     0.004165975081
      13       -0.000005186815    -0.000006442253     0.000000677481
      14       -0.002594964547    -0.004080554814    -0.003124011510
      15       -0.001299894508    -0.002150583903    -0.002984033612
      16       -0.000000799024    -0.000016249222     0.000006968079
      17        0.000028095227     0.000022470762     0.000003678606
      18        0.001833572971     0.002839352309     0.001926992182
      19       -0.000005559494     0.000007158857     0.000014839225
      20        0.000010583082     0.000007716751     0.000001039471
      21       -0.000005218030     0.000002830806     0.000003949181
      22        0.000000409074     0.000000797897    -0.000003997648

  **** Optimization is complete! (in 5 steps) ****
    Final optimized geometry and variables:
    Molecular point group: c1

    Geometry (in Angstrom), charge = 0, multiplicity = 1:

    H            3.150017801248    -1.498088117543     2.868212853183
    C            2.822789865075    -1.477356660078     1.835435572792
    C            1.604432438568    -0.576901558739     1.664141915607
    H            3.655014673710    -1.128767071804     1.233001377376
    H            2.604868588301    -2.497668803096     1.537954081818
    C            1.110902154179    -0.518176603521     0.226101677682
    H            1.835850063623     0.430039584994     1.993064910531
    H            0.800376008890    -0.933961640882     2.303380074392
    N           -0.030112339957     0.361512287272     0.092274721898
    H            1.904383549620    -0.137516434781    -0.410203318882
    H            0.894178343459    -1.531446925563    -0.124849062065
    C           -0.547683523740     0.460267355881    -1.256673727556
    H           -0.755608795261     0.066172420120     0.711944356253
    C           -1.812046272093     1.323363793420    -1.327850797716
    H            0.222337487217     0.878393357076    -1.895367584770
    H           -0.765718374593    -0.525764864753    -1.678788663006
    C           -3.112846058119     0.530088471997    -1.256191010653
    H           -1.789932299466     1.924989633989    -2.229866915097
    H           -1.773238709944     2.034882024773    -0.509574690645
    H           -3.209273037327    -0.141953417056    -2.101905575436
    H           -3.973556852582     1.188902685721    -1.256140101201
    H           -3.161783044867    -0.070713200208    -0.353240701285

  Mulliken Charges: (a.u.)
   Center  Symbol    Alpha    Beta     Spin     Total
       1     H     0.44771  0.44771  0.00000  0.10457
       2     C     3.15340  3.15340  0.00000 -0.30679
       3     C     3.08015  3.08015  0.00000 -0.16029
       4     H     0.45469  0.45469  0.00000  0.09061
       5     H     0.45613  0.45613  0.00000  0.08774
       6     C     3.02167  3.02167  0.00000 -0.04334
       7     H     0.44912  0.44912  0.00000  0.10176
       8     H     0.45984  0.45984  0.00000  0.08033
       9     N     3.63576  3.63576  0.00000 -0.27152
      10     H     0.45912  0.45912  0.00000  0.08176
      11     H     0.47411  0.47411  0.00000  0.05178
      12     C     3.03132  3.03132  0.00000 -0.06264
      13     H     0.44558  0.44558  0.00000  0.10884
      14     C     3.09490  3.09490  0.00000 -0.18979
      15     H     0.45439  0.45439  0.00000  0.09122
      16     H     0.47611  0.47611  0.00000  0.04779
      17     C     3.14537  3.14537  0.00000 -0.29074
      18     H     0.44935  0.44935  0.00000  0.10131
      19     H     0.44993  0.44993  0.00000  0.10013
      20     H     0.45455  0.45455  0.00000  0.09090
      21     H     0.44802  0.44802  0.00000  0.10395
      22     H     0.45878  0.45878  0.00000  0.08243

   Total alpha = 29.00000, Total beta = 29.00000, Total charge = -0.00000

*** Psi4 exiting successfully. Buy a developer a beer!
