  ==> Input File <==

--------------------------------------------------------------------------
set {
	reference rhf
	basis cc-pvtz
}

set_num_threads( 4 )
memory 2 gb

molecule MOL {
0 1

H	 1.616058	 -1.768661	 -0.973640
C	 0.729863	 -1.189689	 -1.171834
O	 0.462329	 -0.453336	 -0.000137
H	 -0.087603	 -1.859725	 -1.406401
H	 0.915135	 -0.532124	 -2.011786
C	 -0.590565	 0.341382	 0.000062
O	 -1.693898	 -0.053880	 0.000252
H	 -0.340426	 1.403822	 0.000200

	symmetry c1
}
set optking {
	frozen_dihedral = ("
		2 3 6 7
	")
}

ee = optimize('scf')
oeprop('DIPOLE', 'QUADRUPOLE', 'MULLIKEN_CHARGES')
f=open( 'psi4out.xyz', 'w' )
f.write( "8  " )
f.write( str(ee) + "\n" )
f.write( MOL.save_string_xyz() )
f.close()
--------------------------------------------------------------------------

    Molecular point group: c1
  Charge       = 0
  Multiplicity = 1
  Basis Set: CC-PVTZ
  Basis Set:
  @DF-RHF Final Energy:  -227.86094998289042
    Total Energy =                       -227.8609499828905030
    Molecular point group: c1
  Basis Set: CC-PVTZ
  Basis Set:
  Basis Set: CC-PVTZ
  Basis Set:
  @DF-RHF Final Energy:  -227.85688876350440
    Total Energy =                       -227.8568887635043438
  Basis Set: CC-PVTZ
  Basis Set:
  Basis Set: CC-PVTZ
  Basis Set:
  @DF-RHF Final Energy:  -227.86147423880476
    Total Energy =                       -227.8614742388045613
  Basis Set: CC-PVTZ
  Basis Set:
  Basis Set: CC-PVTZ
  Basis Set:
  @DF-RHF Final Energy:  -227.86177183498444
    Total Energy =                       -227.8617718349842960
  Basis Set: CC-PVTZ
  Basis Set:
  Basis Set: CC-PVTZ
  Basis Set:
  @DF-RHF Final Energy:  -227.86177671007215
    Total Energy =                       -227.8617767100720926
  Basis Set: CC-PVTZ
  Basis Set:
  Charge       = 0
  Multiplicity = 1
  Basis Set: CC-PVTZ
  Basis Set:

    Orbital Energies (a.u.)
    -----------------------

    Doubly Occupied:

       1A    -20.591474     2A    -20.560781     3A    -11.375718
       4A    -11.294027     5A     -1.473186     6A     -1.382931
       7A     -0.989331     8A     -0.829092     9A     -0.741782
      10A     -0.689361    11A     -0.669447    12A     -0.624605
      13A     -0.562667    14A     -0.518497    15A     -0.474277
      16A     -0.459088

  @DF-RHF Final Energy:  -227.86177703492677

   => Energetics <=

    Nuclear Repulsion Energy =            122.4007725595085390
    One-Electron Energy =                -554.0525749108976470
    Two-Electron Energy =                 203.7900253164623621
    DFT Exchange-Correlation Energy =       0.0000000000000000
    Empirical Dispersion Energy =           0.0000000000000000
    PCM Polarization Energy =               0.0000000000000000
    EFP Energy =                            0.0000000000000000
    Total Energy =                       -227.8617770349267460
    Molecular point group: c1
  Basis Set: CC-PVTZ
  Basis Set:

  -Total Gradient:
     Atom            X                  Y                   Z
    ------   -----------------  -----------------  -----------------
       1       -0.000012606551     0.000016560379     0.000009120355
       2        0.002737443609     0.003929096830    -0.002049781732
       3       -0.004022638254    -0.005681792143     0.006441396086
       4        0.000007427222    -0.000009710875    -0.000011038705
       5        0.000009998100    -0.000003494090    -0.000004377999
       6        0.001112282602     0.001474102595    -0.011193320142
       7        0.000180817315     0.000281794713     0.006809443240
       8       -0.000012724042    -0.000006557410    -0.000001441104

  **** Optimization is complete! (in 6 steps) ****
    Final optimized geometry and variables:
    Molecular point group: c1

    Geometry (in Angstrom), charge = 0, multiplicity = 1:

    H            1.866976225387    -1.452285850640    -0.654821239246
    C            1.001938633902    -0.847373803323    -0.870027758658
    O            0.750663927960    -0.075575258584     0.289693195902
    H            0.157952739631    -1.483121786524    -1.097284725024
    H            1.215579620486    -0.202449489726    -1.713873887117
    C           -0.343720515880     0.688566015302     0.292170011071
    O           -1.442159304284     0.282231613241     0.341843202298
    H           -0.103265525199     1.748967937254     0.323492121336

  Mulliken Charges: (a.u.)
   Center  Symbol    Alpha    Beta     Spin     Total
       1     H     0.44535  0.44535  0.00000  0.10931
       2     C     3.02333  3.02333  0.00000 -0.04666
       3     O     4.15593  4.15593  0.00000 -0.31187
       4     H     0.45143  0.45143  0.00000  0.09714
       5     H     0.46405  0.46405  0.00000  0.07190
       6     C     2.83012  2.83012  0.00000  0.33976
       7     O     4.16854  4.16854  0.00000 -0.33709
       8     H     0.46125  0.46125  0.00000  0.07750

   Total alpha = 16.00000, Total beta = 16.00000, Total charge = -0.00000
