  ==> Input File <==

--------------------------------------------------------------------------
set {
	reference rhf
	basis 6-31G*
}

set_num_threads( 4 )
memory 2 gb

molecule MOL {
0 1

H	 -2.350607	 -0.389752	 -0.219421
O	 -1.422729	 -0.573567	 -0.196946
C	 -0.731407	 0.539437	 0.309156
C	 0.680193	 0.672443	 -0.251532
H	 -1.319765	 1.404033	 0.030086
H	 -0.700012	 0.506517	 1.397677
C	 1.599139	 -0.492137	 0.118598
H	 0.616402	 0.758534	 -1.332349
H	 1.107032	 1.602637	 0.117369
H	 1.239738	 -1.428634	 -0.297334
H	 2.601428	 -0.335055	 -0.265730
H	 1.674954	 -0.608418	 1.197020

	symmetry c1
}
set optking {
	frozen_dihedral = ("
		1 2 3 4
	")
}

ee = optimize('scf')
oeprop('DIPOLE', 'QUADRUPOLE', 'MULLIKEN_CHARGES')
f=open( 'psi4out.xyz', 'w' )
f.write( "12  " )
f.write( str(ee) + "\n" )
f.write( MOL.save_string_xyz() )
f.close()
--------------------------------------------------------------------------

    Molecular point group: c1
  Charge       = 0
  Multiplicity = 1
  Basis Set: 6-31G*
  Basis Set:
  @DF-RHF Final Energy:  -193.10770642676664
    Total Energy =                       -193.1077064267666401
    Molecular point group: c1
  Basis Set: 6-31G*
  Basis Set:
  Basis Set: 6-31G*
  Basis Set:
  @DF-RHF Final Energy:  -193.10904367783817
    Total Energy =                       -193.1090436778382013
  Basis Set: 6-31G*
  Basis Set:
  Basis Set: 6-31G*
  Basis Set:
  @DF-RHF Final Energy:  -193.10943501978124
    Total Energy =                       -193.1094350197812162
  Basis Set: 6-31G*
  Basis Set:
  Basis Set: 6-31G*
  Basis Set:
  @DF-RHF Final Energy:  -193.10944080313141
    Total Energy =                       -193.1094408031313492
  Basis Set: 6-31G*
  Basis Set:
  Basis Set: 6-31G*
  Basis Set:
  @DF-RHF Final Energy:  -193.10944288314104
    Total Energy =                       -193.1094428831410141
  Basis Set: 6-31G*
  Basis Set:
  Charge       = 0
  Multiplicity = 1
  Basis Set: 6-31G*
  Basis Set:

    Orbital Energies (a.u.)
    -----------------------

    Doubly Occupied:

       1A    -20.552307     2A    -11.268304     3A    -11.213974
       4A    -11.202039     5A     -1.359048     6A     -1.045930
       7A     -0.917390     8A     -0.798736     9A     -0.703678
      10A     -0.642060    11A     -0.586713    12A     -0.573069
      13A     -0.538418    14A     -0.499553    15A     -0.479665
      16A     -0.464099    17A     -0.431347

  @DF-RHF Final Energy:  -193.10944302832380

   => Energetics <=

    Nuclear Repulsion Energy =            133.2542653286432994
    One-Electron Energy =                -526.1747544943982575
    Two-Electron Energy =                 199.8110461374312194
    DFT Exchange-Correlation Energy =       0.0000000000000000
    Empirical Dispersion Energy =           0.0000000000000000
    PCM Polarization Energy =               0.0000000000000000
    EFP Energy =                            0.0000000000000000
    Total Energy =                       -193.1094430283237102
    Molecular point group: c1
  Basis Set: 6-31G*
  Basis Set:

  -Total Gradient:
     Atom            X                  Y                   Z
    ------   -----------------  -----------------  -----------------
       1        0.000204329143     0.000668147922    -0.001728540657
       2       -0.000407352292    -0.000615566752     0.001809812572
       3        0.000606308762    -0.000696569656     0.000770280115
       4       -0.000395930065     0.000650873636    -0.000846655374
       5        0.000004727979    -0.000013101243    -0.000001486642
       6        0.000008067398     0.000015499789    -0.000000330322
       7       -0.000007784759     0.000008400224    -0.000004055109
       8       -0.000018793421     0.000001386600     0.000007564533
       9        0.000015109283    -0.000004908957     0.000000248325
      10       -0.000003373566    -0.000014485433    -0.000006926590
      11       -0.000008237595    -0.000005656888    -0.000000745512
      12        0.000002929137     0.000005980759     0.000000834663

  **** Optimization is complete! (in 6 steps) ****
    Final optimized geometry and variables:
    Molecular point group: c1

    Geometry (in Angstrom), charge = 0, multiplicity = 1:

    H           -2.270448025195    -0.481591845747    -0.257390483297
    O           -1.335579194861    -0.609207105701    -0.198893338443
    C           -0.724263990810     0.545471402339     0.324125954149
    C            0.681923815347     0.667490527342    -0.239959161949
    H           -1.296681283677     1.431980032373     0.059957714487
    H           -0.691115061165     0.490169451734     1.410834050712
    C            1.579329951146    -0.514435788959     0.124062400923
    H            0.610870665813     0.757820477382    -1.319980750487
    H            1.119535368541     1.592081709962     0.130537466023
    H            1.164659146006    -1.443007296412    -0.248982018583
    H            2.571384958033    -0.391698184859    -0.299373814333
    H            1.687731312379    -0.604426574915     1.201630120446

  Mulliken Charges: (a.u.)
   Center  Symbol    Alpha    Beta     Spin     Total
       1     H     0.27969  0.27969  0.00000  0.44062
       2     O     4.37118  4.37118  0.00000 -0.74236
       3     C     2.99692  2.99692  0.00000  0.00616
       4     C     3.15681  3.15681  0.00000 -0.31361
       5     H     0.43069  0.43069  0.00000  0.13862
       6     H     0.42949  0.42949  0.00000  0.14102
       7     C     3.24204  3.24204  0.00000 -0.48407
       8     H     0.41731  0.41731  0.00000  0.16537
       9     H     0.42457  0.42457  0.00000  0.15085
      10     H     0.40592  0.40592  0.00000  0.18816
      11     H     0.42126  0.42126  0.00000  0.15748
      12     H     0.42412  0.42412  0.00000  0.15175

   Total alpha = 17.00000, Total beta = 17.00000, Total charge =  0.00000
