  ==> Input File <==

--------------------------------------------------------------------------
set {
	reference rhf
	basis 6-31G*
}

set_num_threads( 1 )
memory 2 gb

molecule MOL {
0 1

O	 0.625848	 1.349995	 -0.000749
C	 0.486307	 0.169203	 0.000779
C	 1.608116	 -0.841643	 0.000302
O	 -0.698257	 -0.426125	 0.001050
C	 2.990107	 -0.200498	 -0.000684
H	 1.468623	 -1.481519	 -0.865924
H	 1.469683	 -1.481289	 0.866878
H	 3.129736	 0.423364	 -0.875135
H	 3.757882	 -0.966877	 -0.001197
H	 3.130964	 0.423383	 0.873533
C	 -1.286424	 -0.721354	 -1.261605
C	 -2.617424	 -1.392499	 -0.996434
H	 -0.619050	 -1.363700	 -1.819805
H	 -1.406104	 0.197988	 -1.818452
H	 -2.480901	 -2.308691	 -0.433308
H	 -3.102112	 -1.636017	 -1.936341
H	 -3.272374	 -0.738507	 -0.431995

	symmetry c1
}
set optking {
	frozen_dihedral = ("
		2 4 11 13,
		4 2 3 6
	")
}

ee = energy('scf')
oeprop('DIPOLE', 'QUADRUPOLE', 'MULLIKEN_CHARGES')
f=open( 'psi4out.xyz', 'w' )
f.write( "17  " )
f.write( str(ee) + "\n" )
f.write( MOL.save_string_xyz() )
f.close()
--------------------------------------------------------------------------

    Molecular point group: c1

    Geometry (in Angstrom), charge = 0, multiplicity = 1:

       Center              X                  Y                   Z               Mass
    ------------   -----------------  -----------------  -----------------  -----------------
           O          0.477882026952     1.644563365449     0.328237716950    15.994914619560
           C          0.338341026952     0.463771365449     0.329765716950    12.000000000000
           C          1.460150026952    -0.547074634551     0.329288716950    12.000000000000
           O         -0.846222973048    -0.131556634551     0.330036716950    15.994914619560
           C          2.842141026952     0.094070365449     0.328302716950    12.000000000000
           H          1.320657026952    -1.186950634551    -0.536937283050     1.007825032070
           H          1.321717026952    -1.186720634551     1.195864716950     1.007825032070
           H          2.981770026952     0.717932365449    -0.546148283050     1.007825032070
           H          3.609916026952    -0.672308634551     0.327789716950     1.007825032070
           H          2.982998026952     0.717951365449     1.202519716950     1.007825032070
           C         -1.434389973048    -0.426785634551    -0.932618283050    12.000000000000
           C         -2.765389973048    -1.097930634551    -0.667447283050    12.000000000000
           H         -0.767015973048    -1.069131634551    -1.490818283050     1.007825032070
           H         -1.554069973048     0.492556365449    -1.489465283050     1.007825032070
           H         -2.628866973048    -2.014122634551    -0.104321283050     1.007825032070
           H         -3.250077973048    -1.341448634551    -1.607354283050     1.007825032070
           H         -3.420339973048    -0.443938634551    -0.103008283050     1.007825032070

  Charge       = 0
  Multiplicity = 1
  Basis Set: 6-31G*
  Basis Set:

    Orbital Energies (a.u.)
    -----------------------

    Doubly Occupied:

       1A    -20.584163     2A    -20.553696     3A    -11.372360
       4A    -11.299240     5A    -11.238735     6A    -11.227537
       7A    -11.216302     8A     -1.462110     9A     -1.366171
      10A     -1.065909    11A     -1.039605    12A     -0.904662
      13A     -0.868423    14A     -0.773431    15A     -0.699937
      16A     -0.686395    17A     -0.658541    18A     -0.635479
      19A     -0.604059    20A     -0.564788    21A     -0.556500
      22A     -0.532402    23A     -0.526838    24A     -0.519499
      25A     -0.506248    26A     -0.484563    27A     -0.452756
      28A     -0.433276

  @DF-RHF Final Energy:  -344.89099578697477

   => Energetics <=

    Nuclear Repulsion Energy =            315.6060449379545503
    One-Electron Energy =               -1095.3267595981906197
    Two-Electron Energy =                 434.8297188732619816
    DFT Exchange-Correlation Energy =       0.0000000000000000
    Empirical Dispersion Energy =           0.0000000000000000
    PCM Polarization Energy =               0.0000000000000000
    EFP Energy =                            0.0000000000000000
    Total Energy =                       -344.8909957869741447

  Mulliken Charges: (a.u.)
   Center  Symbol    Alpha    Beta     Spin     Total
       1     O     4.25942  4.25942  0.00000 -0.51885
       2     C     2.61432  2.61432  0.00000  0.77137
       3     C     3.20973  3.20973  0.00000 -0.41946
       4     O     4.31618  4.31618  0.00000 -0.63235
       5     C     3.23937  3.23937  0.00000 -0.47873
       6     H     0.40789  0.40789  0.00000  0.18422
       7     H     0.39897  0.39897  0.00000  0.20207
       8     H     0.41127  0.41127  0.00000  0.17747
       9     H     0.41910  0.41910  0.00000  0.16180
      10     H     0.40865  0.40865  0.00000  0.18270
      11     C     3.00416  3.00416  0.00000 -0.00833
      12     C     3.24688  3.24688  0.00000 -0.49376
      13     H     0.42248  0.42248  0.00000  0.15503
      14     H     0.40882  0.40882  0.00000  0.18237
      15     H     0.41037  0.41037  0.00000  0.17927
      16     H     0.41701  0.41701  0.00000  0.16598
      17     H     0.40540  0.40540  0.00000  0.18920

   Total alpha = 28.00000, Total beta = 28.00000, Total charge = -0.00000
