  ==> Input File <==

--------------------------------------------------------------------------
set {
	reference rhf
	basis cc-pvtz
}

set_num_threads( 4 )
memory 2 gb

molecule MOL {
0 1

H	 0.395136	 3.540761	 -1.852900
O	 -0.067968	 2.949236	 -1.289263
C	 0.803130	 1.958494	 -0.807978
C	 0.027642	 1.012027	 0.090274
H	 1.609712	 2.409673	 -0.235589
H	 1.255289	 1.417152	 -1.634394
C	 -1.138737	 0.285728	 -0.581921
H	 -0.350894	 1.583555	 0.931447
H	 0.728474	 0.285268	 0.493844
C	 -1.933983	 -0.631436	 0.343653
H	 -0.763151	 -0.285569	 -1.422081
H	 -1.808359	 1.035291	 -0.992333
H	 -2.789188	 -1.049673	 -0.174718
H	 -1.335629	 -1.461368	 0.700418
H	 -2.305435	 -0.092167	 1.209725

	symmetry c1
}
set optking {
	frozen_dihedral = ("
		8 4 7 11
	")
}

ee = optimize('scf')
oeprop('DIPOLE', 'QUADRUPOLE', 'MULLIKEN_CHARGES')
f=open( 'psi4out.xyz', 'w' )
f.write( "15  " )
f.write( str(ee) + "\n" )
f.write( MOL.save_string_xyz() )
f.close()
--------------------------------------------------------------------------

    Molecular point group: c1
  Charge       = 0
  Multiplicity = 1
  Basis Set: CC-PVTZ
  Basis Set:
  @DF-RHF Final Energy:  -232.23857944826926
    Total Energy =                       -232.2385794482692631
    Molecular point group: c1
  Basis Set: CC-PVTZ
  Basis Set:
  Basis Set: CC-PVTZ
  Basis Set:
  @DF-RHF Final Energy:  -232.23906121452438
    Total Energy =                       -232.2390612145244404
  Basis Set: CC-PVTZ
  Basis Set:
  Basis Set: CC-PVTZ
  Basis Set:
  @DF-RHF Final Energy:  -232.23909733211065
    Total Energy =                       -232.2390973321106458
  Basis Set: CC-PVTZ
  Basis Set:
  Basis Set: CC-PVTZ
  Basis Set:
  @DF-RHF Final Energy:  -232.23909961976358
    Total Energy =                       -232.2390996197637492
  Basis Set: CC-PVTZ
  Basis Set:
  Charge       = 0
  Multiplicity = 1
  Basis Set: CC-PVTZ
  Basis Set:

    Orbital Energies (a.u.)
    -----------------------

    Doubly Occupied:

       1A    -20.546359     2A    -11.266062     3A    -11.210647
       4A    -11.207376     5A    -11.203117     6A     -1.364284
       7A     -1.066419     8A     -0.975101     9A     -0.857204
      10A     -0.787399    11A     -0.708404    12A     -0.639653
      13A     -0.611856    14A     -0.593670    15A     -0.547915
      16A     -0.529483    17A     -0.515001    18A     -0.476524
      19A     -0.465975    20A     -0.458512    21A     -0.432908

  @DF-RHF Final Energy:  -232.23909990779597

   => Energetics <=

    Nuclear Repulsion Energy =            188.8466688109667473
    One-Electron Energy =                -689.2438037247442253
    Two-Electron Energy =                 268.1580350059816737
    DFT Exchange-Correlation Energy =       0.0000000000000000
    Empirical Dispersion Energy =           0.0000000000000000
    PCM Polarization Energy =               0.0000000000000000
    EFP Energy =                            0.0000000000000000
    Total Energy =                       -232.2390999077957758
    Molecular point group: c1
  Basis Set: CC-PVTZ
  Basis Set:

  -Total Gradient:
     Atom            X                  Y                   Z
    ------   -----------------  -----------------  -----------------
       1        0.000000337304     0.000005638959     0.000002520185
       2       -0.000013784656    -0.000010699766     0.000002234617
       3        0.000015097985     0.000027388037    -0.000008148686
       4        0.000027803476    -0.000101287788     0.000069907043
       5       -0.000009021435    -0.000009641133    -0.000008029307
       6        0.000016725732    -0.000008635619    -0.000002102166
       7        0.000012347882    -0.000069302314     0.000087010733
       8       -0.000020517385     0.000079518262    -0.000074152017
       9       -0.000004396875    -0.000000312585     0.000002055167
      10       -0.000007849432    -0.000028502119    -0.000015315900
      11       -0.000017237676     0.000090264086    -0.000049861290
      12       -0.000009274620     0.000020375187    -0.000013946385
      13        0.000011431204     0.000001182605     0.000011850388
      14        0.000000769400    -0.000007788432     0.000001574805
      15       -0.000002430905     0.000011802623    -0.000005597189

  **** Optimization is complete! (in 5 steps) ****
    Final optimized geometry and variables:
    Molecular point group: c1

    Geometry (in Angstrom), charge = 0, multiplicity = 1:

    H            0.866262209028     2.385674349967    -1.352841358521
    O            0.402668634188     1.814274141011    -0.769332101055
    C            1.241842106506     0.771269772893    -0.345661941368
    C            0.458635677833    -0.156504557172     0.562696930574
    H            2.097191551293     1.170880382550     0.193187338505
    H            1.621491926677     0.217435434106    -1.202149115777
    C           -0.696864880532    -0.871113022885    -0.132408685400
    H            0.081246637182     0.422656821596     1.400196223562
    H            1.149236544049    -0.889632386991     0.971822198017
    C           -1.467955916801    -1.794964734869     0.804267511008
    H           -0.308546455419    -1.447441142806    -0.968492869296
    H           -1.369226049598    -0.133563602740    -0.553229621355
    H           -2.279088756054    -2.291735246830     0.284458904149
    H           -0.823132933178    -2.562426804615     1.220436595083
    H           -1.897225401790    -1.241067993686     1.632564068942

  Mulliken Charges: (a.u.)
   Center  Symbol    Alpha    Beta     Spin     Total
       1     H     0.39555  0.39555  0.00000  0.20890
       2     O     4.19903  4.19903  0.00000 -0.39806
       3     C     2.97293  2.97293  0.00000  0.05414
       4     C     3.08783  3.08783  0.00000 -0.17566
       5     H     0.46564  0.46564  0.00000  0.06872
       6     H     0.47388  0.47388  0.00000  0.05223
       7     C     3.08360  3.08360  0.00000 -0.16721
       8     H     0.45265  0.45265  0.00000  0.09469
       9     H     0.45499  0.45499  0.00000  0.09001
      10     C     3.14963  3.14963  0.00000 -0.29926
      11     H     0.45905  0.45905  0.00000  0.08191
      12     H     0.44447  0.44447  0.00000  0.11106
      13     H     0.44891  0.44891  0.00000  0.10218
      14     H     0.45732  0.45732  0.00000  0.08536
      15     H     0.45452  0.45452  0.00000  0.09096

   Total alpha = 21.00000, Total beta = 21.00000, Total charge = -0.00000
