  ==> Input File <==

--------------------------------------------------------------------------
set {
	reference rhf
	basis 6-31G*
}

set_num_threads( 1 )
memory 2 gb

molecule MOL {
0 1

H	 -2.771929	 -0.698970	 -1.117682
O	 -2.310168	 -0.871793	 -0.309793
C	 -2.026376	 0.340750	 0.341611
C	 -0.673256	 0.843270	 -0.132153
H	 -2.792215	 1.080697	 0.115987
H	 -2.013526	 0.200402	 1.421792
C	 0.486613	 -0.083066	 0.235839
H	 -0.715586	 0.970948	 -1.210718
H	 -0.508072	 1.829858	 0.297090
C	 1.840406	 0.433480	 -0.254303
H	 0.300215	 -1.068318	 -0.178947
H	 0.519509	 -0.203625	 1.318070
C	 3.000220	 -0.489290	 0.118523
H	 1.809207	 0.553576	 -1.335192
H	 2.021860	 1.424500	 0.157276
H	 2.864959	 -1.479103	 -0.307933
H	 3.946603	 -0.099227	 -0.243630
H	 3.080049	 -0.602997	 1.196117

	symmetry c1
}
set optking {
	frozen_dihedral = ("
		14 10 7 11,
		10 7 4 8,
		2 3 4 8
	")
}

ee = energy('scf')
oeprop('DIPOLE', 'QUADRUPOLE', 'MULLIKEN_CHARGES')
f=open( 'psi4out.xyz', 'w' )
f.write( "18  " )
f.write( str(ee) + "\n" )
f.write( MOL.save_string_xyz() )
f.close()
--------------------------------------------------------------------------

    Molecular point group: c1

    Geometry (in Angstrom), charge = 0, multiplicity = 1:

       Center              X                  Y                   Z               Mass
    ------------   -----------------  -----------------  -----------------  -----------------
           H         -2.776087781921    -0.704874751171    -1.104879008141     1.007825032070
           O         -2.314326781921    -0.877697751171    -0.296990008141    15.994914619560
           C         -2.030534781921     0.334845248829     0.354413991859    12.000000000000
           C         -0.677414781921     0.837365248829    -0.119350008141    12.000000000000
           H         -2.796373781921     1.074792248829     0.128789991859     1.007825032070
           H         -2.017684781921     0.194497248829     1.434594991859     1.007825032070
           C          0.482454218079    -0.088970751171     0.248641991859    12.000000000000
           H         -0.719744781921     0.965043248829    -1.197915008141     1.007825032070
           H         -0.512230781921     1.823953248829     0.309892991859     1.007825032070
           C          1.836247218079     0.427575248829    -0.241500008141    12.000000000000
           H          0.296056218079    -1.074222751171    -0.166144008141     1.007825032070
           H          0.515350218079    -0.209529751171     1.330872991859     1.007825032070
           C          2.996061218079    -0.495194751171     0.131325991859    12.000000000000
           H          1.805048218079     0.547671248829    -1.322389008141     1.007825032070
           H          2.017701218079     1.418595248829     0.170078991859     1.007825032070
           H          2.860800218079    -1.485007751171    -0.295130008141     1.007825032070
           H          3.942444218079    -0.105131751171    -0.230827008141     1.007825032070
           H          3.075890218079    -0.608901751171     1.208919991859     1.007825032070

  Charge       = 0
  Multiplicity = 1
  Basis Set: 6-31G*
  Basis Set:

    Orbital Energies (a.u.)
    -----------------------

    Doubly Occupied:

       1A    -20.552508     2A    -11.269082     3A    -11.211986
       4A    -11.211445     5A    -11.207399     6A    -11.205341
       7A     -1.360601     8A     -1.075396     9A     -1.008838
      10A     -0.914320    11A     -0.823128    12A     -0.788544
      13A     -0.691539    14A     -0.650985    15A     -0.612873
      16A     -0.598455    17A     -0.573502    18A     -0.551230
      19A     -0.531250    20A     -0.496947    21A     -0.490145
      22A     -0.470089    23A     -0.459919    24A     -0.452418
      25A     -0.422007

  @DF-RHF Final Energy:  -271.17761290247643

   => Energetics <=

    Nuclear Repulsion Energy =            249.4002074994064913
    One-Electron Energy =                -861.8957430185209887
    Two-Electron Energy =                 341.3179226166381568
    DFT Exchange-Correlation Energy =       0.0000000000000000
    Empirical Dispersion Energy =           0.0000000000000000
    PCM Polarization Energy =               0.0000000000000000
    EFP Energy =                            0.0000000000000000
    Total Energy =                       -271.1776129024763122

  Mulliken Charges: (a.u.)
   Center  Symbol    Alpha    Beta     Spin     Total
       1     H     0.28037  0.28037  0.00000  0.43926
       2     O     4.36872  4.36872  0.00000 -0.73743
       3     C     3.00384  3.00384  0.00000 -0.00767
       4     C     3.15691  3.15691  0.00000 -0.31381
       5     H     0.42832  0.42832  0.00000  0.14337
       6     H     0.41778  0.41778  0.00000  0.16444
       7     C     3.15233  3.15233  0.00000 -0.30467
       8     H     0.42695  0.42695  0.00000  0.14609
       9     H     0.42722  0.42722  0.00000  0.14557
      10     C     3.15124  3.15124  0.00000 -0.30248
      11     H     0.40912  0.40912  0.00000  0.18176
      12     H     0.42596  0.42596  0.00000  0.14808
      13     C     3.23892  3.23892  0.00000 -0.47783
      14     H     0.42404  0.42404  0.00000  0.15192
      15     H     0.42489  0.42489  0.00000  0.15023
      16     H     0.42098  0.42098  0.00000  0.15805
      17     H     0.42042  0.42042  0.00000  0.15916
      18     H     0.42201  0.42201  0.00000  0.15597

   Total alpha = 25.00000, Total beta = 25.00000, Total charge = -0.00000
