  ==> Input File <==

--------------------------------------------------------------------------
set {
	reference rhf
	basis 6-31G*
}

set_num_threads( 1 )
memory 2 gb

molecule MOL {
0 1

H	 0.987317	 -0.496298	 -1.566192
O	 1.211775	 0.389047	 -1.313933
C	 0.709265	 0.639550	 -0.033818
C	 -0.793441	 0.596080	 0.058728
H	 1.062669	 1.626593	 0.241960
H	 1.131940	 -0.055711	 0.690739
C	 -1.530462	 -0.493172	 -0.025500
H	 -1.268471	 1.554324	 0.202247
H	 -1.092586	 -1.461565	 -0.186463
H	 -2.602122	 -0.450675	 0.050101

	symmetry c1
}
set optking {
	frozen_dihedral = ("
		5 3 2 1,
		3 4 7 9
	")
}

ee = energy('scf')
oeprop('DIPOLE', 'QUADRUPOLE', 'MULLIKEN_CHARGES')
f=open( 'psi4out.xyz', 'w' )
f.write( "10  " )
f.write( str(ee) + "\n" )
f.write( MOL.save_string_xyz() )
f.close()
--------------------------------------------------------------------------

    Molecular point group: c1

    Geometry (in Angstrom), charge = 0, multiplicity = 1:

       Center              X                  Y                   Z               Mass
    ------------   -----------------  -----------------  -----------------  -----------------
           H          1.018132855151    -0.769455066015    -1.194126495703     1.007825032070
           O          1.242590855151     0.115889933985    -0.941867495703    15.994914619560
           C          0.740080855151     0.366392933985     0.338247504297    12.000000000000
           C         -0.762625144849     0.322922933985     0.430793504297    12.000000000000
           H          1.093484855151     1.353435933985     0.614025504297     1.007825032070
           H          1.162755855151    -0.328868066015     1.062804504297     1.007825032070
           C         -1.499646144849    -0.766329066015     0.346565504297    12.000000000000
           H         -1.237655144849     1.281166933985     0.574312504297     1.007825032070
           H         -1.061770144849    -1.734722066015     0.185602504297     1.007825032070
           H         -2.571306144849    -0.723832066015     0.422166504297     1.007825032070

  Charge       = 0
  Multiplicity = 1
  Basis Set: 6-31G*
  Basis Set:

    Orbital Energies (a.u.)
    -----------------------

    Doubly Occupied:

       1A    -20.556680     2A    -11.275321     3A    -11.232182
       4A    -11.227946     5A     -1.365548     6A     -1.062866
       7A     -0.926173     8A     -0.770909     9A     -0.701066
      10A     -0.642816    11A     -0.621716    12A     -0.582615
      13A     -0.531436    14A     -0.495465    15A     -0.436108
      16A     -0.373663

  @DF-RHF Final Energy:  -191.91133365867688

   => Energetics <=

    Nuclear Repulsion Energy =            118.3312057081283797
    One-Electron Energy =                -494.8800605813063953
    Two-Electron Energy =                 184.6375212145013052
    DFT Exchange-Correlation Energy =       0.0000000000000000
    Empirical Dispersion Energy =           0.0000000000000000
    PCM Polarization Energy =               0.0000000000000000
    EFP Energy =                            0.0000000000000000
    Total Energy =                       -191.9113336586767105

  Mulliken Charges: (a.u.)
   Center  Symbol    Alpha    Beta     Spin     Total
       1     H     0.28219  0.28219  0.00000  0.43562
       2     O     4.36221  4.36221  0.00000 -0.72443
       3     C     3.00952  3.00952  0.00000 -0.01904
       4     C     3.08398  3.08398  0.00000 -0.16796
       5     H     0.41250  0.41250  0.00000  0.17499
       6     H     0.42453  0.42453  0.00000  0.15094
       7     C     3.19522  3.19522  0.00000 -0.39043
       8     H     0.40590  0.40590  0.00000  0.18819
       9     H     0.41710  0.41710  0.00000  0.16579
      10     H     0.40683  0.40683  0.00000  0.18633

   Total alpha = 16.00000, Total beta = 16.00000, Total charge = -0.00000
