  ==> Input File <==

--------------------------------------------------------------------------
set {
	reference rhf
	basis 6-31G*
}

set_num_threads( 4 )
memory 2 gb

molecule MOL {
0 1

O	 -0.077441	 0.311629	 2.391259
C	 -0.667482	 0.726503	 1.446800
C	 -1.546483	 1.947856	 1.446604
O	 -0.632575	 0.154573	 0.251549
H	 -2.553961	 1.673951	 1.155208
H	 -1.553540	 2.389618	 2.431811
H	 -1.178167	 2.663870	 0.721053
C	 0.160891	 -1.019931	 0.106212
C	 1.589627	 -0.672828	 0.480843
H	 0.089836	 -1.367806	 -0.916050
H	 -0.238459	 -1.792301	 0.749618
C	 2.246377	 0.346236	 -0.452210
H	 2.163194	 -1.597435	 0.473358
H	 1.604769	 -0.303424	 1.502885
C	 3.691736	 0.652107	 -0.061850
H	 2.219579	 -0.032311	 -1.472055
H	 1.666466	 1.263317	 -0.447249
H	 4.134505	 1.377213	 -0.737283
H	 4.305508	 -0.243868	 -0.089969
H	 3.748266	 1.059562	 0.943567

	symmetry c1
}
set optking {
	frozen_dihedral = ("
		2 4 8 10
	")
}

ee = optimize('scf')
oeprop('DIPOLE', 'QUADRUPOLE', 'MULLIKEN_CHARGES')
f=open( 'psi4out.xyz', 'w' )
f.write( "20  " )
f.write( str(ee) + "\n" )
f.write( MOL.save_string_xyz() )
f.close()
--------------------------------------------------------------------------

    Molecular point group: c1
  Charge       = 0
  Multiplicity = 1
  Basis Set: 6-31G*
  Basis Set:
  @DF-RHF Final Energy:  -383.93384919435300
    Total Energy =                       -383.9338491943530016
    Molecular point group: c1
  Basis Set: 6-31G*
  Basis Set:
  Basis Set: 6-31G*
  Basis Set:
  @DF-RHF Final Energy:  -383.94147128379439
    Total Energy =                       -383.9414712837946126
  Basis Set: 6-31G*
  Basis Set:
  Basis Set: 6-31G*
  Basis Set:
  @DF-RHF Final Energy:  -383.94243123927851
    Total Energy =                       -383.9424312392784486
  Basis Set: 6-31G*
  Basis Set:
  Basis Set: 6-31G*
  Basis Set:
  @DF-RHF Final Energy:  -383.94233733171956
    Total Energy =                       -383.9423373317197274
  Basis Set: 6-31G*
  Basis Set:
  @DF-RHF Final Energy:  -383.94243787453377
    Total Energy =                       -383.9424378745336526
  Basis Set: 6-31G*
  Basis Set:
  @DF-RHF Final Energy:  -383.94251999360233
    Total Energy =                       -383.9425199936026729
  Basis Set: 6-31G*
  Basis Set:
  Basis Set: 6-31G*
  Basis Set:
  @DF-RHF Final Energy:  -383.94252160313431
    Total Energy =                       -383.9425216031346508
  Basis Set: 6-31G*
  Basis Set:
  Basis Set: 6-31G*
  Basis Set:
  @DF-RHF Final Energy:  -383.94252266100489
    Total Energy =                       -383.9425226610045456
  Basis Set: 6-31G*
  Basis Set:
  Charge       = 0
  Multiplicity = 1
  Basis Set: 6-31G*
  Basis Set:

    Orbital Energies (a.u.)
    -----------------------

    Doubly Occupied:

       1A    -20.601197     2A    -20.544313     3A    -11.375558
       4A    -11.284991     5A    -11.232965     6A    -11.220639
       7A    -11.218853     8A    -11.211648     9A     -1.466330
      10A     -1.362648    11A     -1.082334    12A     -1.028402
      13A     -0.979215    14A     -0.890025    15A     -0.817484
      16A     -0.746780    17A     -0.697241    18A     -0.681661
      19A     -0.665033    20A     -0.633383    21A     -0.599418
      22A     -0.591168    23A     -0.572317    24A     -0.564729
      25A     -0.536693    26A     -0.524126    27A     -0.512895
      28A     -0.489139    29A     -0.474989    30A     -0.470644
      31A     -0.443353    32A     -0.433274

  @DF-RHF Final Energy:  -383.94252296012979

   => Energetics <=

    Nuclear Repulsion Energy =            394.9594162989776009
    One-Electron Energy =               -1305.8969924800121589
    Two-Electron Energy =                 526.9950532209045377
    DFT Exchange-Correlation Energy =       0.0000000000000000
    Empirical Dispersion Energy =           0.0000000000000000
    PCM Polarization Energy =               0.0000000000000000
    EFP Energy =                            0.0000000000000000
    Total Energy =                       -383.9425229601299634
    Molecular point group: c1
  Basis Set: 6-31G*
  Basis Set:

  -Total Gradient:
     Atom            X                  Y                   Z
    ------   -----------------  -----------------  -----------------
       1       -0.000001465837     0.000004100446     0.000000447268
       2        0.003476850089     0.002754816280    -0.001080347356
       3        0.000049848745     0.000027707129    -0.000003207292
       4       -0.004437288170    -0.003536714518     0.001380451935
       5       -0.000010828749    -0.000014768242     0.000010851892
       6       -0.000007762269     0.000003243177     0.000000995642
       7       -0.000015307129    -0.000001096598    -0.000008093882
       8       -0.002870028597    -0.002252411490     0.000875887999
       9       -0.000007450580     0.000032531560     0.000075040802
      10        0.003840693437     0.003027062475    -0.001184401795
      11       -0.000017549133    -0.000008893048    -0.000005890796
      12       -0.000024127355    -0.000025398416    -0.000003053561
      13       -0.000006260122    -0.000000981220    -0.000008843426
      14        0.000012127481    -0.000022676188    -0.000031415047
      15        0.000003388668     0.000015896154    -0.000000026074
      16        0.000003721054     0.000002318126    -0.000003699219
      17        0.000002712940    -0.000000593218    -0.000013601417
      18        0.000005480308     0.000003760544     0.000002091934
      19        0.000001723400    -0.000000707905    -0.000006740191
      20        0.000001521825    -0.000007195049     0.000003552581

  **** Optimization is complete! (in 9 steps) ****
    Final optimized geometry and variables:
    Molecular point group: c1

    Geometry (in Angstrom), charge = 0, multiplicity = 1:

    O           -0.862915762555     0.033276247116     1.770141637896
    C           -1.345282779928     0.422596325234     0.755740847578
    C           -2.197394311289     1.657260769663     0.630702381742
    O           -1.218970357140    -0.190815591870    -0.411754897663
    H           -3.171322657809     1.390700205846     0.236935082544
    H           -2.304011798924     2.123603532164     1.598731369613
    H           -1.740188636849     2.349451089744    -0.067022106473
    C           -0.355674907897    -1.321501691632    -0.529462368983
    C            1.114019068087    -1.027882531585    -0.248380416070
    H           -0.453371362158    -1.603358072686    -1.568457800451
    H           -0.724978076166    -2.114980544606     0.105503542770
    C            1.699996821756     0.077993845623    -1.128969935671
    H            1.650213471028    -1.956939935219    -0.435886586336
    H            1.255044790396    -0.790628793548     0.797408975254
    C            3.192079435849     0.293644103662    -0.878537776169
    H            1.540022087754    -0.167998665085    -2.176859514022
    H            1.168920886263     1.008663691607    -0.951010869849
    H            3.584831679854     1.085523944800    -1.508552167980
    H            3.760107695649    -0.608380138485    -1.088083788088
    H            3.379236729288     0.568791358225     0.155259717918

  Mulliken Charges: (a.u.)
   Center  Symbol    Alpha    Beta     Spin     Total
       1     O     4.28395  4.28395  0.00000 -0.56789
       2     C     2.61833  2.61833  0.00000  0.76335
       3     C     3.28180  3.28180  0.00000 -0.56361
       4     O     4.31139  4.31139  0.00000 -0.62277
       5     H     0.39985  0.39985  0.00000  0.20030
       6     H     0.39732  0.39732  0.00000  0.20536
       7     H     0.40122  0.40122  0.00000  0.19755
       8     C     2.99955  2.99955  0.00000  0.00090
       9     C     3.18013  3.18013  0.00000 -0.36025
      10     H     0.41052  0.41052  0.00000  0.17896
      11     H     0.40680  0.40680  0.00000  0.18640
      12     C     3.15269  3.15269  0.00000 -0.30538
      13     H     0.42019  0.42019  0.00000  0.15963
      14     H     0.39498  0.39498  0.00000  0.21003
      15     C     3.23985  3.23985  0.00000 -0.47969
      16     H     0.42343  0.42343  0.00000  0.15313
      17     H     0.41957  0.41957  0.00000  0.16085
      18     H     0.41839  0.41839  0.00000  0.16322
      19     H     0.42165  0.42165  0.00000  0.15670
      20     H     0.41839  0.41839  0.00000  0.16321

   Total alpha = 32.00000, Total beta = 32.00000, Total charge =  0.00000
