  ==> Input File <==

--------------------------------------------------------------------------
set {
	reference rhf
	basis cc-pvtz
}

set_num_threads( 4 )
memory 2 gb

molecule MOL {
0 1

H	 -2.439823	 -0.285760	 -0.718506
O	 -2.041679	 -0.058866	 0.103463
C	 -0.959304	 0.780994	 -0.094939
C	 0.354905	 0.037902	 -0.006215
H	 -0.985899	 1.279578	 -1.057596
H	 -0.969809	 1.529522	 0.682889
F	 0.412060	 -0.931028	 -0.902708
F	 1.359641	 0.856111	 -0.239961
F	 0.545380	 -0.506387	 1.171682

	symmetry c1
}
set optking {
	frozen_dihedral = ("
		1 2 3 5
	")
}

ee = optimize('scf')
oeprop('DIPOLE', 'QUADRUPOLE', 'MULLIKEN_CHARGES')
f=open( 'psi4out.xyz', 'w' )
f.write( "9  " )
f.write( str(ee) + "\n" )
f.write( MOL.save_string_xyz() )
f.close()
--------------------------------------------------------------------------

    Molecular point group: c1
  Charge       = 0
  Multiplicity = 1
  Basis Set: CC-PVTZ
  Basis Set:
  @DF-RHF Final Energy:  -450.84569702391536
    Total Energy =                       -450.8456970239151360
    Molecular point group: c1
  Basis Set: CC-PVTZ
  Basis Set:
  Basis Set: CC-PVTZ
  Basis Set:
  @DF-RHF Final Energy:  -450.84589936951249
    Total Energy =                       -450.8458993695126082
  Basis Set: CC-PVTZ
  Basis Set:
  Basis Set: CC-PVTZ
  Basis Set:
  @DF-RHF Final Energy:  -450.84594753016268
    Total Energy =                       -450.8459475301625616
  Basis Set: CC-PVTZ
  Basis Set:
  Basis Set: CC-PVTZ
  Basis Set:
  @DF-RHF Final Energy:  -450.84595007094504
    Total Energy =                       -450.8459500709449230
  Basis Set: CC-PVTZ
  Basis Set:
  Charge       = 0
  Multiplicity = 1
  Basis Set: CC-PVTZ
  Basis Set:

    Orbital Energies (a.u.)
    -----------------------

    Doubly Occupied:

       1A    -26.335454     2A    -26.333997     3A    -26.331657
       4A    -20.583374     5A    -11.489598     6A    -11.310449
       7A     -1.743438     8A     -1.640157     9A     -1.638656
      10A     -1.406739    11A     -1.049817    12A     -0.926252
      13A     -0.834085    14A     -0.832531    15A     -0.800054
      16A     -0.739637    17A     -0.714716    18A     -0.704482
      19A     -0.669202    20A     -0.660771    21A     -0.644791
      22A     -0.635663    23A     -0.606452    24A     -0.536977
      25A     -0.483523

  @DF-RHF Final Energy:  -450.84595034150044

   => Energetics <=

    Nuclear Repulsion Energy =            277.4958440521458556
    One-Electron Energy =               -1177.3786447130387387
    Two-Electron Energy =                 449.0368503193925562
    DFT Exchange-Correlation Energy =       0.0000000000000000
    Empirical Dispersion Energy =           0.0000000000000000
    PCM Polarization Energy =               0.0000000000000000
    EFP Energy =                            0.0000000000000000
    Total Energy =                       -450.8459503415002700
    Molecular point group: c1
  Basis Set: CC-PVTZ
  Basis Set:

  -Total Gradient:
     Atom            X                  Y                   Z
    ------   -----------------  -----------------  -----------------
       1       -0.001287990164     0.001626775093     0.000089423102
       2        0.001879979642    -0.002439550350    -0.000352555065
       3       -0.001559958389     0.002189494373     0.000958944546
       4        0.000041816823     0.000098023426     0.000069543269
       5        0.000946277990    -0.001390437203    -0.000699389935
       6        0.000003978715    -0.000004100311    -0.000007024032
       7        0.000007570843    -0.000015740458    -0.000017669885
       8       -0.000030288525    -0.000056442298    -0.000018334277
       9       -0.000001386933    -0.000008022272    -0.000022937721

  **** Optimization is complete! (in 5 steps) ****
    Final optimized geometry and variables:
    Molecular point group: c1

    Geometry (in Angstrom), charge = 0, multiplicity = 1:

    H           -2.419538670823    -0.318253898601    -0.694612360575
    O           -2.027700254304    -0.061096182464     0.118919994810
    C           -0.952707742092     0.787561336418    -0.096107619193
    C            0.354232203638     0.030612975325    -0.010008089654
    H           -0.976552233884     1.258859002352    -1.070992281336
    H           -0.942329202373     1.553486446545     0.666094048915
    F            0.425018253099    -0.913657093400    -0.926317225766
    F            1.365520730147     0.853804037944    -0.208065999061
    F            0.524759137761    -0.537800930599     1.159616273921

  Mulliken Charges: (a.u.)
   Center  Symbol    Alpha    Beta     Spin     Total
       1     H     0.38576  0.38576  0.00000  0.22849
       2     O     4.19232  4.19232  0.00000 -0.38464
       3     C     2.99409  2.99409  0.00000  0.01182
       4     C     2.67907  2.67907  0.00000  0.64186
       5     H     0.46128  0.46128  0.00000  0.07743
       6     H     0.45044  0.45044  0.00000  0.09912
       7     F     4.61486  4.61486  0.00000 -0.22972
       8     F     4.61430  4.61430  0.00000 -0.22861
       9     F     4.60788  4.60788  0.00000 -0.21575

   Total alpha = 25.00000, Total beta = 25.00000, Total charge = -0.00000
