  ==> Input File <==

--------------------------------------------------------------------------
set {
	reference rhf
	basis 6-31G*
}

set_num_threads( 4 )
memory 2 gb

molecule MOL {
0 1

H	 0.671156	 -3.606478	 4.128558
C	 0.912716	 -2.982162	 3.287755
C	 0.203933	 -3.097363	 2.096714
C	 1.930221	 -2.054312	 3.372791
H	 -0.592522	 -3.815247	 2.012268
C	 0.510825	 -2.298548	 1.016478
H	 2.489215	 -1.951203	 4.286015
C	 2.252417	 -1.240594	 2.291814
H	 -0.028516	 -2.377149	 0.090861
C	 1.539671	 -1.363647	 1.109472
H	 3.048910	 -0.528691	 2.389082
O	 1.765256	 -0.628444	 0.000000
C	 2.778419	 0.335181	 0.000000
H	 2.731280	 0.961222	 -0.884976
H	 3.711703	 -0.207767	 0.000000
H	 2.731280	 0.961222	 0.884976

	symmetry c1
}
set optking {
	frozen_dihedral = ("
		10 12 13 14
	")
}

ee = optimize('scf')
oeprop('DIPOLE', 'QUADRUPOLE', 'MULLIKEN_CHARGES')
f=open( 'psi4out.xyz', 'w' )
f.write( "16  " )
f.write( str(ee) + "\n" )
f.write( MOL.save_string_xyz() )
f.close()
--------------------------------------------------------------------------

    Molecular point group: c1
  Charge       = 0
  Multiplicity = 1
  Basis Set: 6-31G*
  Basis Set:
  @DF-RHF Final Energy:  -344.58018892278102
    Total Energy =                       -344.5801889227809056
    Molecular point group: c1
  Basis Set: 6-31G*
  Basis Set:
  Basis Set: 6-31G*
  Basis Set:
  @DF-RHF Final Energy:  -344.58197852902833
    Total Energy =                       -344.5819785290285608
  Basis Set: 6-31G*
  Basis Set:
  Basis Set: 6-31G*
  Basis Set:
  @DF-RHF Final Energy:  -344.58255266670358
    Total Energy =                       -344.5825526667034069
  Basis Set: 6-31G*
  Basis Set:
  Basis Set: 6-31G*
  Basis Set:
  @DF-RHF Final Energy:  -344.58256231637517
    Total Energy =                       -344.5825623163751743
  Basis Set: 6-31G*
  Basis Set:
  Basis Set: 6-31G*
  Basis Set:
  @DF-RHF Final Energy:  -344.58256530581792
    Total Energy =                       -344.5825653058180364
  Basis Set: 6-31G*
  Basis Set:
  Charge       = 0
  Multiplicity = 1
  Basis Set: 6-31G*
  Basis Set:

    Orbital Energies (a.u.)
    -----------------------

    Doubly Occupied:

       1A    -20.584849     2A    -11.293899     3A    -11.279900
       4A    -11.232836     5A    -11.231322     6A    -11.223750
       7A    -11.219284     8A    -11.219170     9A     -1.413956
      10A     -1.145727    11A     -1.021629    12A     -1.012648
      13A     -0.941506    14A     -0.830381    15A     -0.804558
      16A     -0.721503    17A     -0.663795    18A     -0.661639
      19A     -0.656053    20A     -0.616669    21A     -0.586737
      22A     -0.575889    23A     -0.523794    24A     -0.520282
      25A     -0.508631    26A     -0.475801    27A     -0.461531
      28A     -0.334566    29A     -0.305009

  @DF-RHF Final Energy:  -344.58256549524566

   => Energetics <=

    Nuclear Repulsion Energy =            348.1180808544816614
    One-Electron Energy =               -1157.2666684282085043
    Two-Electron Energy =                 464.5660220784806711
    DFT Exchange-Correlation Energy =       0.0000000000000000
    Empirical Dispersion Energy =           0.0000000000000000
    PCM Polarization Energy =               0.0000000000000000
    EFP Energy =                            0.0000000000000000
    Total Energy =                       -344.5825654952462287
    Molecular point group: c1
  Basis Set: 6-31G*
  Basis Set:

  -Total Gradient:
     Atom            X                  Y                   Z
    ------   -----------------  -----------------  -----------------
       1       -0.000003174282    -0.000004917714    -0.000003902649
       2        0.000016908216     0.000026975839     0.000022779128
       3       -0.000002934800    -0.000000868040    -0.000045449633
       4       -0.000019238780    -0.000034777358     0.000011268171
       5       -0.000002816846    -0.000000927683     0.000004377393
       6       -0.000019091568    -0.000051671174     0.000022264463
       7        0.000002509689     0.000003804149    -0.000005749808
       8        0.000000961550     0.000012494707    -0.000071981942
       9       -0.000000667910     0.000004621946     0.000002744647
      10       -0.000855364862     0.000825746229     0.000315731113
      11        0.000010650631     0.000017796814    -0.000007687173
      12        0.001068175090    -0.000992537246    -0.000282035507
      13        0.000680263505    -0.000616334614    -0.000515292368
      14       -0.000892658466     0.000801930068     0.000543348112
      15        0.000007320648     0.000013284338    -0.000001895999
      16        0.000009158184    -0.000004620261     0.000011482059

  **** Optimization is complete! (in 6 steps) ****
    Final optimized geometry and variables:
    Molecular point group: c1

    Geometry (in Angstrom), charge = 0, multiplicity = 1:

    H           -0.909997540264    -1.958649935970     2.561305087254
    C           -0.645461946194    -1.353301179661     1.713543714474
    C           -1.359754450183    -1.454370335607     0.524362472042
    C            0.407944828610    -0.465462045511     1.787193776479
    H           -2.183619804767    -2.141757627537     0.449065461315
    C           -1.024788016148    -0.678726111754    -0.564325649279
    H            0.973681822222    -0.376016231889     2.697703289099
    C            0.759867829927     0.323015409250     0.696737198823
    H           -1.568691653835    -0.745394813683    -1.488198733113
    C            0.038770358696     0.217556446037    -0.481951557446
    H            1.588787924923     0.998747827123     0.781692960806
    O            0.297233044157     0.926590188369    -1.601218126806
    C            1.233189191316     1.965333435473    -1.564843645522
    H            1.139953971063     2.490549590945    -2.503758442480
    H            2.244680211329     1.586268518027    -1.461667742278
    H            1.025694698197     2.657325081834    -0.755585730777

  Mulliken Charges: (a.u.)
   Center  Symbol    Alpha    Beta     Spin     Total
       1     H     0.40125  0.40125  0.00000  0.19750
       2     C     3.11202  3.11202  0.00000 -0.22403
       3     C     3.09190  3.09190  0.00000 -0.18379
       4     C     3.09104  3.09104  0.00000 -0.18207
       5     H     0.39879  0.39879  0.00000  0.20242
       6     C     3.12540  3.12540  0.00000 -0.25079
       7     H     0.39967  0.39967  0.00000  0.20065
       8     C     3.14453  3.14453  0.00000 -0.28907
       9     H     0.39296  0.39296  0.00000  0.21408
      10     C     2.78261  2.78261  0.00000  0.43477
      11     H     0.39740  0.39740  0.00000  0.20520
      12     O     4.32619  4.32619  0.00000 -0.65238
      13     C     3.09211  3.09211  0.00000 -0.18422
      14     H     0.40490  0.40490  0.00000  0.19021
      15     H     0.41955  0.41955  0.00000  0.16090
      16     H     0.41970  0.41970  0.00000  0.16060

   Total alpha = 29.00000, Total beta = 29.00000, Total charge = -0.00000
