  ==> Input File <==

--------------------------------------------------------------------------
set {
	reference rhf
	basis 6-31G*
}

set_num_threads( 1 )
memory 2 gb

molecule MOL {
0 1

O	 3.225979	 0.970355	 -0.599647
C	 2.701189	 0.057885	 -0.047330
C	 1.245376	 -0.013843	 0.345420
O	 3.347903	 -1.046386	 0.304773
C	 0.455112	 1.231400	 -0.050772
H	 0.838542	 -0.913825	 -0.103701
H	 1.208210	 -0.175333	 1.419774
C	 -0.998893	 1.219485	 0.433193
H	 0.482531	 1.345121	 -1.130325
H	 0.957290	 2.103070	 0.354729
C	 -1.883438	 0.145884	 -0.207175
H	 -1.431207	 2.195402	 0.224832
H	 -1.019646	 1.105716	 1.516076
C	 -3.347647	 0.245583	 0.225435
H	 -1.822183	 0.231698	 -1.291012
H	 -1.510341	 -0.844814	 0.042401
C	 -4.140324	 1.295203	 -0.555649
H	 -3.393794	 0.478839	 1.287836
H	 -3.825175	 -0.725784	 0.106632
C	 -5.600553	 1.391124	 -0.114933
H	 -3.663930	 2.266309	 -0.438838
H	 -4.099004	 1.061307	 -1.617424
H	 -6.135813	 2.143019	 -0.686560
H	 -5.676300	 1.658277	 0.935347
H	 -6.114461	 0.443788	 -0.251782
C	 4.728119	 -1.109107	 -0.004993
H	 4.882018	 -1.033965	 -1.071845
H	 5.068212	 -2.067527	 0.355250
H	 5.265056	 -0.311663	 0.488280

	symmetry c1
}
set optking {
	frozen_dihedral = ("
		21 17 14 11,
		15 11 8 5,
		6 3 5 9,
		11 8 5 9,
		2 4 26 27,
		1 2 4 26,
		6 3 2 1
	")
}

ee = energy('scf')
oeprop('DIPOLE', 'QUADRUPOLE', 'MULLIKEN_CHARGES')
f=open( 'psi4out.xyz', 'w' )
f.write( "29  " )
f.write( str(ee) + "\n" )
f.write( MOL.save_string_xyz() )
f.close()
--------------------------------------------------------------------------

    Molecular point group: c1

    Geometry (in Angstrom), charge = 0, multiplicity = 1:

       Center              X                  Y                   Z               Mass
    ------------   -----------------  -----------------  -----------------  -----------------
           O          3.207579307034     0.582213981767    -0.572470935644    15.994914619560
           C          2.682789307034    -0.330256018233    -0.020153935644    12.000000000000
           C          1.226976307034    -0.401984018233     0.372596064356    12.000000000000
           O          3.329503307034    -1.434527018233     0.331949064356    15.994914619560
           C          0.436712307034     0.843258981767    -0.023595935644    12.000000000000
           H          0.820142307034    -1.301966018233    -0.076524935644     1.007825032070
           H          1.189810307034    -0.563474018233     1.446950064356     1.007825032070
           C         -1.017292692966     0.831343981767     0.460369064356    12.000000000000
           H          0.464131307034     0.956979981767    -1.103148935644     1.007825032070
           H          0.938890307034     1.714928981767     0.381905064356     1.007825032070
           C         -1.901837692966    -0.242257018233    -0.179998935644    12.000000000000
           H         -1.449606692966     1.807260981767     0.252008064356     1.007825032070
           H         -1.038045692966     0.717574981767     1.543252064356     1.007825032070
           C         -3.366046692966    -0.142558018233     0.252611064356    12.000000000000
           H         -1.840582692966    -0.156443018233    -1.263835935644     1.007825032070
           H         -1.528740692966    -1.232955018233     0.069577064356     1.007825032070
           C         -4.158723692966     0.907061981767    -0.528472935644    12.000000000000
           H         -3.412193692966     0.090697981767     1.315012064356     1.007825032070
           H         -3.843574692966    -1.113925018233     0.133808064356     1.007825032070
           C         -5.618952692966     1.002982981767    -0.087756935644    12.000000000000
           H         -3.682329692966     1.878167981767    -0.411661935644     1.007825032070
           H         -4.117403692966     0.673165981767    -1.590247935644     1.007825032070
           H         -6.154212692966     1.754877981767    -0.659383935644     1.007825032070
           H         -5.694699692966     1.270135981767     0.962523064356     1.007825032070
           H         -6.132860692966     0.055646981767    -0.224605935644     1.007825032070
           C          4.709719307034    -1.497248018233     0.022183064356    12.000000000000
           H          4.863618307034    -1.422106018233    -1.044668935644     1.007825032070
           H          5.049812307034    -2.455668018233     0.382426064356     1.007825032070
           H          5.246656307034    -0.699804018233     0.515456064356     1.007825032070

  Charge       = 0
  Multiplicity = 1
  Basis Set: 6-31G*
  Basis Set:

    Orbital Energies (a.u.)
    -----------------------

    Doubly Occupied:

       1A    -20.603317     2A    -20.545157     3A    -11.371954
       4A    -11.280603     5A    -11.234673     6A    -11.218935
       7A    -11.217381     8A    -11.215418     9A    -11.215276
      10A    -11.213887    11A    -11.208688    12A     -1.469018
      13A     -1.362461    14A     -1.098792    15A     -1.066397
      16A     -1.017940    17A     -0.977109    18A     -0.928593
      19A     -0.861656    20A     -0.809828    21A     -0.781655
      22A     -0.763570    23A     -0.700945    24A     -0.682155
      25A     -0.671880    26A     -0.635917    27A     -0.628801
      28A     -0.617407    29A     -0.595338    30A     -0.579990
      31A     -0.562914    32A     -0.556997    33A     -0.537091
      34A     -0.526989    35A     -0.522703    36A     -0.499822
      37A     -0.494930    38A     -0.484581    39A     -0.471873
      40A     -0.463112    41A     -0.455963    42A     -0.445792
      43A     -0.442891    44A     -0.436962

  @DF-RHF Final Energy:  -501.04153034760645

   => Energetics <=

    Nuclear Repulsion Energy =            613.2525149974477472
    One-Electron Energy =               -1897.6337008387311016
    Two-Electron Energy =                 783.3396554936746270
    DFT Exchange-Correlation Energy =       0.0000000000000000
    Empirical Dispersion Energy =           0.0000000000000000
    PCM Polarization Energy =               0.0000000000000000
    EFP Energy =                            0.0000000000000000
    Total Energy =                       -501.0415303476086137

  Mulliken Charges: (a.u.)
   Center  Symbol    Alpha    Beta     Spin     Total
       1     O     4.28597  4.28597  0.00000 -0.57194
       2     C     2.60480  2.60480  0.00000  0.79040
       3     C     3.20968  3.20968  0.00000 -0.41936
       4     O     4.30746  4.30746  0.00000 -0.61492
       5     C     3.15349  3.15349  0.00000 -0.30697
       6     H     0.39888  0.39888  0.00000  0.20224
       7     H     0.40126  0.40126  0.00000  0.19748
       8     C     3.15854  3.15854  0.00000 -0.31707
       9     H     0.41308  0.41308  0.00000  0.17384
      10     H     0.40893  0.40893  0.00000  0.18214
      11     C     3.15741  3.15741  0.00000 -0.31483
      12     H     0.41703  0.41703  0.00000  0.16593
      13     H     0.42366  0.42366  0.00000  0.15269
      14     C     3.15299  3.15299  0.00000 -0.30599
      15     H     0.42215  0.42215  0.00000  0.15571
      16     H     0.42125  0.42125  0.00000  0.15750
      17     C     3.15320  3.15320  0.00000 -0.30640
      18     H     0.42334  0.42334  0.00000  0.15331
      19     H     0.42140  0.42140  0.00000  0.15720
      20     C     3.23911  3.23911  0.00000 -0.47823
      21     H     0.42184  0.42184  0.00000  0.15632
      22     H     0.42254  0.42254  0.00000  0.15491
      23     H     0.41920  0.41920  0.00000  0.16160
      24     H     0.42181  0.42181  0.00000  0.15638
      25     H     0.42181  0.42181  0.00000  0.15637
      26     C     3.09239  3.09239  0.00000 -0.18478
      27     H     0.40910  0.40910  0.00000  0.18180
      28     H     0.40853  0.40853  0.00000  0.18294
      29     H     0.40914  0.40914  0.00000  0.18171

   Total alpha = 44.00000, Total beta = 44.00000, Total charge =  0.00000
