                              Psi4 1.0.54 Driver

  ==> Input File <==

--------------------------------------------------------------------------
set {
	reference rhf
	basis cc-pvtz
}

set_num_threads( 4 )
memory 2 gb

molecule MOL {
0 1

H	 3.288391	 -0.504582	 -1.007556
N	 3.091268	 -0.241216	 -0.065538
C	 1.860978	 0.530248	 0.016256
H	 3.869461	 0.293543	 0.259725
C	 0.644130	 -0.381765	 -0.031064
H	 1.835721	 1.204666	 -0.833114
H	 1.808789	 1.151975	 0.911067
C	 -0.678115	 0.376691	 0.025731
H	 0.693998	 -0.977147	 -0.936845
H	 0.693309	 -1.082142	 0.800523
C	 -1.900706	 -0.535531	 -0.022488
H	 -0.725296	 1.079516	 -0.802982
H	 -0.715474	 0.974884	 0.933278
C	 -3.220513	 0.226854	 0.028039
H	 -1.865036	 -1.134397	 -0.928236
H	 -1.857948	 -1.236381	 0.806820
H	 -3.309098	 0.911849	 -0.808725
H	 -4.066838	 -0.449485	 -0.008086
H	 -3.301685	 0.809374	 0.939860

	symmetry c1
}
set optking {
	frozen_dihedral = ("
		1 2 3 6
	")
}

ee,wfn = optimize('scf', return_wfn=True)
oeprop( wfn, 'DIPOLE', 'QUADRUPOLE', 'MULLIKEN_CHARGES')
f=open( 'psi4out.xyz', 'w' )
f.write( "19  " )
f.write( str(ee) + "\n" )
f.write( MOL.save_string_xyz() )
f.close()
--------------------------------------------------------------------------

    Molecular point group: c1
  Charge       = 0
  Multiplicity = 1
  Basis Set: CC-PVTZ
  Basis Set:
  @DF-RHF Final Energy:  -251.44572411787246
    Total Energy =                       -251.4457241178724303
    Molecular point group: c1
  Basis Set: CC-PVTZ
  Basis Set:
  Basis Set: CC-PVTZ
  Basis Set:
  @DF-RHF Final Energy:  -251.44720207821572
    Total Energy =                       -251.4472020782158665
  Basis Set: CC-PVTZ
  Basis Set:
  Basis Set: CC-PVTZ
  Basis Set:
  @DF-RHF Final Energy:  -251.44744482902055
    Total Energy =                       -251.4474448290202417
  Basis Set: CC-PVTZ
  Basis Set:
  Basis Set: CC-PVTZ
  Basis Set:
  @DF-RHF Final Energy:  -251.44745032635734
    Total Energy =                       -251.4474503263572842
  Basis Set: CC-PVTZ
  Basis Set:
  Charge       = 0
  Multiplicity = 1
  Basis Set: CC-PVTZ
  Basis Set:

    Orbital Energies (a.u.)
    -----------------------

    Doubly Occupied:

       1A    -15.527115     2A    -11.238494     3A    -11.210938
       4A    -11.209223     5A    -11.204808     6A    -11.204794
       7A     -1.177825     8A     -1.073273     9A     -0.998997
      10A     -0.900799    11A     -0.811758    12A     -0.787685
      13A     -0.671384    14A     -0.638748    15A     -0.617398
      16A     -0.585288    17A     -0.566483    18A     -0.551886
      19A     -0.525171    20A     -0.501106    21A     -0.477332
      22A     -0.463890    23A     -0.459987    24A     -0.453184
      25A     -0.384082

  @DF-RHF Final Energy:  -251.44745072375386

   => Energetics <=

    Nuclear Repulsion Energy =            245.8466915638759644
    One-Electron Energy =                -826.1049925862616874
    Two-Electron Energy =                 328.8108502986315216
    DFT Exchange-Correlation Energy =       0.0000000000000000
    Empirical Dispersion Energy =           0.0000000000000000
    PCM Polarization Energy =               0.0000000000000000
    EFP Energy =                            0.0000000000000000
    Total Energy =                       -251.4474507237541729
    Molecular point group: c1
  Basis Set: CC-PVTZ
  Basis Set:

  -Total Gradient:
     Atom            X                  Y                   Z
    ------   -----------------  -----------------  -----------------
       1        0.001148037037     0.001893162479    -0.000322726557
       2       -0.001671576207    -0.002792622590     0.000079328727
       3        0.001528680053     0.002308934268     0.001323085023
       4        0.000017921971     0.000001298096    -0.000001183561
       5        0.000018077711     0.000040084751    -0.000003998342
       6       -0.001017890424    -0.001468943569    -0.001071661536
       7       -0.000015330075     0.000002744210     0.000000411210
       8       -0.000015720876    -0.000004981368    -0.000005994780
       9        0.000007203218     0.000016781585     0.000007020224
      10        0.000009363265     0.000006529881    -0.000005305013
      11       -0.000006401590     0.000008168020    -0.000002666919
      12       -0.000002246686    -0.000004152406     0.000002486152
      13        0.000006377737    -0.000005705659    -0.000005408542
      14       -0.000006749127    -0.000004641609     0.000007151023
      15        0.000002998834     0.000001025378     0.000000408647
      16       -0.000002630473     0.000003388899    -0.000000336964
      17        0.000003007533    -0.000002344755     0.000000573363
      18       -0.000002799984     0.000000958968     0.000000548478
      19       -0.000000321923     0.000000315421    -0.000001730631

  **** Optimization is complete! (in 5 steps) ****
    Final optimized geometry and variables:
    Molecular point group: c1

    Geometry (in Angstrom), charge = 0, multiplicity = 1:

    H            3.245529181037    -0.495922737270    -1.199996343300
    N            3.085577481635    -0.233884930756    -0.249903244395
    C            1.854120882023     0.534981059551    -0.122346056497
    H            3.873381769621     0.312478295152     0.026916234351
    C            0.640597803802    -0.382954514768    -0.061081358865
    H            1.716113623024     1.241581372232    -0.940691937906
    H            1.911152291263     1.114645686133     0.792152346168
    C           -0.678300898595     0.371561967336     0.072781179673
    H            0.617767640520    -0.996701074824    -0.958950556038
    H            0.767205623534    -1.066168739936     0.772187123141
    C           -1.896123664276    -0.545863224907     0.139140713731
    H           -0.793105457369     1.055410147606    -0.765337277942
    H           -0.650091755710     0.990645922908     0.966924619364
    C           -3.212286036559     0.212211053003     0.275783479639
    H           -1.927835631418    -1.164095705761    -0.753861600335
    H           -1.784852271174    -1.228330082728     0.977050707075
    H           -3.369494176013     0.878782734640    -0.565851074682
    H           -4.055159971829    -0.468027896139     0.320072043048
    H           -3.225521432007     0.813841764656     1.178643413558

  Mulliken Charges: (a.u.)
   Center  Symbol    Alpha    Beta     Spin     Total
       1     H     0.43108  0.43108  0.00000  0.13784
       2     N     3.68920  3.68920  0.00000 -0.37840
       3     C     3.03598  3.03598  0.00000 -0.07196
       4     H     0.42882  0.42882  0.00000  0.14236
       5     C     3.07325  3.07325  0.00000 -0.14649
       6     H     0.46589  0.46589  0.00000  0.06821
       7     H     0.45620  0.45620  0.00000  0.08760
       8     C     3.09450  3.09450  0.00000 -0.18900
       9     H     0.45960  0.45960  0.00000  0.08080
      10     H     0.45094  0.45094  0.00000  0.09813
      11     C     3.08324  3.08324  0.00000 -0.16649
      12     H     0.45712  0.45712  0.00000  0.08576
      13     H     0.45606  0.45606  0.00000  0.08789
      14     C     3.14969  3.14969  0.00000 -0.29939
      15     H     0.45482  0.45482  0.00000  0.09037
      16     H     0.45384  0.45384  0.00000  0.09231
      17     H     0.45575  0.45575  0.00000  0.08849
      18     H     0.44861  0.44861  0.00000  0.10277
      19     H     0.45540  0.45540  0.00000  0.08920

   Total alpha = 25.00000, Total beta = 25.00000, Total charge = -0.00000

*** Psi4 exiting successfully. Buy a developer a beer!
