  ==> Input File <==

--------------------------------------------------------------------------
set {
	reference rhf
	basis 6-31G*
}

set_num_threads( 1 )
memory 2 gb

molecule MOL {
0 1

H	 2.943954	 -1.086172	 -0.593989
N	 3.092854	 -0.246221	 -0.068770
C	 1.865559	 0.531981	 0.018834
H	 3.804058	 0.272610	 -0.548179
C	 0.645745	 -0.382037	 -0.029944
H	 1.841966	 1.207024	 -0.831236
H	 1.815756	 1.155410	 0.915079
C	 -0.679275	 0.379305	 0.025956
H	 0.698998	 -0.976915	 -0.937203
H	 0.693479	 -1.083846	 0.802235
C	 -1.903357	 -0.536963	 -0.023547
H	 -0.726309	 1.082987	 -0.803784
H	 -0.717680	 0.977832	 0.934877
C	 -3.225172	 0.228290	 0.028445
H	 -1.867824	 -1.134999	 -0.931459
H	 -1.860449	 -1.239604	 0.805977
H	 -3.313397	 0.915643	 -0.808262
H	 -4.073500	 -0.448134	 -0.008893
H	 -3.306061	 0.809945	 0.942516

	symmetry c1
}
set optking {
	frozen_dihedral = ("
		6 3 5 9,
		12 8 5 9,
		12 8 11 15
	")
}

ee = energy('scf')
oeprop('DIPOLE', 'QUADRUPOLE', 'MULLIKEN_CHARGES')
f=open( 'psi4out.xyz', 'w' )
f.write( "19  " )
f.write( str(ee) + "\n" )
f.write( MOL.save_string_xyz() )
f.close()
--------------------------------------------------------------------------

    Molecular point group: c1

    Geometry (in Angstrom), charge = 0, multiplicity = 1:

       Center              X                  Y                   Z               Mass
    ------------   -----------------  -----------------  -----------------  -----------------
           H          2.947941955086    -1.082204105165    -0.573362156162     1.007825032070
           N          3.096841955086    -0.242253105165    -0.048143156162    14.003074004780
           C          1.869546955086     0.535948894835     0.039460843838    12.000000000000
           H          3.808045955086     0.276577894835    -0.527552156162     1.007825032070
           C          0.649732955086    -0.378069105165    -0.009317156162    12.000000000000
           H          1.845953955086     1.210991894835    -0.810609156162     1.007825032070
           H          1.819743955086     1.159377894835     0.935705843838     1.007825032070
           C         -0.675287044914     0.383272894835     0.046582843838    12.000000000000
           H          0.702985955086    -0.972947105165    -0.916576156162     1.007825032070
           H          0.697466955086    -1.079878105165     0.822861843838     1.007825032070
           C         -1.899369044914    -0.532995105165    -0.002920156162    12.000000000000
           H         -0.722321044914     1.086954894835    -0.783157156162     1.007825032070
           H         -0.713692044914     0.981799894835     0.955503843838     1.007825032070
           C         -3.221184044914     0.232257894835     0.049071843838    12.000000000000
           H         -1.863836044914    -1.131031105165    -0.910832156162     1.007825032070
           H         -1.856461044914    -1.235636105165     0.826603843838     1.007825032070
           H         -3.309409044914     0.919610894835    -0.787635156162     1.007825032070
           H         -4.069512044914    -0.444166105165     0.011733843838     1.007825032070
           H         -3.302073044914     0.813912894835     0.963142843838     1.007825032070

  Charge       = 0
  Multiplicity = 1
  Basis Set: 6-31G*
  Basis Set:

    Orbital Energies (a.u.)
    -----------------------

    Doubly Occupied:

       1A    -15.529265     2A    -11.239668     3A    -11.216474
       4A    -11.215915     5A    -11.215332     6A    -11.209280
       7A     -1.176647     8A     -1.075384     9A     -1.000087
      10A     -0.900980    11A     -0.816951    12A     -0.793686
      13A     -0.655590    14A     -0.649280    15A     -0.611769
      16A     -0.597840    17A     -0.565321    18A     -0.543536
      19A     -0.541767    20A     -0.498401    21A     -0.487717
      22A     -0.468914    23A     -0.464345    24A     -0.450167
      25A     -0.375578

  @DF-RHF Final Energy:  -251.34734540261613

   => Energetics <=

    Nuclear Repulsion Energy =            245.9484944980243029
    One-Electron Energy =                -825.9919808865945470
    Two-Electron Energy =                 328.6961409859543437
    DFT Exchange-Correlation Energy =       0.0000000000000000
    Empirical Dispersion Energy =           0.0000000000000000
    PCM Polarization Energy =               0.0000000000000000
    EFP Energy =                            0.0000000000000000
    Total Energy =                       -251.3473454026159288

  Mulliken Charges: (a.u.)
   Center  Symbol    Alpha    Beta     Spin     Total
       1     H     0.33352  0.33352  0.00000  0.33296
       2     N     3.92663  3.92663  0.00000 -0.85326
       3     C     3.04806  3.04806  0.00000 -0.09612
       4     H     0.33347  0.33347  0.00000  0.33306
       5     C     3.16432  3.16432  0.00000 -0.32865
       6     H     0.43392  0.43392  0.00000  0.13217
       7     H     0.42084  0.42084  0.00000  0.15831
       8     C     3.15384  3.15384  0.00000 -0.30768
       9     H     0.42664  0.42664  0.00000  0.14672
      10     H     0.41491  0.41491  0.00000  0.17019
      11     C     3.15131  3.15131  0.00000 -0.30262
      12     H     0.42369  0.42369  0.00000  0.15262
      13     H     0.42189  0.42189  0.00000  0.15622
      14     C     3.23949  3.23949  0.00000 -0.47898
      15     H     0.42321  0.42321  0.00000  0.15358
      16     H     0.42198  0.42198  0.00000  0.15605
      17     H     0.42190  0.42190  0.00000  0.15621
      18     H     0.41902  0.41902  0.00000  0.16197
      19     H     0.42137  0.42137  0.00000  0.15725

   Total alpha = 25.00000, Total beta = 25.00000, Total charge =  0.00000
