  ==> Input File <==

--------------------------------------------------------------------------
set {
	reference rhf
	basis 6-31G*
}

set_num_threads( 1 )
memory 2 gb

molecule MOL {
0 1

H	 -4.139419	 0.664057	 -0.384538
O	 -3.517110	 -0.026191	 -0.205115
C	 -2.306886	 0.532354	 0.237577
C	 -1.177863	 -0.397191	 -0.171080
H	 -2.156308	 1.517575	 -0.201710
H	 -2.315015	 0.655684	 1.319734
C	 0.198102	 0.111031	 0.262842
H	 -1.208843	 -0.518759	 -1.250427
H	 -1.368741	 -1.376554	 0.258909
C	 1.331804	 -0.827780	 -0.158768
H	 0.361943	 1.100838	 -0.156218
H	 0.217265	 0.229072	 1.345532
C	 2.723619	 -0.410569	 0.329459
H	 1.342964	 -0.912588	 -1.244120
H	 1.116806	 -1.824343	 0.220779
C	 3.243875	 0.895854	 -0.272975
H	 3.424222	 -1.207124	 0.091250
H	 2.714788	 -0.329854	 1.414619
H	 3.251977	 0.848779	 -1.358681
H	 2.637085	 1.747371	 0.016682
H	 4.259473	 1.094070	 0.055697

	symmetry c1
}
set optking {
	frozen_dihedral = ("
		2 3 4 8,
		8 4 7 10,
		4 7 10 14,
		16 13 10 14
	")
}

ee = energy('scf')
oeprop('DIPOLE', 'QUADRUPOLE', 'MULLIKEN_CHARGES')
f=open( 'psi4out.xyz', 'w' )
f.write( "21  " )
f.write( str(ee) + "\n" )
f.write( MOL.save_string_xyz() )
f.close()
--------------------------------------------------------------------------

    Molecular point group: c1

    Geometry (in Angstrom), charge = 0, multiplicity = 1:

       Center              X                  Y                   Z               Mass
    ------------   -----------------  -----------------  -----------------  -----------------
           H         -4.140377004088     0.662814159170    -0.380349827057     1.007825032070
           O         -3.518068004088    -0.027433840830    -0.200926827057    15.994914619560
           C         -2.307844004088     0.531111159170     0.241765172943    12.000000000000
           C         -1.178821004088    -0.398433840830    -0.166891827057    12.000000000000
           H         -2.157266004088     1.516332159170    -0.197521827057     1.007825032070
           H         -2.315973004088     0.654441159170     1.323922172943     1.007825032070
           C          0.197143995912     0.109788159170     0.267030172943    12.000000000000
           H         -1.209801004088    -0.520001840830    -1.246238827057     1.007825032070
           H         -1.369699004088    -1.377796840830     0.263097172943     1.007825032070
           C          1.330845995912    -0.829022840830    -0.154579827057    12.000000000000
           H          0.360984995912     1.099595159170    -0.152029827057     1.007825032070
           H          0.216306995912     0.227829159170     1.349720172943     1.007825032070
           C          2.722660995912    -0.411811840830     0.333647172943    12.000000000000
           H          1.342005995912    -0.913830840830    -1.239931827057     1.007825032070
           H          1.115847995912    -1.825585840830     0.224967172943     1.007825032070
           C          3.242916995912     0.894611159170    -0.268786827057    12.000000000000
           H          3.423263995912    -1.208366840830     0.095438172943     1.007825032070
           H          2.713829995912    -0.331096840830     1.418807172943     1.007825032070
           H          3.251018995912     0.847536159170    -1.354492827057     1.007825032070
           H          2.636126995912     1.746128159170     0.020870172943     1.007825032070
           H          4.258514995912     1.092827159170     0.059885172943     1.007825032070

  Charge       = 0
  Multiplicity = 1
  Basis Set: 6-31G*
  Basis Set:

    Orbital Energies (a.u.)
    -----------------------

    Doubly Occupied:

       1A    -20.551527     2A    -11.267198     3A    -11.215341
       4A    -11.215078     5A    -11.213488     6A    -11.209917
       7A    -11.208311     8A     -1.358769     9A     -1.086078
      10A     -1.033028    11A     -0.954319    12A     -0.875766
      13A     -0.807551    14A     -0.778869    15A     -0.695996
      16A     -0.657306    17A     -0.622927    18A     -0.604325
      19A     -0.588268    20A     -0.570519    21A     -0.535351
      22A     -0.520741    23A     -0.511045    24A     -0.484314
      25A     -0.481100    26A     -0.461049    27A     -0.456141
      28A     -0.450085    29A     -0.426806

  @DF-RHF Final Energy:  -310.21179805774426

   => Energetics <=

    Nuclear Repulsion Energy =            312.4956456498023840
    One-Electron Energy =               -1039.7329242237306062
    Two-Electron Energy =                 417.0254805161843024
    DFT Exchange-Correlation Energy =       0.0000000000000000
    Empirical Dispersion Energy =           0.0000000000000000
    PCM Polarization Energy =               0.0000000000000000
    EFP Energy =                            0.0000000000000000
    Total Energy =                       -310.2117980577439766

  Mulliken Charges: (a.u.)
   Center  Symbol    Alpha    Beta     Spin     Total
       1     H     0.28054  0.28054  0.00000  0.43892
       2     O     4.37217  4.37217  0.00000 -0.74435
       3     C     2.99086  2.99086  0.00000  0.01828
       4     C     3.15749  3.15749  0.00000 -0.31498
       5     H     0.43379  0.43379  0.00000  0.13242
       6     H     0.42973  0.42973  0.00000  0.14055
       7     C     3.16229  3.16229  0.00000 -0.32458
       8     H     0.41698  0.41698  0.00000  0.16604
       9     H     0.41448  0.41448  0.00000  0.17103
      10     C     3.15165  3.15165  0.00000 -0.30330
      11     H     0.42238  0.42238  0.00000  0.15523
      12     H     0.42366  0.42366  0.00000  0.15268
      13     C     3.15248  3.15248  0.00000 -0.30496
      14     H     0.42335  0.42335  0.00000  0.15330
      15     H     0.42084  0.42084  0.00000  0.15833
      16     C     3.24114  3.24114  0.00000 -0.48229
      17     H     0.42067  0.42067  0.00000  0.15866
      18     H     0.42341  0.42341  0.00000  0.15318
      19     H     0.42217  0.42217  0.00000  0.15567
      20     H     0.42071  0.42071  0.00000  0.15858
      21     H     0.41921  0.41921  0.00000  0.16158

   Total alpha = 29.00000, Total beta = 29.00000, Total charge =  0.00000
