  ==> Input File <==

--------------------------------------------------------------------------
set {
	reference rhf
	basis 6-31G*
}

set_num_threads( 1 )
memory 2 gb

molecule MOL {
0 1

O	 3.225979	 0.970355	 -0.599647
C	 2.701189	 0.057885	 -0.047330
C	 1.245376	 -0.013843	 0.345420
O	 3.347903	 -1.046386	 0.304773
C	 0.455112	 1.231400	 -0.050772
H	 0.838542	 -0.913825	 -0.103701
H	 1.208210	 -0.175333	 1.419774
C	 -0.998893	 1.219485	 0.433193
H	 0.482531	 1.345121	 -1.130325
H	 0.957290	 2.103070	 0.354729
C	 -1.863523	 2.368856	 -0.092612
H	 -0.992437	 1.258734	 1.519996
H	 -1.461259	 0.269596	 0.168729
C	 -3.272191	 2.375045	 0.504560
H	 -1.374216	 3.315692	 0.130770
H	 -1.941777	 2.313562	 -1.176029
C	 -4.146894	 3.516243	 -0.017640
H	 -3.202965	 2.443713	 1.588870
H	 -3.758128	 1.424335	 0.290752
C	 -5.550718	 3.517542	 0.586493
H	 -3.662300	 4.466977	 0.194293
H	 -4.220849	 3.446758	 -1.100914
H	 -6.146246	 4.337467	 0.197038
H	 -5.512294	 3.621005	 1.667240
H	 -6.074823	 2.592650	 0.362523
C	 4.728119	 -1.109107	 -0.004993
H	 4.882018	 -1.033965	 -1.071845
H	 5.068212	 -2.067527	 0.355250
H	 5.265056	 -0.311663	 0.488280

	symmetry c1
}
set optking {
	frozen_dihedral = ("
		21 17 14 11,
		17 14 11 15,
		15 11 8 5,
		6 3 5 9,
		2 4 26 27,
		1 2 4 26,
		6 3 2 1
	")
}

ee = energy('scf')
oeprop('DIPOLE', 'QUADRUPOLE', 'MULLIKEN_CHARGES')
f=open( 'psi4out.xyz', 'w' )
f.write( "29  " )
f.write( str(ee) + "\n" )
f.write( MOL.save_string_xyz() )
f.close()
--------------------------------------------------------------------------

    Molecular point group: c1

    Geometry (in Angstrom), charge = 0, multiplicity = 1:

       Center              X                  Y                   Z               Mass
    ------------   -----------------  -----------------  -----------------  -----------------
           O          3.194862684331    -0.202123644534    -0.721997007867    15.994914619560
           C          2.670072684331    -1.114593644534    -0.169680007867    12.000000000000
           C          1.214259684331    -1.186321644534     0.223069992133    12.000000000000
           O          3.316786684331    -2.218864644534     0.182422992133    15.994914619560
           C          0.423995684331     0.058921355466    -0.173122007867    12.000000000000
           H          0.807425684331    -2.086303644534    -0.226051007867     1.007825032070
           H          1.177093684331    -1.347811644534     1.297423992133     1.007825032070
           C         -1.030009315669     0.047006355466     0.310842992133    12.000000000000
           H          0.451414684331     0.172642355466    -1.252675007867     1.007825032070
           H          0.926173684331     0.930591355466     0.232378992133     1.007825032070
           C         -1.894639315669     1.196377355466    -0.214962007867    12.000000000000
           H         -1.023553315669     0.086255355466     1.397645992133     1.007825032070
           H         -1.492375315669    -0.902882644534     0.046378992133     1.007825032070
           C         -3.303307315669     1.202566355466     0.382209992133    12.000000000000
           H         -1.405332315669     2.143213355466     0.008419992133     1.007825032070
           H         -1.972893315669     1.141083355466    -1.298379007867     1.007825032070
           C         -4.178010315669     2.343764355466    -0.139990007867    12.000000000000
           H         -3.234081315669     1.271234355466     1.466519992133     1.007825032070
           H         -3.789244315669     0.251856355466     0.168401992133     1.007825032070
           C         -5.581834315669     2.345063355466     0.464142992133    12.000000000000
           H         -3.693416315669     3.294498355466     0.071942992133     1.007825032070
           H         -4.251965315669     2.274279355466    -1.223264007867     1.007825032070
           H         -6.177362315669     3.164988355466     0.074687992133     1.007825032070
           H         -5.543410315669     2.448526355466     1.544889992133     1.007825032070
           H         -6.105939315669     1.420171355466     0.240172992133     1.007825032070
           C          4.697002684331    -2.281585644534    -0.127343007867    12.000000000000
           H          4.850901684331    -2.206443644534    -1.194195007867     1.007825032070
           H          5.037095684331    -3.240005644534     0.232899992133     1.007825032070
           H          5.233939684331    -1.484141644534     0.365929992133     1.007825032070

  Charge       = 0
  Multiplicity = 1
  Basis Set: 6-31G*
  Basis Set:

    Orbital Energies (a.u.)
    -----------------------

    Doubly Occupied:

       1A    -20.603673     2A    -20.545476     3A    -11.372459
       4A    -11.280879     5A    -11.235975     6A    -11.219012
       7A    -11.217592     8A    -11.214856     9A    -11.214693
      10A    -11.213385    11A    -11.208220    12A     -1.469378
      13A     -1.362795    14A     -1.096171    15A     -1.067250
      16A     -1.020328    17A     -0.977674    18A     -0.927244
      19A     -0.856313    20A     -0.800718    21A     -0.789888
      22A     -0.766684    23A     -0.696788    24A     -0.683759
      25A     -0.671600    26A     -0.657032    27A     -0.630307
      28A     -0.597598    29A     -0.592064    30A     -0.583984
      31A     -0.566054    32A     -0.550462    33A     -0.530254
      34A     -0.522977    35A     -0.517057    36A     -0.514932
      37A     -0.490868    38A     -0.478696    39A     -0.468163
      40A     -0.461647    41A     -0.460109    42A     -0.455356
      43A     -0.447306    44A     -0.432467

  @DF-RHF Final Energy:  -501.04498894307631

   => Energetics <=

    Nuclear Repulsion Energy =            601.1368457760015644
    One-Electron Energy =               -1873.4231166109905189
    Two-Electron Energy =                 771.2412818919127631
    DFT Exchange-Correlation Energy =       0.0000000000000000
    Empirical Dispersion Energy =           0.0000000000000000
    PCM Polarization Energy =               0.0000000000000000
    EFP Energy =                            0.0000000000000000
    Total Energy =                       -501.0449889430761914

  Mulliken Charges: (a.u.)
   Center  Symbol    Alpha    Beta     Spin     Total
       1     O     4.28583  4.28583  0.00000 -0.57166
       2     C     2.60486  2.60486  0.00000  0.79028
       3     C     3.20830  3.20830  0.00000 -0.41661
       4     O     4.30764  4.30764  0.00000 -0.61528
       5     C     3.15251  3.15251  0.00000 -0.30502
       6     H     0.40020  0.40020  0.00000  0.19960
       7     H     0.40077  0.40077  0.00000  0.19845
       8     C     3.15394  3.15394  0.00000 -0.30788
       9     H     0.41331  0.41331  0.00000  0.17338
      10     H     0.41077  0.41077  0.00000  0.17846
      11     C     3.15195  3.15195  0.00000 -0.30390
      12     H     0.42384  0.42384  0.00000  0.15233
      13     H     0.42445  0.42445  0.00000  0.15110
      14     C     3.15111  3.15111  0.00000 -0.30223
      15     H     0.42194  0.42194  0.00000  0.15612
      16     H     0.42208  0.42208  0.00000  0.15585
      17     C     3.15154  3.15154  0.00000 -0.30309
      18     H     0.42403  0.42403  0.00000  0.15195
      19     H     0.42418  0.42418  0.00000  0.15165
      20     C     3.23928  3.23928  0.00000 -0.47857
      21     H     0.42257  0.42257  0.00000  0.15486
      22     H     0.42288  0.42288  0.00000  0.15425
      23     H     0.41920  0.41920  0.00000  0.16160
      24     H     0.42188  0.42188  0.00000  0.15625
      25     H     0.42197  0.42197  0.00000  0.15607
      26     C     3.09243  3.09243  0.00000 -0.18486
      27     H     0.40903  0.40903  0.00000  0.18194
      28     H     0.40843  0.40843  0.00000  0.18314
      29     H     0.40909  0.40909  0.00000  0.18183

   Total alpha = 44.00000, Total beta = 44.00000, Total charge =  0.00000
