  ==> Input File <==

--------------------------------------------------------------------------
set {
	reference rhf
	basis cc-pvtz
}

set_num_threads( 4 )
memory 2 gb

molecule MOL {
0 1

H	 -3.144994	 -1.202467	 -0.018751
O	 -2.321472	 -0.864941	 -0.318626
C	 -2.021813	 0.336996	 0.342658
C	 -0.669613	 0.837286	 -0.127252
H	 -2.780861	 1.084746	 0.127159
H	 -2.006390	 0.184138	 1.420053
C	 0.490865	 -0.082543	 0.241244
H	 -0.708709	 0.967192	 -1.204587
H	 -0.507562	 1.822272	 0.303070
C	 1.794631	 0.670772	 0.488871
H	 0.635849	 -0.808115	 -0.550956
H	 0.229274	 -0.647955	 1.133433
C	 2.953119	 -0.247040	 0.864784
H	 2.057237	 1.233965	 -0.402507
H	 1.645391	 1.403152	 1.278198
H	 3.149967	 -0.968764	 0.079112
H	 3.863818	 0.316861	 1.031956
H	 2.735617	 -0.800262	 1.772575

	symmetry c1
}
set optking {
	frozen_dihedral = ("
		10 7 4 8
	")
}

ee = optimize('scf')
oeprop('DIPOLE', 'QUADRUPOLE', 'MULLIKEN_CHARGES')
f=open( 'psi4out.xyz', 'w' )
f.write( "18  " )
f.write( str(ee) + "\n" )
f.write( MOL.save_string_xyz() )
f.close()
--------------------------------------------------------------------------

    Molecular point group: c1
  Charge       = 0
  Multiplicity = 1
  Basis Set: CC-PVTZ
  Basis Set:
  @DF-RHF Final Energy:  -271.28400494188190
    Total Energy =                       -271.2840049418820172
    Molecular point group: c1
  Basis Set: CC-PVTZ
  Basis Set:
  Basis Set: CC-PVTZ
  Basis Set:
  @DF-RHF Final Energy:  -271.28422064537500
    Total Energy =                       -271.2842206453748872
  Basis Set: CC-PVTZ
  Basis Set:
  Basis Set: CC-PVTZ
  Basis Set:
  @DF-RHF Final Energy:  -271.28428204138561
    Total Energy =                       -271.2842820413856657
  Basis Set: CC-PVTZ
  Basis Set:
  Basis Set: CC-PVTZ
  Basis Set:
  @DF-RHF Final Energy:  -271.28428307992129
    Total Energy =                       -271.2842830799214653
  Basis Set: CC-PVTZ
  Basis Set:
  Charge       = 0
  Multiplicity = 1
  Basis Set: CC-PVTZ
  Basis Set:

    Orbital Energies (a.u.)
    -----------------------

    Doubly Occupied:

       1A    -20.546015     2A    -11.265588     3A    -11.210296
       4A    -11.209886     5A    -11.205500     6A    -11.203106
       7A     -1.364012     8A     -1.075808     9A     -1.010194
      10A     -0.914154    11A     -0.819551    12A     -0.784667
      13A     -0.706276    14A     -0.650113    15A     -0.621948
      16A     -0.578505    17A     -0.574536    18A     -0.559630
      19A     -0.523902    20A     -0.507015    21A     -0.486056
      22A     -0.468085    23A     -0.458592    24A     -0.449177
      25A     -0.431408

  @DF-RHF Final Energy:  -271.28428326470095

   => Energetics <=

    Nuclear Repulsion Energy =            249.3258281548918944
    One-Electron Energy =                -861.9721821185190720
    Two-Electron Energy =                 341.3620706989260611
    DFT Exchange-Correlation Energy =       0.0000000000000000
    Empirical Dispersion Energy =           0.0000000000000000
    PCM Polarization Energy =               0.0000000000000000
    EFP Energy =                            0.0000000000000000
    Total Energy =                       -271.2842832647011733
    Molecular point group: c1
  Basis Set: CC-PVTZ
  Basis Set:

  -Total Gradient:
     Atom            X                  Y                   Z
    ------   -----------------  -----------------  -----------------
       1        0.000002810568     0.000003611961     0.000001993087
       2        0.000010079754    -0.000010988119     0.000000180590
       3       -0.000021090271     0.000013406989    -0.000020206115
       4        0.002681453385     0.003897272523     0.001381378515
       5       -0.000009612826     0.000008479999     0.000005522311
       6        0.000010185809     0.000002084659    -0.000006531936
       7        0.000355165476    -0.001141609155    -0.003849154780
       8       -0.002372985150    -0.003057967664    -0.000227278263
       9        0.000000889484    -0.000002836994     0.000001415169
      10       -0.000659402109     0.000288754858     0.002705296280
      11        0.000003592295     0.000006166624    -0.000004453570
      12        0.000002271163    -0.000002595450     0.000005351126
      13        0.000006644393     0.000001390947     0.000005773261
      14       -0.000002277693    -0.000005038582    -0.000000470989
      15       -0.000009763203    -0.000000258538    -0.000003766480
      16       -0.000001583331     0.000004016616     0.000001431728
      17        0.000003873766    -0.000001919345     0.000003267642
      18       -0.000000251513    -0.000001971330     0.000000252425

  **** Optimization is complete! (in 5 steps) ****
    Final optimized geometry and variables:
    Molecular point group: c1

    Geometry (in Angstrom), charge = 0, multiplicity = 1:

    H           -3.091858947839    -1.313662049920    -0.264096117065
    O           -2.269965771097    -0.962555696541    -0.552430075098
    C           -2.020894402856     0.267505999584     0.076751625848
    C           -0.663651937996     0.777729579812    -0.368170681841
    H           -2.789008172523     0.990265216930    -0.187762852641
    H           -2.035853564704     0.150618312380     1.158643028587
    C            0.494486139195    -0.151019029486     0.016073025845
    H           -0.703703104995     0.892311163113    -1.446536047459
    H           -0.518036499493     1.762981833830     0.064082387324
    C            1.807676219320     0.590688665992     0.252516570073
    H            0.625732969180    -0.907705555656    -0.748241046305
    H            0.235987583168    -0.687921183721     0.925369218655
    C            2.967318669252    -0.338740411272     0.593517157152
    H            2.061290856072     1.172223600427    -0.630540054704
    H            1.670515137527     1.307099207483     1.057959821223
    H            3.155698779656    -1.040348936910    -0.212136307162
    H            3.880846940031     0.218550932346     0.767354637449
    H            2.756017609154    -0.915143098749     1.488288871556

  Mulliken Charges: (a.u.)
   Center  Symbol    Alpha    Beta     Spin     Total
       1     H     0.39621  0.39621  0.00000  0.20757
       2     O     4.19920  4.19920  0.00000 -0.39839
       3     C     2.97212  2.97212  0.00000  0.05576
       4     C     3.09384  3.09384  0.00000 -0.18768
       5     H     0.46617  0.46617  0.00000  0.06767
       6     H     0.47497  0.47497  0.00000  0.05007
       7     C     3.08323  3.08323  0.00000 -0.16647
       8     H     0.45095  0.45095  0.00000  0.09810
       9     H     0.45411  0.45411  0.00000  0.09177
      10     C     3.08462  3.08462  0.00000 -0.16924
      11     H     0.44624  0.44624  0.00000  0.10752
      12     H     0.45724  0.45724  0.00000  0.08553
      13     C     3.14979  3.14979  0.00000 -0.29958
      14     H     0.45487  0.45487  0.00000  0.09027
      15     H     0.45691  0.45691  0.00000  0.08617
      16     H     0.45447  0.45447  0.00000  0.09105
      17     H     0.44945  0.44945  0.00000  0.10109
      18     H     0.45560  0.45560  0.00000  0.08880

   Total alpha = 25.00000, Total beta = 25.00000, Total charge = -0.00000
