                              Psi4 1.0.54 Driver

  ==> Input File <==

--------------------------------------------------------------------------
set {
	reference rhf
	basis cc-pvtz
}

set_num_threads( 4 )
memory 2 gb

molecule MOL {
0 1

H	 -3.941973	 0.934228	 -0.390224
C	 -3.240162	 0.342701	 0.161016
C	 -2.105997	 -0.000418	 -0.398703
H	 -3.485368	 0.047206	 1.162193
O	 -1.189946	 -0.765863	 0.237511
H	 -1.846458	 0.297311	 -1.398265
C	 0.026572	 -0.995256	 -0.379403
C	 1.057223	 0.049888	 -0.004615
H	 -0.054361	 -1.010670	 -1.459674
H	 0.397526	 -1.952058	 -0.044198
F	 1.954651	 0.145459	 -0.965120
F	 0.515565	 1.238354	 0.155578
F	 1.685998	 -0.253598	 1.104888

	symmetry c1
}
set optking {
	frozen_dihedral = ("
		11 8 7 9
	")
}

ee,wfn = optimize('scf', return_wfn=True)
oeprop( wfn, 'DIPOLE', 'QUADRUPOLE', 'MULLIKEN_CHARGES')
f=open( 'psi4out.xyz', 'w' )
f.write( "13  " )
f.write( str(ee) + "\n" )
f.write( MOL.save_string_xyz() )
f.close()
--------------------------------------------------------------------------

    Molecular point group: c1
  Charge       = 0
  Multiplicity = 1
  Basis Set: CC-PVTZ
  Basis Set:
  @DF-RHF Final Energy:  -527.73892260980915
    Total Energy =                       -527.7389226098090376
    Molecular point group: c1
  Basis Set: CC-PVTZ
  Basis Set:
  Basis Set: CC-PVTZ
  Basis Set:
  @DF-RHF Final Energy:  -527.73918027755894
    Total Energy =                       -527.7391802775590577
  Basis Set: CC-PVTZ
  Basis Set:
  Basis Set: CC-PVTZ
  Basis Set:
  @DF-RHF Final Energy:  -527.73924922117487
    Total Energy =                       -527.7392492211747594
  Basis Set: CC-PVTZ
  Basis Set:
  Basis Set: CC-PVTZ
  Basis Set:
  @DF-RHF Final Energy:  -527.73925523299999
    Total Energy =                       -527.7392552329997670
  Basis Set: CC-PVTZ
  Basis Set:
  Basis Set: CC-PVTZ
  Basis Set:
  @DF-RHF Final Energy:  -527.73925765551974
    Total Energy =                       -527.7392576555196229
  Basis Set: CC-PVTZ
  Basis Set:
  Basis Set: CC-PVTZ
  Basis Set:
  @DF-RHF Final Energy:  -527.73925993413263
    Total Energy =                       -527.7392599341328605
  Basis Set: CC-PVTZ
  Basis Set:
  Charge       = 0
  Multiplicity = 1
  Basis Set: CC-PVTZ
  Basis Set:

    Orbital Energies (a.u.)
    -----------------------

    Doubly Occupied:

       1A    -26.341323     2A    -26.339611     3A    -26.339192
       4A    -20.604356     5A    -11.498775     6A    -11.319771
       7A    -11.298617     8A    -11.213895     9A     -1.750677
      10A     -1.646654    11A     -1.645464    12A     -1.445093
      13A     -1.086836    14A     -1.020041    15A     -0.932568
      16A     -0.844738    17A     -0.838444    18A     -0.828149
      19A     -0.796109    20A     -0.731984    21A     -0.721737
      22A     -0.703043    23A     -0.680988    24A     -0.667857
      25A     -0.662048    26A     -0.650804    27A     -0.636836
      28A     -0.587767    29A     -0.565295    30A     -0.530224
      31A     -0.516756    32A     -0.356801

  @DF-RHF Final Energy:  -527.73926041833988

   => Energetics <=

    Nuclear Repulsion Energy =            412.9291539250035044
    One-Electron Energy =               -1549.7319218082166117
    Two-Electron Energy =                 609.0635074648730551
    DFT Exchange-Correlation Energy =       0.0000000000000000
    Empirical Dispersion Energy =           0.0000000000000000
    PCM Polarization Energy =               0.0000000000000000
    EFP Energy =                            0.0000000000000000
    Total Energy =                       -527.7392604183401090
    Molecular point group: c1
  Basis Set: CC-PVTZ
  Basis Set:

  -Total Gradient:
     Atom            X                  Y                   Z
    ------   -----------------  -----------------  -----------------
       1        0.000006146098     0.000028234299     0.000016076305
       2        0.000044719311    -0.000030185850     0.000016591112
       3       -0.000135684671    -0.000005612847    -0.000105827976
       4       -0.000004998444     0.000010660791    -0.000007833750
       5        0.000135933083    -0.000039978438    -0.000007254205
       6        0.000028923886     0.000009660305     0.000030839189
       7       -0.004903046907     0.005591201429    -0.000197397686
       8        0.003512061359    -0.004894498164     0.002321655007
       9        0.003438042450    -0.003776689185    -0.000231563540
      10        0.000005705743    -0.000002519468    -0.000000725391
      11       -0.002111031736     0.003114732016    -0.001906586678
      12       -0.000040910246     0.000004941588     0.000020962938
      13        0.000024140072    -0.000009946480     0.000051064674

  **** Optimization is complete! (in 7 steps) ****
    Final optimized geometry and variables:
    Molecular point group: c1

    Geometry (in Angstrom), charge = 0, multiplicity = 1:

    H           -3.928183932637     1.089295224231    -0.312486161925
    C           -3.260816635114     0.425060814920     0.197160780376
    C           -2.108604588113     0.123861806850    -0.349434034233
    H           -3.553113534928     0.026825482870     1.148900661910
    O           -1.228736779440    -0.717701872731     0.240563101417
    H           -1.802012545583     0.523609322273    -1.298715686905
    C           -0.033744506722    -0.975863067688    -0.399973602131
    C            1.068434834014     0.004946203884    -0.017118654868
    H           -0.114458369501    -0.988452165930    -1.479766857765
    H            0.297568822532    -1.956685833655    -0.091652846522
    F            1.979639241962     0.048180485654    -0.969402126403
    F            0.607057234626     1.226026014466     0.134327015805
    F            1.668488477044    -0.334173082578     1.100057100165

  Mulliken Charges: (a.u.)
   Center  Symbol    Alpha    Beta     Spin     Total
       1     H     0.42531  0.42531  0.00000  0.14939
       2     C     3.19726  3.19726  0.00000 -0.39453
       3     C     2.95584  2.95584  0.00000  0.08832
       4     H     0.42507  0.42507  0.00000  0.14986
       5     O     4.14253  4.14253  0.00000 -0.28507
       6     H     0.43451  0.43451  0.00000  0.13097
       7     C     3.02795  3.02795  0.00000 -0.05589
       8     C     2.67232  2.67232  0.00000  0.65537
       9     H     0.45475  0.45475  0.00000  0.09051
      10     H     0.43707  0.43707  0.00000  0.12586
      11     F     4.61262  4.61262  0.00000 -0.22523
      12     F     4.60737  4.60737  0.00000 -0.21475
      13     F     4.60740  4.60740  0.00000 -0.21480

   Total alpha = 32.00000, Total beta = 32.00000, Total charge = -0.00000

*** Psi4 exiting successfully. Buy a developer a beer!
