                              Psi4 1.0.54 Driver

  ==> Input File <==

--------------------------------------------------------------------------
set {
	reference rhf
	basis cc-pvtz
}

set_num_threads( 4 )
memory 2 gb

molecule MOL {
0 1

H	 -1.420382	 -1.702779	 1.439408
N	 -0.640718	 -1.084685	 1.364202
C	 -0.561396	 -0.500007	 0.035200
H	 0.178698	 -1.617690	 1.568648
C	 0.575129	 0.507849	 -0.048832
H	 -1.501129	 0.005161	 -0.162093
H	 -0.436405	 -1.246131	 -0.750987
C	 1.951750	 -0.141983	 0.035101
H	 0.478254	 1.061643	 -0.975981
H	 0.467676	 1.231891	 0.755499
H	 2.101550	 -0.848142	 -0.774949
H	 2.738260	 0.600794	 -0.026526
H	 2.078939	 -0.679792	 0.968824

	symmetry c1
}
set optking {
	frozen_dihedral = ("
		6 3 5 9
	")
}

ee,wfn = optimize('scf', return_wfn=True)
oeprop( wfn, 'DIPOLE', 'QUADRUPOLE', 'MULLIKEN_CHARGES')
f=open( 'psi4out.xyz', 'w' )
f.write( "13  " )
f.write( str(ee) + "\n" )
f.write( MOL.save_string_xyz() )
f.close()
--------------------------------------------------------------------------

    Molecular point group: c1
  Charge       = 0
  Multiplicity = 1
  Basis Set: CC-PVTZ
  Basis Set:
  @DF-RHF Final Energy:  -173.35116179567299
    Total Energy =                       -173.3511617956730220
    Molecular point group: c1
  Basis Set: CC-PVTZ
  Basis Set:
  Basis Set: CC-PVTZ
  Basis Set:
  @DF-RHF Final Energy:  -173.35143253333689
    Total Energy =                       -173.3514325333370039
  Basis Set: CC-PVTZ
  Basis Set:
  Basis Set: CC-PVTZ
  Basis Set:
  @DF-RHF Final Energy:  -173.35149302239978
    Total Energy =                       -173.3514930223998363
  Basis Set: CC-PVTZ
  Basis Set:
  Basis Set: CC-PVTZ
  Basis Set:
  @DF-RHF Final Energy:  -173.35149780653430
    Total Energy =                       -173.3514978065343541
  Basis Set: CC-PVTZ
  Basis Set:
  Charge       = 0
  Multiplicity = 1
  Basis Set: CC-PVTZ
  Basis Set:

    Orbital Energies (a.u.)
    -----------------------

    Doubly Occupied:

       1A    -15.526914     2A    -11.238658     3A    -11.209874
       4A    -11.206998     5A     -1.178682     6A     -1.033094
       7A     -0.908261     8A     -0.789873     9A     -0.669517
      10A     -0.640829    11A     -0.571257    12A     -0.565616
      13A     -0.561426    14A     -0.482458    15A     -0.478582
      16A     -0.469744    17A     -0.384094

  @DF-RHF Final Energy:  -173.35149860815366

   => Energetics <=

    Nuclear Repulsion Energy =            133.7579639138219534
    One-Electron Energy =                -498.3871674320961347
    Two-Electron Energy =                 191.2777049101206899
    DFT Exchange-Correlation Energy =       0.0000000000000000
    Empirical Dispersion Energy =           0.0000000000000000
    PCM Polarization Energy =               0.0000000000000000
    EFP Energy =                            0.0000000000000000
    Total Energy =                       -173.3514986081534630
    Molecular point group: c1
  Basis Set: CC-PVTZ
  Basis Set:

  -Total Gradient:
     Atom            X                  Y                   Z
    ------   -----------------  -----------------  -----------------
       1       -0.000017173770    -0.000034075011     0.000023838573
       2       -0.000017512515     0.000037915017    -0.000019081586
       3       -0.000362133491     0.000563798853     0.001668325674
       4        0.000031117963    -0.000024807449     0.000005700699
       5        0.000962270898    -0.001173514783    -0.000965742897
       6        0.000154009909    -0.000271143708    -0.001251775537
       7       -0.000010349517    -0.000011991106    -0.000008622681
       8       -0.000021838999     0.000019561209    -0.000028328015
       9       -0.000711990615     0.000886802235     0.000555014415
      10       -0.000006336884     0.000008415669     0.000007915487
      11        0.000012051539     0.000003132404     0.000021232414
      12       -0.000002193567    -0.000002215974     0.000001989084
      13       -0.000009920948    -0.000001877355    -0.000010465632

  **** Optimization is complete! (in 5 steps) ****
    Final optimized geometry and variables:
    Molecular point group: c1

    Geometry (in Angstrom), charge = 0, multiplicity = 1:

    H           -1.848368921132    -1.288205846064     1.051807866593
    N           -1.014081683232    -0.745077450336     0.984950524129
    C           -0.879723433442    -0.164590195826    -0.342662694200
    H           -0.253199051506    -1.356326560539     1.192282456182
    C            0.267222219876     0.836035369705    -0.414030924750
    H           -1.804914032852     0.349469815462    -0.575995002335
    H           -0.742599168073    -0.917893502948    -1.120926771898
    C            1.652318929912     0.208149924398    -0.290639505752
    H            0.195772184823     1.371442877809    -1.356247303852
    H            0.129310172896     1.569855071713     0.372983939850
    H            1.814935416034    -0.539402562732    -1.060832316192
    H            2.427520052481     0.958738005959    -0.391216449628
    H            1.790618044056    -0.268498372871     0.673312092639

  Mulliken Charges: (a.u.)
   Center  Symbol    Alpha    Beta     Spin     Total
       1     H     0.42883  0.42883  0.00000  0.14234
       2     N     3.69038  3.69038  0.00000 -0.38075
       3     C     3.03228  3.03228  0.00000 -0.06456
       4     H     0.42983  0.42983  0.00000  0.14034
       5     C     3.08032  3.08032  0.00000 -0.16063
       6     H     0.45266  0.45266  0.00000  0.09467
       7     H     0.46663  0.46663  0.00000  0.06674
       8     C     3.15446  3.15446  0.00000 -0.30892
       9     H     0.45470  0.45470  0.00000  0.09060
      10     H     0.45206  0.45206  0.00000  0.09588
      11     H     0.45585  0.45585  0.00000  0.08829
      12     H     0.44655  0.44655  0.00000  0.10690
      13     H     0.45545  0.45545  0.00000  0.08910

   Total alpha = 17.00000, Total beta = 17.00000, Total charge =  0.00000

*** Psi4 exiting successfully. Buy a developer a beer!
