                              Psi4 1.0.54 Driver

  ==> Input File <==

--------------------------------------------------------------------------
set {
	reference rhf
	basis cc-pvtz
}

set_num_threads( 4 )
memory 2 gb

molecule MOL {
0 1

H	 1.887908	 1.415554	 -0.278314
C	 1.887106	 0.344056	 -0.113846
N	 0.526300	 -0.128137	 0.000000
H	 2.420447	 0.153121	 0.808722
H	 2.444217	 -0.116651	 -0.932349
C	 -0.247113	 0.037112	 -1.209233
H	 0.520658	 -1.085064	 0.279137
H	 -0.996493	 -0.743733	 -1.271440
H	 0.397975	 -0.057351	 -2.073512
H	 -0.763794	 0.997171	 -1.271673

	symmetry c1
}
set optking {
	frozen_dihedral = ("
		2 3 6 8
	")
}

ee,wfn = optimize('scf', return_wfn=True)
oeprop( wfn, 'DIPOLE', 'QUADRUPOLE', 'MULLIKEN_CHARGES')
f=open( 'psi4out.xyz', 'w' )
f.write( "10  " )
f.write( str(ee) + "\n" )
f.write( MOL.save_string_xyz() )
f.close()
--------------------------------------------------------------------------

    Molecular point group: c1
  Charge       = 0
  Multiplicity = 1
  Basis Set: CC-PVTZ
  Basis Set:
  @DF-RHF Final Energy:  -134.29037568679590
    Total Energy =                       -134.2903756867960681
    Molecular point group: c1
  Basis Set: CC-PVTZ
  Basis Set:
  Basis Set: CC-PVTZ
  Basis Set:
  @DF-RHF Final Energy:  -134.29097311047317
    Total Energy =                       -134.2909731104730326
  Basis Set: CC-PVTZ
  Basis Set:
  Basis Set: CC-PVTZ
  Basis Set:
  @DF-RHF Final Energy:  -134.29105495209711
    Total Energy =                       -134.2910549520971131
  Basis Set: CC-PVTZ
  Basis Set:
  Basis Set: CC-PVTZ
  Basis Set:
  @DF-RHF Final Energy:  -134.29105630730459
    Total Energy =                       -134.2910563073045012
  Basis Set: CC-PVTZ
  Basis Set:
  Charge       = 0
  Multiplicity = 1
  Basis Set: CC-PVTZ
  Basis Set:

    Orbital Energies (a.u.)
    -----------------------

    Doubly Occupied:

       1A    -15.532122     2A    -11.234382     3A    -11.234359
       4A     -1.199701     5A     -0.948405     6A     -0.854515
       7A     -0.661874     8A     -0.613619     9A     -0.591027
      10A     -0.543614    11A     -0.508908    12A     -0.504593
      13A     -0.364288

  @DF-RHF Final Energy:  -134.29105641406585

   => Energetics <=

    Nuclear Repulsion Energy =             84.6411747093543880
    One-Electron Energy =                -348.2816500947843679
    Two-Electron Energy =                 129.3494189713641163
    DFT Exchange-Correlation Energy =       0.0000000000000000
    Empirical Dispersion Energy =           0.0000000000000000
    PCM Polarization Energy =               0.0000000000000000
    EFP Energy =                            0.0000000000000000
    Total Energy =                       -134.2910564140658494
    Molecular point group: c1
  Basis Set: CC-PVTZ
  Basis Set:

  -Total Gradient:
     Atom            X                  Y                   Z
    ------   -----------------  -----------------  -----------------
       1        0.000006786663     0.000005248327    -0.000000959126
       2        0.000817550783    -0.002606692783    -0.000798025996
       3       -0.000511831840     0.003086750584     0.000631671235
       4        0.000012512221     0.000002975335     0.000003310120
       5       -0.000003629020     0.000000120638    -0.000006671769
       6       -0.002753543776     0.001727226691     0.001939062293
       7       -0.000023665927    -0.000001501782     0.000029671520
       8        0.002439808909    -0.002215493308    -0.001783994121
       9        0.000007611240    -0.000006862455    -0.000009978594
      10        0.000008400748     0.000008228754    -0.000004085563

  **** Optimization is complete! (in 5 steps) ****
    Final optimized geometry and variables:
    Molecular point group: c1

    Geometry (in Angstrom), charge = 0, multiplicity = 1:

    H            1.163892601502     1.341596491120     0.167661145127
    C            1.154348854210     0.273782591083     0.355948410557
    N           -0.209507050403    -0.193781466478     0.458790525679
    H            1.672299159281     0.102776312066     1.291232750758
    H            1.720062939128    -0.207551815915    -0.443842107132
    C           -0.976172333393    -0.050369527631    -0.763397152454
    H           -0.208897535050    -1.148080433420     0.743482608343
    H           -1.726760218409    -0.828284066888    -0.823714265700
    H           -0.359495896245    -0.141062591631    -1.658593904130
    H           -1.471654017052     0.912932603204    -0.799400123692

  Mulliken Charges: (a.u.)
   Center  Symbol    Alpha    Beta     Spin     Total
       1     H     0.45687  0.45687  0.00000  0.08626
       2     C     3.08268  3.08268  0.00000 -0.16535
       3     N     3.62806  3.62806  0.00000 -0.25613
       4     H     0.45282  0.45282  0.00000  0.09436
       5     H     0.47372  0.47372  0.00000  0.05256
       6     C     3.07668  3.07668  0.00000 -0.15336
       7     H     0.44128  0.44128  0.00000  0.11744
       8     H     0.45657  0.45657  0.00000  0.08687
       9     H     0.47595  0.47595  0.00000  0.04810
      10     H     0.45537  0.45537  0.00000  0.08925

   Total alpha = 13.00000, Total beta = 13.00000, Total charge = -0.00000

*** Psi4 exiting successfully. Buy a developer a beer!
