  ==> Input File <==

--------------------------------------------------------------------------
set {
	reference rhf
	basis cc-pvtz
}

set_num_threads( 4 )
memory 2 gb

molecule MOL {
0 1

O	 -1.510770	 1.240811	 -0.054933
C	 -1.081510	 0.147522	 0.122720
C	 0.327029	 -0.064006	 0.641890
C	 -1.903028	 -1.084121	 -0.174656
C	 1.349460	 -0.017068	 -0.500215
H	 0.399029	 -1.014606	 1.159950
H	 0.538021	 0.726928	 1.350471
C	 2.589331	 -0.853743	 -0.206207
H	 0.888691	 -0.367235	 -1.419407
H	 1.633386	 1.015139	 -0.668328
H	 3.299220	 -0.794211	 -1.022628
H	 2.334269	 -1.898461	 -0.063875
H	 3.087666	 -0.508691	 0.692944
H	 -1.341891	 -1.779207	 -0.789259
H	 -2.820449	 -0.808163	 -0.671328
H	 -2.133314	 -1.593056	 0.755831

	symmetry c1
}
set optking {
	frozen_dihedral = ("
		9 5 3 2
	")
}

ee = optimize('scf')
oeprop('DIPOLE', 'QUADRUPOLE', 'MULLIKEN_CHARGES')
f=open( 'psi4out.xyz', 'w' )
f.write( "16  " )
f.write( str(ee) + "\n" )
f.write( MOL.save_string_xyz() )
f.close()
--------------------------------------------------------------------------

    Molecular point group: c1
  Charge       = 0
  Multiplicity = 1
  Basis Set: CC-PVTZ
  Basis Set:
  @DF-RHF Final Energy:  -270.12668429970813
    Total Energy =                       -270.1266842997083586
    Molecular point group: c1
  Basis Set: CC-PVTZ
  Basis Set:
  Basis Set: CC-PVTZ
  Basis Set:
  @DF-RHF Final Energy:  -270.12689832845888
    Total Energy =                       -270.1268983284589353
  Basis Set: CC-PVTZ
  Basis Set:
  Basis Set: CC-PVTZ
  Basis Set:
  @DF-RHF Final Energy:  -270.12507332855330
    Total Energy =                       -270.1250733285532419
  Basis Set: CC-PVTZ
  Basis Set:
  Basis Set: CC-PVTZ
  Basis Set:
  @DF-RHF Final Energy:  -270.12704104945954
    Total Energy =                       -270.1270410494591943
  Basis Set: CC-PVTZ
  Basis Set:
  Basis Set: CC-PVTZ
  Basis Set:
  @DF-RHF Final Energy:  -270.12707908400813
    Total Energy =                       -270.1270790840081872
  Basis Set: CC-PVTZ
  Basis Set:
  Basis Set: CC-PVTZ
  Basis Set:
  @DF-RHF Final Energy:  -270.12708502995099
    Total Energy =                       -270.1270850299507060
  Basis Set: CC-PVTZ
  Basis Set:
  Basis Set: CC-PVTZ
  Basis Set:
  @DF-RHF Final Energy:  -270.12708878447165
    Total Energy =                       -270.1270887844717663
  Basis Set: CC-PVTZ
  Basis Set:
  Charge       = 0
  Multiplicity = 1
  Basis Set: CC-PVTZ
  Basis Set:

    Orbital Energies (a.u.)
    -----------------------

    Doubly Occupied:

       1A    -20.537073     2A    -11.319666     3A    -11.232926
       4A    -11.228630     5A    -11.227278     6A    -11.219515
       7A     -1.396990     8A     -1.084286     9A     -1.013751
      10A     -0.951695    11A     -0.831949    12A     -0.736981
      13A     -0.657541    14A     -0.653798    15A     -0.614918
      16A     -0.605517    17A     -0.581318    18A     -0.561470
      19A     -0.535721    20A     -0.522063    21A     -0.506368
      22A     -0.483189    23A     -0.475708    24A     -0.400271

  @DF-RHF Final Energy:  -270.12708922611944

   => Energetics <=

    Nuclear Repulsion Energy =            237.7841569277941289
    One-Electron Energy =                -837.0652446559880673
    Two-Electron Energy =                 329.1539985020750123
    DFT Exchange-Correlation Energy =       0.0000000000000000
    Empirical Dispersion Energy =           0.0000000000000000
    PCM Polarization Energy =               0.0000000000000000
    EFP Energy =                            0.0000000000000000
    Total Energy =                       -270.1270892261189260
    Molecular point group: c1
  Basis Set: CC-PVTZ
  Basis Set:

  -Total Gradient:
     Atom            X                  Y                   Z
    ------   -----------------  -----------------  -----------------
       1       -0.000002779617    -0.000027286601    -0.000012549752
       2       -0.000344054680    -0.002822882617    -0.000210075654
       3        0.000172073747     0.004817811573     0.000104546377
       4       -0.000005048206    -0.000026606604     0.000018991997
       5        0.001276182567    -0.005710042803     0.001131148583
       6       -0.000003216881     0.000000905425     0.000002107194
       7       -0.000001922129     0.000000615909    -0.000018184315
       8       -0.000011223930     0.000009943781    -0.000006236415
       9       -0.001094834078     0.003763343162    -0.000996390285
      10        0.000005191496    -0.000002233316     0.000009329288
      11        0.000005651205     0.000000144466     0.000000132101
      12       -0.000001958331    -0.000003568059    -0.000002148180
      13        0.000002121414    -0.000002574483     0.000001021663
      14       -0.000004567578    -0.000000516430    -0.000006500801
      15        0.000005578462     0.000002655714    -0.000004422735
      16        0.000002806542     0.000000290885    -0.000010769067

  **** Optimization is complete! (in 8 steps) ****
    Final optimized geometry and variables:
    Molecular point group: c1

    Geometry (in Angstrom), charge = 0, multiplicity = 1:

    O           -1.518375884371     1.362883404262     0.086048335930
    C           -1.047800218451     0.276018671983     0.178585612643
    C            0.368723452299     0.064888182215     0.670012192404
    C           -1.832859130988    -0.958811782609    -0.199280449387
    C            1.368519429941     0.045639009328    -0.502139675715
    H            0.419191509849    -0.878911671143     1.203991839998
    H            0.615671151799     0.857691406190     1.362313386960
    C            2.633541905176    -0.746009540111    -0.198287601802
    H            0.889101150773    -0.335262452581    -1.398589123225
    H            1.628162602862     1.070900306563    -0.739894034507
    H            3.333698938131    -0.692055053256    -1.023453667136
    H            2.408811591822    -1.792004752994    -0.019661693336
    H            3.131098021896    -0.359475765114     0.684670975593
    H           -1.239017991813    -1.630628426357    -0.807729860273
    H           -2.732751430318    -0.678613402559    -0.724885594017
    H           -2.098906709000    -1.495108783960     0.706145318573

  Mulliken Charges: (a.u.)
   Center  Symbol    Alpha    Beta     Spin     Total
       1     O     4.17628  4.17628  0.00000 -0.35256
       2     C     2.85788  2.85788  0.00000  0.28424
       3     C     3.09794  3.09794  0.00000 -0.19588
       4     C     3.15617  3.15617  0.00000 -0.31235
       5     C     3.09158  3.09158  0.00000 -0.18317
       6     H     0.45244  0.45244  0.00000  0.09512
       7     H     0.43770  0.43770  0.00000  0.12459
       8     C     3.14888  3.14888  0.00000 -0.29776
       9     H     0.45105  0.45105  0.00000  0.09789
      10     H     0.44218  0.44218  0.00000  0.11563
      11     H     0.44635  0.44635  0.00000  0.10731
      12     H     0.45552  0.45552  0.00000  0.08896
      13     H     0.45180  0.45180  0.00000  0.09639
      14     H     0.45080  0.45080  0.00000  0.09839
      15     H     0.43577  0.43577  0.00000  0.12846
      16     H     0.44763  0.44763  0.00000  0.10473

   Total alpha = 24.00000, Total beta = 24.00000, Total charge =  0.00000
