  ==> Input File <==

--------------------------------------------------------------------------
set {
	reference rhf
	basis 6-31G*
}

set_num_threads( 4 )
memory 2 gb

molecule MOL {
0 1

H	 3.089270	 -1.380733	 0.000000
O	 2.178328	 -1.639175	 0.000000
C	 1.368216	 -0.558384	 0.000000
C	 0.600909	 -0.203500	 -1.102089
C	 1.319146	 0.206429	 1.152425
H	 0.640559	 -0.800055	 -1.997961
C	 -0.214185	 0.914846	 -1.051157
H	 1.911318	 -0.066579	 2.004408
C	 0.500514	 1.324498	 1.195123
H	 -0.803381	 1.179522	 -1.910327
C	 -0.269410	 1.684951	 0.096459
C	 0.443050	 2.150595	 2.430085
H	 -0.901839	 2.554028	 0.138211
O	 1.061770	 1.926335	 3.420760
H	 -0.227886	 3.013288	 2.376660

	symmetry c1
}
set optking {
	frozen_dihedral = ("
		4 3 2 1
	")
}

ee = optimize('scf')
oeprop('DIPOLE', 'QUADRUPOLE', 'MULLIKEN_CHARGES')
f=open( 'psi4out.xyz', 'w' )
f.write( "15  " )
f.write( str(ee) + "\n" )
f.write( MOL.save_string_xyz() )
f.close()
--------------------------------------------------------------------------

    Molecular point group: c1
  Charge       = 0
  Multiplicity = 1
  Basis Set: 6-31G*
  Basis Set:
  @DF-RHF Final Energy:  -418.28210240241191
    Total Energy =                       -418.2821024024115104
    Molecular point group: c1
  Basis Set: 6-31G*
  Basis Set:
  Basis Set: 6-31G*
  Basis Set:
  @DF-RHF Final Energy:  -418.28325345529771
    Total Energy =                       -418.2832534552973129
  Basis Set: 6-31G*
  Basis Set:
  Basis Set: 6-31G*
  Basis Set:
  @DF-RHF Final Energy:  -418.28142059526448
    Total Energy =                       -418.2814205952646489
  Basis Set: 6-31G*
  Basis Set:
  Basis Set: 6-31G*
  Basis Set:
  @DF-RHF Final Energy:  -418.28336116111706
    Total Energy =                       -418.2833611611169999
  Basis Set: 6-31G*
  Basis Set:
  Basis Set: 6-31G*
  Basis Set:
  @DF-RHF Final Energy:  -418.28337424561670
    Total Energy =                       -418.2833742456166419
  Basis Set: 6-31G*
  Basis Set:
  Charge       = 0
  Multiplicity = 1
  Basis Set: 6-31G*
  Basis Set:

    Orbital Energies (a.u.)
    -----------------------

    Doubly Occupied:

       1A    -20.588414     2A    -20.565726     3A    -11.334497
       4A    -11.304143     5A    -11.253343     6A    -11.251781
       7A    -11.250580     8A    -11.248022     9A    -11.245179
      10A     -1.406555    11A     -1.404620    12A     -1.170298
      13A     -1.049086    14A     -1.026153    15A     -0.898109
      16A     -0.847499    17A     -0.798729    18A     -0.745202
      19A     -0.698602    20A     -0.675372    21A     -0.655759
      22A     -0.632220    23A     -0.618433    24A     -0.606346
      25A     -0.556945    26A     -0.545838    27A     -0.531047
      28A     -0.501012    29A     -0.486070    30A     -0.424694
      31A     -0.352218    32A     -0.340579

  @DF-RHF Final Energy:  -418.28337620546921

   => Energetics <=

    Nuclear Repulsion Energy =            402.6729685573048414
    One-Electron Energy =               -1367.8865491225355981
    Two-Electron Energy =                 546.9302043597617740
    DFT Exchange-Correlation Energy =       0.0000000000000000
    Empirical Dispersion Energy =           0.0000000000000000
    PCM Polarization Energy =               0.0000000000000000
    EFP Energy =                            0.0000000000000000
    Total Energy =                       -418.2833762054690396
    Molecular point group: c1
  Basis Set: 6-31G*
  Basis Set:

  -Total Gradient:
     Atom            X                  Y                   Z
    ------   -----------------  -----------------  -----------------
       1       -0.000038066651     0.000057017285    -0.001694333565
       2        0.000597991359     0.000198676244     0.001930416933
       3       -0.001627320579    -0.000899457352     0.000016685116
       4        0.001056597745     0.000541105419    -0.000367747457
       5        0.000021772609     0.000018416702     0.000086483137
       6        0.000012644614    -0.000020884848     0.000004791460
       7       -0.000046691227     0.000207703205     0.000085800209
       8       -0.000020809441     0.000016122868    -0.000011991745
       9        0.000113393592    -0.000056223611     0.000065292477
      10        0.000012925677    -0.000016285278     0.000003684627
      11       -0.000072154569    -0.000092550845    -0.000176030697
      12       -0.000013776051     0.000034157268    -0.000020579350
      13        0.000004662056     0.000009844028     0.000044679444
      14       -0.000002526640     0.000004036061     0.000016034427
      15        0.000001357505    -0.000001677151     0.000016814982

  **** Optimization is complete! (in 6 steps) ****
    Final optimized geometry and variables:
    Molecular point group: c1

    Geometry (in Angstrom), charge = 0, multiplicity = 1:

    H            2.254248447217    -2.049231384422    -0.788665395727
    O            1.336890961880    -2.287115941534    -0.766771970748
    C            0.555041695180    -1.167408127674    -0.705824255186
    C           -0.206293274120    -0.819747967602    -1.814332760246
    C            0.496196747387    -0.406321666166     0.443587074920
    H           -0.145265714943    -1.431212645407    -2.695622001352
    C           -1.032384834905     0.288888708637    -1.768778109786
    H            1.073810509177    -0.676356045526     1.307625642635
    C           -0.326914637468     0.714362869708     0.483897007552
    H           -1.622678609380     0.551191398071    -2.627713653035
    C           -1.092736238685     1.060789665880    -0.619035604671
    C           -0.391077356147     1.542068773330     1.714695959743
    H           -1.731843178310     1.925699184257    -0.581350045290
    O            0.240932660855     1.332449863510     2.701084473674
    H           -1.077634493183     2.392548405517     1.665163886592

  Mulliken Charges: (a.u.)
   Center  Symbol    Alpha    Beta     Spin     Total
       1     H     0.26935  0.26935  0.00000  0.46130
       2     O     4.38624  4.38624  0.00000 -0.77248
       3     C     2.81693  2.81693  0.00000  0.36613
       4     C     3.10732  3.10732  0.00000 -0.21463
       5     C     3.11308  3.11308  0.00000 -0.22617
       6     H     0.38698  0.38698  0.00000  0.22605
       7     C     3.10134  3.10134  0.00000 -0.20267
       8     H     0.37429  0.37429  0.00000  0.25142
       9     C     3.05117  3.05117  0.00000 -0.10235
      10     H     0.39256  0.39256  0.00000  0.21488
      11     C     3.10798  3.10798  0.00000 -0.21596
      12     C     2.83193  2.83193  0.00000  0.33614
      13     H     0.39208  0.39208  0.00000  0.21584
      14     O     4.24726  4.24726  0.00000 -0.49452
      15     H     0.42149  0.42149  0.00000  0.15701

   Total alpha = 32.00000, Total beta = 32.00000, Total charge =  0.00000
