  ==> Input File <==

--------------------------------------------------------------------------
set {
	reference rhf
	basis 6-31G*
}

set_num_threads( 1 )
memory 2 gb

molecule MOL {
0 1

H	 -2.798360	 -0.862255	 -0.071053
N	 -1.863561	 -0.715187	 0.256814
C	 -1.344686	 0.554728	 -0.219830
H	 -1.300452	 -1.461917	 -0.101532
C	 -1.561016	 0.673596	 -1.713887
H	 -1.796219	 1.422446	 0.263063
H	 -0.277839	 0.590064	 -0.021415
O	 -2.938413	 0.706462	 -1.956345
H	 -1.092727	 1.582476	 -2.091089
H	 -1.109457	 -0.178171	 -2.217695
C	 -3.283794	 0.728998	 -3.304593
H	 -4.363253	 0.754593	 -3.366333
H	 -2.882436	 1.609275	 -3.803599
H	 -2.921563	 -0.156562	 -3.822647

	symmetry c1
}
set optking {
	frozen_dihedral = ("
		8 5 3 6,
		5 8 11 13,
		11 8 5 3
	")
}

ee = energy('scf')
oeprop('DIPOLE', 'QUADRUPOLE', 'MULLIKEN_CHARGES')
f=open( 'psi4out.xyz', 'w' )
f.write( "14  " )
f.write( str(ee) + "\n" )
f.write( MOL.save_string_xyz() )
f.close()
--------------------------------------------------------------------------

    Molecular point group: c1

    Geometry (in Angstrom), charge = 0, multiplicity = 1:

       Center              X                  Y                   Z               Mass
    ------------   -----------------  -----------------  -----------------  -----------------
           H         -0.586289821202    -1.236561803965     1.339748074773     1.007825032070
           N          0.348509178798    -1.089493803965     1.667615074773    14.003074004780
           C          0.867384178798     0.180421196035     1.190971074773    12.000000000000
           H          0.911618178798    -1.836223803965     1.309269074773     1.007825032070
           C          0.651054178798     0.299289196035    -0.303085925227    12.000000000000
           H          0.415851178798     1.048139196035     1.673864074773     1.007825032070
           H          1.934231178798     0.215757196035     1.389386074773     1.007825032070
           O         -0.726342821202     0.332155196035    -0.545543925227    15.994914619560
           H          1.119343178798     1.208169196035    -0.680287925227     1.007825032070
           H          1.102613178798    -0.552477803965    -0.806893925227     1.007825032070
           C         -1.071723821202     0.354691196035    -1.893791925227    12.000000000000
           H         -2.151182821202     0.380286196035    -1.955531925227     1.007825032070
           H         -0.670365821202     1.234968196035    -2.392797925227     1.007825032070
           H         -0.709492821202    -0.530868803965    -2.411845925227     1.007825032070

  Charge       = 0
  Multiplicity = 1
  Basis Set: 6-31G*
  Basis Set:

    Orbital Energies (a.u.)
    -----------------------

    Doubly Occupied:

       1A    -20.562074     2A    -15.527406     3A    -11.270290
       4A    -11.267548     5A    -11.242601     6A     -1.386049
       7A     -1.175868     8A     -0.999569     9A     -0.910456
      10A     -0.823209    11A     -0.686834    12A     -0.674501
      13A     -0.645196    14A     -0.630581    15A     -0.588738
      16A     -0.550897    17A     -0.520955    18A     -0.510686
      19A     -0.480501    20A     -0.422934    21A     -0.375783

  @DF-RHF Final Energy:  -248.12224349786902

   => Energetics <=

    Nuclear Repulsion Energy =            195.3347629012641278
    One-Electron Energy =                -724.4085980169668346
    Two-Electron Energy =                 280.9515916178341968
    DFT Exchange-Correlation Energy =       0.0000000000000000
    Empirical Dispersion Energy =           0.0000000000000000
    PCM Polarization Energy =               0.0000000000000000
    EFP Energy =                            0.0000000000000000
    Total Energy =                       -248.1222434978684532

  Mulliken Charges: (a.u.)
   Center  Symbol    Alpha    Beta     Spin     Total
       1     H     0.32302  0.32302  0.00000  0.35395
       2     N     3.91996  3.91996  0.00000 -0.83993
       3     C     3.07125  3.07125  0.00000 -0.14250
       4     H     0.33665  0.33665  0.00000  0.32670
       5     C     2.99502  2.99502  0.00000  0.00996
       6     H     0.41044  0.41044  0.00000  0.17912
       7     H     0.41937  0.41937  0.00000  0.16126
       8     O     4.30760  4.30760  0.00000 -0.61519
       9     H     0.43201  0.43201  0.00000  0.13598
      10     H     0.43604  0.43604  0.00000  0.12791
      11     C     3.07922  3.07922  0.00000 -0.15844
      12     H     0.41126  0.41126  0.00000  0.17749
      13     H     0.42851  0.42851  0.00000  0.14299
      14     H     0.42965  0.42965  0.00000  0.14070

   Total alpha = 21.00000, Total beta = 21.00000, Total charge =  0.00000
