  ==> Input File <==

--------------------------------------------------------------------------
set {
	reference rhf
	basis 6-31G*
}

set_num_threads( 1 )
memory 2 gb

molecule MOL {
0 1

H	 1.136379	 0.211822	 1.465562
C	 1.135357	 0.094285	 0.374742
C	 0.065331	 0.871482	 -0.349150
O	 1.941633	 -0.601957	 -0.151457
C	 -1.051793	 1.345739	 0.591379
H	 -0.325532	 0.252317	 -1.148383
H	 0.546284	 1.738077	 -0.800657
C	 -1.881185	 0.199259	 1.171135
H	 -1.700879	 2.020312	 0.042153
H	 -0.619320	 1.931996	 1.399407
H	 -2.350722	 -0.378564	 0.381083
H	 -2.665283	 0.578745	 1.818050
H	 -1.271824	 -0.482527	 1.756999

	symmetry c1
}
set optking {
	frozen_dihedral = ("
		6 3 5 9
	")
}

ee = energy('scf')
oeprop('DIPOLE', 'QUADRUPOLE', 'MULLIKEN_CHARGES')
f=open( 'psi4out.xyz', 'w' )
f.write( "13  " )
f.write( str(ee) + "\n" )
f.write( MOL.save_string_xyz() )
f.close()
--------------------------------------------------------------------------

    Molecular point group: c1

    Geometry (in Angstrom), charge = 0, multiplicity = 1:

       Center              X                  Y                   Z               Mass
    ------------   -----------------  -----------------  -----------------  -----------------
           H          1.095284902305    -0.154816472156     1.132669613413     1.007825032070
           C          1.094262902305    -0.272353472156     0.041849613413    12.000000000000
           C          0.024236902305     0.504843527844    -0.682042386587    12.000000000000
           O          1.900538902305    -0.968595472156    -0.484349386587    15.994914619560
           C         -1.092887097695     0.979100527844     0.258486613413    12.000000000000
           H         -0.366626097695    -0.114321472156    -1.481275386587     1.007825032070
           H          0.505189902305     1.371438527844    -1.133549386587     1.007825032070
           C         -1.922279097695    -0.167379472156     0.838242613413    12.000000000000
           H         -1.741973097695     1.653673527844    -0.290739386587     1.007825032070
           H         -0.660414097695     1.565357527844     1.066514613413     1.007825032070
           H         -2.391816097695    -0.745202472156     0.048190613413     1.007825032070
           H         -2.706377097695     0.212106527844     1.485157613413     1.007825032070
           H         -1.312918097695    -0.849165472156     1.424106613413     1.007825032070

  Charge       = 0
  Multiplicity = 1
  Basis Set: 6-31G*
  Basis Set:

    Orbital Energies (a.u.)
    -----------------------

    Doubly Occupied:

       1A    -20.562154     2A    -11.327557     3A    -11.237444
       4A    -11.236477     5A    -11.224557     6A     -1.402531
       7A     -1.088545     8A     -0.973189     9A     -0.848804
      10A     -0.791815    11A     -0.659370    12A     -0.648865
      13A     -0.633947    14A     -0.592694    15A     -0.571238
      16A     -0.527128    17A     -0.508322    18A     -0.493589
      19A     -0.482818    20A     -0.410200

  @DF-RHF Final Energy:  -230.98332086483728

   => Energetics <=

    Nuclear Repulsion Energy =            172.9141864789515637
    One-Electron Energy =                -655.3525494719470998
    Two-Electron Energy =                 251.4550421281578849
    DFT Exchange-Correlation Energy =       0.0000000000000000
    Empirical Dispersion Energy =           0.0000000000000000
    PCM Polarization Energy =               0.0000000000000000
    EFP Energy =                            0.0000000000000000
    Total Energy =                       -230.9833208648376228

  Mulliken Charges: (a.u.)
   Center  Symbol    Alpha    Beta     Spin     Total
       1     H     0.43055  0.43055  0.00000  0.13890
       2     C     2.83461  2.83461  0.00000  0.33077
       3     C     3.20603  3.20603  0.00000 -0.41205
       4     O     4.24018  4.24018  0.00000 -0.48037
       5     C     3.16796  3.16796  0.00000 -0.33593
       6     H     0.39848  0.39848  0.00000  0.20303
       7     H     0.39898  0.39898  0.00000  0.20204
       8     C     3.24366  3.24366  0.00000 -0.48732
       9     H     0.41202  0.41202  0.00000  0.17596
      10     H     0.41837  0.41837  0.00000  0.16326
      11     H     0.41641  0.41641  0.00000  0.16718
      12     H     0.41376  0.41376  0.00000  0.17248
      13     H     0.41899  0.41899  0.00000  0.16203

   Total alpha = 20.00000, Total beta = 20.00000, Total charge = -0.00000
