                              Psi4 1.0.54 Driver

  ==> Input File <==

--------------------------------------------------------------------------
set {
	reference rhf
	basis cc-pvtz
}

set_num_threads( 4 )
memory 2 gb

molecule MOL {
0 1

H	 3.514480	 -0.858570	 1.453925
O	 2.699421	 -1.109503	 1.045995
C	 1.948126	 -0.021055	 0.903628
C	 0.626018	 -0.337582	 0.258241
O	 2.315296	 1.046070	 1.256151
C	 -0.267326	 0.883135	 0.076490
H	 0.847262	 -0.825238	 -0.683619
H	 0.143213	 -1.088869	 0.875412
C	 -1.726822	 0.642622	 0.463839
H	 -0.210803	 1.217591	 -0.953497
H	 0.129920	 1.693110	 0.675679
C	 -2.480891	 -0.340606	 -0.429852
H	 -2.243098	 1.597649	 0.438609
H	 -1.776542	 0.301208	 1.495542
C	 -3.955933	 -0.460128	 -0.060472
H	 -2.393755	 -0.020485	 -1.464726
H	 -2.024244	 -1.323637	 -0.374360
H	 -4.467673	 -1.160944	 -0.709827
H	 -4.458917	 0.497287	 -0.144505
H	 -4.076458	 -0.806900	 0.960497

	symmetry c1
}
set optking {
	frozen_dihedral = ("
		7 4 6 10
	")
}

ee,wfn = optimize('scf', return_wfn=True)
oeprop( wfn, 'DIPOLE', 'QUADRUPOLE', 'MULLIKEN_CHARGES')
f=open( 'psi4out.xyz', 'w' )
f.write( "20  " )
f.write( str(ee) + "\n" )
f.write( MOL.save_string_xyz() )
f.close()
--------------------------------------------------------------------------

    Molecular point group: c1
  Charge       = 0
  Multiplicity = 1
  Basis Set: CC-PVTZ
  Basis Set:
  @DF-RHF Final Energy:  -384.09141178640743
    Total Energy =                       -384.0914117864070931
    Molecular point group: c1
  Basis Set: CC-PVTZ
  Basis Set:
  Basis Set: CC-PVTZ
  Basis Set:
  @DF-RHF Final Energy:  -384.09174190907169
    Total Energy =                       -384.0917419090716294
  Basis Set: CC-PVTZ
  Basis Set:
  Basis Set: CC-PVTZ
  Basis Set:
  @DF-RHF Final Energy:  -384.09180326014484
    Total Energy =                       -384.0918032601449568
  Basis Set: CC-PVTZ
  Basis Set:
  Basis Set: CC-PVTZ
  Basis Set:
  @DF-RHF Final Energy:  -384.09179236664858
    Total Energy =                       -384.0917923666487468
  Basis Set: CC-PVTZ
  Basis Set:
  Basis Set: CC-PVTZ
  Basis Set:
  @DF-RHF Final Energy:  -384.09177553947404
    Total Energy =                       -384.0917755394739288
  Basis Set: CC-PVTZ
  Basis Set:
  Basis Set: CC-PVTZ
  Basis Set:
  @DF-RHF Final Energy:  -384.09183596544983
    Total Energy =                       -384.0918359654502865
  Basis Set: CC-PVTZ
  Basis Set:
  Charge       = 0
  Multiplicity = 1
  Basis Set: CC-PVTZ
  Basis Set:

    Orbital Energies (a.u.)
    -----------------------

    Doubly Occupied:

       1A    -20.604066     2A    -20.541204     3A    -11.374024
       4A    -11.239282     5A    -11.219597     6A    -11.218274
       7A    -11.217429     8A    -11.210271     9A     -1.478001
      10A     -1.369420    11A     -1.096351    12A     -1.041010
      13A     -0.962647    14A     -0.870077    15A     -0.817540
      16A     -0.777406    17A     -0.704671    18A     -0.693455
      19A     -0.666470    20A     -0.637739    21A     -0.603628
      22A     -0.595323    23A     -0.575579    24A     -0.553119
      25A     -0.547487    26A     -0.509660    27A     -0.498388
      28A     -0.485055    29A     -0.468168    30A     -0.466825
      31A     -0.457879    32A     -0.448293

  @DF-RHF Final Energy:  -384.09183647431894

   => Energetics <=

    Nuclear Repulsion Energy =            376.8592833910535091
    One-Electron Energy =               -1270.0055596556730961
    Two-Electron Energy =                 509.0544397903006484
    DFT Exchange-Correlation Energy =       0.0000000000000000
    Empirical Dispersion Energy =           0.0000000000000000
    PCM Polarization Energy =               0.0000000000000000
    EFP Energy =                            0.0000000000000000
    Total Energy =                       -384.0918364743189386
    Molecular point group: c1
  Basis Set: CC-PVTZ
  Basis Set:

  -Total Gradient:
     Atom            X                  Y                   Z
    ------   -----------------  -----------------  -----------------
       1       -0.000046947880     0.000040118307    -0.000018044794
       2       -0.000066588465    -0.000096947685    -0.000003851833
       3        0.000121347588    -0.000002993846    -0.000047911772
       4       -0.003690546481    -0.002468077611     0.000379974501
       5       -0.000058117848     0.000080725541     0.000014371962
       6        0.003541900719     0.002473991942     0.000720258730
       7        0.002505169642     0.001615049288    -0.000363105643
       8        0.000006440840    -0.000011370823    -0.000012853933
       9        0.000017651247    -0.000017833190     0.000004765781
      10       -0.002343451468    -0.001639660205    -0.000648328178
      11       -0.000005092756     0.000016135957    -0.000001000258
      12        0.000009784777     0.000003613024    -0.000012253770
      13        0.000022087424     0.000004093546    -0.000011902777
      14       -0.000000642507     0.000002783329     0.000004723539
      15       -0.000006673857    -0.000001907270    -0.000000412802
      16       -0.000016368476     0.000004394146    -0.000009177953
      17        0.000010085498    -0.000001120873    -0.000002751685
      18        0.000001606157    -0.000003507971     0.000000930286
      19       -0.000004430783     0.000006156911    -0.000000588344
      20        0.000002786627    -0.000003642518     0.000007158940

  **** Optimization is complete! (in 7 steps) ****
    Final optimized geometry and variables:
    Molecular point group: c1

    Geometry (in Angstrom), charge = 0, multiplicity = 1:

    H            3.550542582079    -1.054548298277     0.914246265510
    O            2.708187824620    -1.252393902106     0.533618617208
    C            2.014674732480    -0.121104929311     0.437393604024
    C            0.652228871043    -0.364321904946    -0.162125250665
    O            2.456682889342     0.916353998081     0.792421596685
    C           -0.192725743471     0.903584967318    -0.333589501183
    H            0.837254317171    -0.861675067488    -1.106863707939
    H            0.165640105926    -1.094158362107     0.475030819004
    C           -1.667067690555     0.709357748745     0.025798351568
    H           -0.135723362187     1.234451830753    -1.365188033107
    H            0.225141800497     1.690629534830     0.276466602621
    C           -2.422893657241    -0.246419861875    -0.895023316304
    H           -2.156708404081     1.678449385898    -0.000296888958
    H           -1.743998556430     0.359374020170     1.052875103522
    C           -3.893585138515    -0.394831427106    -0.519263337246
    H           -2.347102685365     0.112673489971    -1.918108696376
    H           -1.953020019394    -1.225515614807    -0.881514575954
    H           -4.404803611871    -1.072968139128    -1.192719389872
    H           -4.405693996241     0.560652379233    -0.559812350539
    H           -4.002666066827    -0.784037225740     0.487576630737

  Mulliken Charges: (a.u.)
   Center  Symbol    Alpha    Beta     Spin     Total
       1     H     0.38256  0.38256  0.00000  0.23488
       2     O     4.15998  4.15998  0.00000 -0.31996
       3     C     2.80500  2.80500  0.00000  0.39000
       4     C     3.11671  3.11671  0.00000 -0.23342
       5     O     4.19002  4.19002  0.00000 -0.38005
       6     C     3.10204  3.10204  0.00000 -0.20408
       7     H     0.43154  0.43154  0.00000  0.13692
       8     H     0.43563  0.43563  0.00000  0.12873
       9     C     3.09930  3.09930  0.00000 -0.19860
      10     H     0.45033  0.45033  0.00000  0.09933
      11     H     0.42918  0.42918  0.00000  0.14165
      12     C     3.08501  3.08501  0.00000 -0.17002
      13     H     0.44630  0.44630  0.00000  0.10740
      14     H     0.45347  0.45347  0.00000  0.09307
      15     C     3.14978  3.14978  0.00000 -0.29955
      16     H     0.45336  0.45336  0.00000  0.09328
      17     H     0.45348  0.45348  0.00000  0.09304
      18     H     0.44790  0.44790  0.00000  0.10420
      19     H     0.45361  0.45361  0.00000  0.09277
      20     H     0.45480  0.45480  0.00000  0.09041

   Total alpha = 32.00000, Total beta = 32.00000, Total charge = -0.00000

*** Psi4 exiting successfully. Buy a developer a beer!
