  ==> Input File <==

--------------------------------------------------------------------------
set {
	reference rhf
	basis cc-pvtz
}

set_num_threads( 4 )
memory 2 gb

molecule MOL {
0 1

H	 -1.752232	 -2.214755	 -0.011938
C	 -1.343852	 -1.221619	 -0.018179
N	 -0.058800	 -1.097635	 -0.261688
C	 -2.148159	 -0.124236	 0.219734
C	 0.449026	 0.119242	 -0.273393
H	 -3.196988	 -0.237571	 0.417076
N	 -1.655094	 1.094230	 0.209506
C	 -0.370318	 1.215445	 -0.035100
C	 1.924033	 0.265863	 -0.538106
H	 0.033214	 2.210441	 -0.046812
C	 2.303117	 -0.091937	 -1.976064
H	 2.202544	 1.293507	 -0.337750
H	 2.477130	 -0.357947	 0.154107
H	 3.363973	 0.058320	 -2.137126
H	 1.761083	 0.527743	 -2.678328
H	 2.073844	 -1.129085	 -2.193562

	symmetry c1
}
set optking {
	frozen_dihedral = ("
		12 9 5 3
	")
}

ee = optimize('scf')
oeprop('DIPOLE', 'QUADRUPOLE', 'MULLIKEN_CHARGES')
f=open( 'psi4out.xyz', 'w' )
f.write( "16  " )
f.write( str(ee) + "\n" )
f.write( MOL.save_string_xyz() )
f.close()
--------------------------------------------------------------------------

    Molecular point group: c1
  Charge       = 0
  Multiplicity = 1
  Basis Set: CC-PVTZ
  Basis Set:
  @DF-RHF Final Energy:  -340.87219954477376
    Total Energy =                       -340.8721995447738209
    Molecular point group: c1
  Basis Set: CC-PVTZ
  Basis Set:
  Basis Set: CC-PVTZ
  Basis Set:
  @DF-RHF Final Energy:  -340.87230617295222
    Total Energy =                       -340.8723061729523351
  Basis Set: CC-PVTZ
  Basis Set:
  Basis Set: CC-PVTZ
  Basis Set:
  @DF-RHF Final Energy:  -340.87236793890929
    Total Energy =                       -340.8723679389090648
  Basis Set: CC-PVTZ
  Basis Set:
  Basis Set: CC-PVTZ
  Basis Set:
  @DF-RHF Final Energy:  -340.87236972977024
    Total Energy =                       -340.8723697297698436
  Basis Set: CC-PVTZ
  Basis Set:
  Basis Set: CC-PVTZ
  Basis Set:
  @DF-RHF Final Energy:  -340.87237227615458
    Total Energy =                       -340.8723722761544650
  Basis Set: CC-PVTZ
  Basis Set:
  Charge       = 0
  Multiplicity = 1
  Basis Set: CC-PVTZ
  Basis Set:

    Orbital Energies (a.u.)
    -----------------------

    Doubly Occupied:

       1A    -15.580716     2A    -15.576192     3A    -11.278272
       4A    -11.272949     5A    -11.268274     6A    -11.268226
       7A    -11.231642     8A    -11.216114     9A     -1.316302
      10A     -1.224348    11A     -1.086146    12A     -1.015250
      13A     -0.907272    14A     -0.895031    15A     -0.829184
      16A     -0.719580    17A     -0.712737    18A     -0.660023
      19A     -0.615581    20A     -0.604064    21A     -0.582697
      22A     -0.562906    23A     -0.523953    24A     -0.506707
      25A     -0.500869    26A     -0.489992    27A     -0.433131
      28A     -0.397817    29A     -0.347099

  @DF-RHF Final Energy:  -340.87237243313717

   => Energetics <=

    Nuclear Repulsion Energy =            350.5999511575328711
    One-Electron Energy =               -1155.6984985036112903
    Two-Electron Energy =                 464.2261749129411328
    DFT Exchange-Correlation Energy =       0.0000000000000000
    Empirical Dispersion Energy =           0.0000000000000000
    PCM Polarization Energy =               0.0000000000000000
    EFP Energy =                            0.0000000000000000
    Total Energy =                       -340.8723724331373433
    Molecular point group: c1
  Basis Set: CC-PVTZ
  Basis Set:

  -Total Gradient:
     Atom            X                  Y                   Z
    ------   -----------------  -----------------  -----------------
       1       -0.000003649495     0.000000351232    -0.000005973671
       2       -0.000014657788    -0.000004133134     0.000018241147
       3       -0.000035319117     0.000019855570    -0.000187920514
       4       -0.000001123940    -0.000013657290    -0.000007361059
       5        0.000050140647    -0.000012858792     0.000222930017
       6        0.000000798946    -0.000000846923     0.000001864378
       7        0.000011858752     0.000005586386    -0.000001124423
       8       -0.000007873798     0.000005889717    -0.000008742716
       9        0.000038756079    -0.000049729367     0.000160986253
      10        0.000001346666    -0.000000459531     0.000001392351
      11        0.000000906639     0.000002719285    -0.000000487950
      12       -0.000038591042     0.000053344752    -0.000192807661
      13       -0.000003980955     0.000001981591    -0.000003741454
      14        0.000000960173     0.000000603138    -0.000000297508
      15       -0.000000486001    -0.000002641617     0.000006673776
      16        0.000000914239    -0.000006005017    -0.000003630966

  **** Optimization is complete! (in 6 steps) ****
    Final optimized geometry and variables:
    Molecular point group: c1

    Geometry (in Angstrom), charge = 0, multiplicity = 1:

    H           -1.671462063884    -2.240009845234     0.349127174145
    C           -1.269100196606    -1.244488156181     0.341306435476
    N            0.016792129110    -1.113858094112     0.106486284112
    C           -2.080911970115    -0.151349178561     0.572411727528
    C            0.518385729894     0.105648981472     0.098044007947
    H           -3.130208620238    -0.270179147814     0.763613436254
    N           -1.593905658397     1.069473640660     0.567025955194
    C           -0.307788928649     1.197175808832     0.332694271013
    C            1.989734095720     0.262029747539    -0.181717027592
    H            0.091774601750     2.193724595792     0.330208677485
    C            2.361801462190    -0.114851061344    -1.616345112853
    H            2.285639769364     1.285169789972     0.017439092364
    H            2.534813523528    -0.370279253122     0.509227642604
    H            3.429653099824    -0.014333130860    -1.769602134608
    H            1.858011656964     0.526370863019    -2.330858770403
    H            2.082238346166    -1.138717699371    -1.826164739010

  Mulliken Charges: (a.u.)
   Center  Symbol    Alpha    Beta     Spin     Total
       1     H     0.41380  0.41380  0.00000  0.17239
       2     C     3.04358  3.04358  0.00000 -0.08716
       3     N     3.59751  3.59751  0.00000 -0.19502
       4     C     3.04758  3.04758  0.00000 -0.09516
       5     C     2.93808  2.93808  0.00000  0.12384
       6     H     0.41368  0.41368  0.00000  0.17265
       7     N     3.58667  3.58667  0.00000 -0.17333
       8     C     3.07856  3.07856  0.00000 -0.15711
       9     C     3.07674  3.07674  0.00000 -0.15348
      10     H     0.41580  0.41580  0.00000  0.16841
      11     C     3.14463  3.14463  0.00000 -0.28925
      12     H     0.44959  0.44959  0.00000  0.10082
      13     H     0.44538  0.44538  0.00000  0.10924
      14     H     0.44964  0.44964  0.00000  0.10072
      15     H     0.45390  0.45390  0.00000  0.09219
      16     H     0.44487  0.44487  0.00000  0.11026

   Total alpha = 29.00000, Total beta = 29.00000, Total charge = -0.00000
