                              Psi4 1.0.54 Driver

  ==> Input File <==

--------------------------------------------------------------------------
set {
	reference rhf
	basis cc-pvtz
}

set_num_threads( 4 )
memory 2 gb

molecule MOL {
0 1

O	 -2.081319	 -0.951530	 -0.502732
N	 -1.613558	 0.006676	 0.014756
C	 -0.329345	 -0.171618	 0.743966
O	 -2.068523	 1.100482	 -0.024385
C	 0.835904	 0.041968	 -0.213982
H	 -0.346048	 -1.174374	 1.137184
H	 -0.333613	 0.555559	 1.538590
C	 1.247158	 1.510918	 -0.270747
H	 1.673296	 -0.565196	 0.109567
H	 0.547233	 -0.300442	 -1.200979
C	 2.408055	 1.753549	 -1.228833
H	 1.523301	 1.847175	 0.724298
H	 0.395755	 2.112613	 -0.574856
H	 3.285173	 1.190196	 -0.930512
H	 2.149963	 1.455461	 -2.238906
H	 2.678835	 2.802043	 -1.251205

	symmetry c1
}
set optking {
	frozen_dihedral = ("
		9 5 3 2
	")
}

ee,wfn = optimize('scf', return_wfn=True)
oeprop( wfn, 'DIPOLE', 'QUADRUPOLE', 'MULLIKEN_CHARGES')
f=open( 'psi4out.xyz', 'w' )
f.write( "16  " )
f.write( str(ee) + "\n" )
f.write( MOL.save_string_xyz() )
f.close()
--------------------------------------------------------------------------

    Molecular point group: c1
  Charge       = 0
  Multiplicity = 1
  Basis Set: CC-PVTZ
  Basis Set:
  @DF-RHF Final Energy:  -360.90634798111699
    Total Energy =                       -360.9063479811167099
    Molecular point group: c1
  Basis Set: CC-PVTZ
  Basis Set:
  Basis Set: CC-PVTZ
  Basis Set:
  @DF-RHF Final Energy:  -360.90616183461566
    Total Energy =                       -360.9061618346157729
  Basis Set: CC-PVTZ
  Basis Set:
  Basis Set: CC-PVTZ
  Basis Set:
  @DF-RHF Final Energy:  -360.89910789395282
    Total Energy =                       -360.8991078939524755
  Basis Set: CC-PVTZ
  Basis Set:
  Basis Set: CC-PVTZ
  Basis Set:
  @DF-RHF Final Energy:  -360.90683863885448
    Total Energy =                       -360.9068386388545377
  Basis Set: CC-PVTZ
  Basis Set:
  @DF-RHF Final Energy:  -360.90697429176191
    Total Energy =                       -360.9069742917619692
  @DF-RHF Final Energy:  -360.90711187074533
    Total Energy =                       -360.9071118707455526
  @DF-RHF Final Energy:  -360.90715156016631
    Total Energy =                       -360.9071515601663123
  @DF-RHF Final Energy:  -360.90716977390503
    Total Energy =                       -360.9071697739046840
  Basis Set: CC-PVTZ
  Basis Set:
  @DF-RHF Final Energy:  -360.90720142292218
    Total Energy =                       -360.9072014229220713
  Basis Set: CC-PVTZ
  Basis Set:
  Basis Set: CC-PVTZ
  Basis Set:
  @DF-RHF Final Energy:  -360.90721111343873
    Total Energy =                       -360.9072111134390184
  Basis Set: CC-PVTZ
  Basis Set:
  Basis Set: CC-PVTZ
  Basis Set:
  @DF-RHF Final Energy:  -360.90721249471289
    Total Energy =                       -360.9072124947126667
  Basis Set: CC-PVTZ
  Basis Set:
  Charge       = 0
  Multiplicity = 1
  Basis Set: CC-PVTZ
  Basis Set:

    Orbital Energies (a.u.)
    -----------------------

    Doubly Occupied:

       1A    -20.591892     2A    -20.588711     3A    -15.836569
       4A    -11.296913     5A    -11.250056     6A    -11.235067
       7A    -11.222146     8A     -1.635686     9A     -1.419893
      10A     -1.134248    11A     -1.056043    12A     -0.947840
      13A     -0.850469    14A     -0.820835    15A     -0.762539
      16A     -0.737951    17A     -0.728386    18A     -0.648162
      19A     -0.637154    20A     -0.602612    21A     -0.565827
      22A     -0.552758    23A     -0.507104    24A     -0.495850
      25A     -0.494588    26A     -0.483353    27A     -0.472866
      28A     -0.452264

  @DF-RHF Final Energy:  -360.90721300243854

   => Energetics <=

    Nuclear Repulsion Energy =            317.7046701288538770
    One-Electron Energy =               -1121.1681996366264684
    Two-Electron Energy =                 442.5563165053340526
    DFT Exchange-Correlation Energy =       0.0000000000000000
    Empirical Dispersion Energy =           0.0000000000000000
    PCM Polarization Energy =               0.0000000000000000
    EFP Energy =                            0.0000000000000000
    Total Energy =                       -360.9072130024385388
    Molecular point group: c1
  Basis Set: CC-PVTZ
  Basis Set:

  -Total Gradient:
     Atom            X                  Y                   Z
    ------   -----------------  -----------------  -----------------
       1       -0.000013141643    -0.000026502240    -0.000029023223
       2        0.000130547018    -0.002627713384    -0.000901098000
       3       -0.000421855940     0.003004902504     0.000721883372
       4        0.000023932882    -0.000011855968    -0.000004102094
       5        0.001337702919     0.002337287529     0.002667126106
       6        0.000008060815     0.000006742319    -0.000004909348
       7        0.000011594060     0.000002496947     0.000008758790
       8       -0.000006376278     0.000002442521     0.000006262007
       9       -0.001058832888    -0.002684923220    -0.002465841626
      10       -0.000006647657     0.000002007101     0.000001340944
      11       -0.000001644098    -0.000004956899     0.000000330143
      12       -0.000003545898     0.000001175995     0.000001191442
      13        0.000000816551    -0.000000080573    -0.000004520977
      14        0.000000776919    -0.000001209006    -0.000001162973
      15        0.000000687395     0.000000634044    -0.000000035491
      16       -0.000002074161    -0.000000447665     0.000003800927

  **** Optimization is complete! (in 12 steps) ****
    Final optimized geometry and variables:
    Molecular point group: c1

    Geometry (in Angstrom), charge = 0, multiplicity = 1:

    O           -1.614761553940    -1.346820543365    -0.630419694279
    N           -1.338209042267    -0.541442275736     0.194471291955
    C           -0.041144775270    -0.721714006236     0.906805350380
    O           -2.002109017803     0.395759544197     0.487226788425
    C            1.130547173493    -0.347713472189    -0.001974029367
    H           -0.014577047191    -1.767921239536     1.163782804659
    H           -0.094686900699    -0.113506917975     1.793166495855
    C            1.486038166025     1.135486988833     0.019236728475
    H            1.978947906565    -0.954521594063     0.293844388228
    H            0.891819473522    -0.664109223725    -1.010516908129
    C            2.637989389496     1.470805346718    -0.921119817663
    H            1.747473163016     1.426432883998     1.032388759077
    H            0.613132359291     1.720094603709    -0.251614460904
    H            3.534119539442     0.919697794967    -0.656163321133
    H            2.389176160505     1.224783190839    -1.947521999646
    H            2.875083869251     2.526880791908    -0.881946768402

  Mulliken Charges: (a.u.)
   Center  Symbol    Alpha    Beta     Spin     Total
       1     O     4.17421  4.17421  0.00000 -0.34843
       2     N     3.27648  3.27648  0.00000  0.44704
       3     C     3.04957  3.04957  0.00000 -0.09915
       4     O     4.17144  4.17144  0.00000 -0.34289
       5     C     3.10450  3.10450  0.00000 -0.20900
       6     H     0.42652  0.42652  0.00000  0.14695
       7     H     0.43376  0.43376  0.00000  0.13248
       8     C     3.08481  3.08481  0.00000 -0.16962
       9     H     0.44502  0.44502  0.00000  0.10996
      10     H     0.43676  0.43676  0.00000  0.12648
      11     C     3.14985  3.14985  0.00000 -0.29969
      12     H     0.45282  0.45282  0.00000  0.09437
      13     H     0.44325  0.44325  0.00000  0.11351
      14     H     0.45496  0.45496  0.00000  0.09009
      15     H     0.45139  0.45139  0.00000  0.09721
      16     H     0.44466  0.44466  0.00000  0.11068

   Total alpha = 28.00000, Total beta = 28.00000, Total charge = -0.00000

*** Psi4 exiting successfully. Buy a developer a beer!
