  ==> Input File <==

--------------------------------------------------------------------------
set {
	reference rhf
	basis 6-31G*
}

set_num_threads( 4 )
memory 2 gb

molecule MOL {
0 1

H	 -1.225694	 1.583239	 2.991974
O	 -0.967249	 1.060743	 2.246391
C	 -0.355481	 1.881142	 1.283140
C	 0.031547	 1.023609	 0.088541
H	 0.537948	 2.348598	 1.693212
H	 -1.028156	 2.680269	 0.979819
C	 -1.134819	 0.293262	 -0.585751
H	 0.760235	 0.291103	 0.424306
H	 0.535666	 1.661224	 -0.635704
C	 -1.917817	 -0.639439	 0.339494
H	 -0.758119	 -0.268455	 -1.433105
H	 -1.813832	 1.041889	 -0.986690
H	 -2.777680	 -1.057197	 -0.174994
H	 -1.310268	 -1.471279	 0.680599
H	 -2.283753	 -0.111424	 1.216626

	symmetry c1
}
set optking {
	frozen_dihedral = ("
		8 4 7 11
	")
}

ee = optimize('scf')
oeprop('DIPOLE', 'QUADRUPOLE', 'MULLIKEN_CHARGES')
f=open( 'psi4out.xyz', 'w' )
f.write( "15  " )
f.write( str(ee) + "\n" )
f.write( MOL.save_string_xyz() )
f.close()
--------------------------------------------------------------------------

    Molecular point group: c1
  Charge       = 0
  Multiplicity = 1
  Basis Set: 6-31G*
  Basis Set:
  @DF-RHF Final Energy:  -232.13595079678359
    Total Energy =                       -232.1359507967835043
    Molecular point group: c1
  Basis Set: 6-31G*
  Basis Set:
  Basis Set: 6-31G*
  Basis Set:
  @DF-RHF Final Energy:  -232.14093823746964
    Total Energy =                       -232.1409382374695269
  Basis Set: 6-31G*
  Basis Set:
  Basis Set: 6-31G*
  Basis Set:
  @DF-RHF Final Energy:  -232.14195000686723
    Total Energy =                       -232.1419500068672619
  Basis Set: 6-31G*
  Basis Set:
  Basis Set: 6-31G*
  Basis Set:
  @DF-RHF Final Energy:  -232.14211783376038
    Total Energy =                       -232.1421178337604374
  Basis Set: 6-31G*
  Basis Set:
  Basis Set: 6-31G*
  Basis Set:
  @DF-RHF Final Energy:  -232.14218839685623
    Total Energy =                       -232.1421883968561133
  Basis Set: 6-31G*
  Basis Set:
  Basis Set: 6-31G*
  Basis Set:
  @DF-RHF Final Energy:  -232.14220247901324
    Total Energy =                       -232.1422024790130649
  Basis Set: 6-31G*
  Basis Set:
  Charge       = 0
  Multiplicity = 1
  Basis Set: 6-31G*
  Basis Set:

    Orbital Energies (a.u.)
    -----------------------

    Doubly Occupied:

       1A    -20.553659     2A    -11.269039     3A    -11.213397
       4A    -11.211839     5A    -11.195108     6A     -1.360428
       7A     -1.062137     8A     -0.969605     9A     -0.863296
      10A     -0.777108    11A     -0.703147    12A     -0.647217
      13A     -0.604704    14A     -0.573945    15A     -0.552328
      16A     -0.538055    17A     -0.506822    18A     -0.471226
      19A     -0.466015    20A     -0.452524    21A     -0.426830

  @DF-RHF Final Energy:  -232.14220326708022

   => Energetics <=

    Nuclear Repulsion Energy =            192.5028474681614057
    One-Electron Energy =                -696.4532451867085001
    Two-Electron Energy =                 271.8081944514668180
    DFT Exchange-Correlation Energy =       0.0000000000000000
    Empirical Dispersion Energy =           0.0000000000000000
    PCM Polarization Energy =               0.0000000000000000
    EFP Energy =                            0.0000000000000000
    Total Energy =                       -232.1422032670802764
    Molecular point group: c1
  Basis Set: 6-31G*
  Basis Set:

  -Total Gradient:
     Atom            X                  Y                   Z
    ------   -----------------  -----------------  -----------------
       1       -0.000004561311    -0.000013074879     0.000030801596
       2       -0.000013873244     0.000095843881     0.000018940411
       3        0.000058848654    -0.000101688304     0.000032913760
       4       -0.000904158316    -0.000322513862     0.001666969118
       5       -0.000011454960     0.000015675733     0.000035521110
       6        0.000006173097    -0.000013769075    -0.000003062268
       7        0.000017400463     0.001403122008    -0.001354032857
       8        0.000725296352     0.000117695247    -0.001229273633
       9        0.000024849104    -0.000003649917    -0.000022537327
      10       -0.000024510189    -0.000003711913     0.000005875481
      11        0.000135057022    -0.001144406883     0.000821371825
      12       -0.000005900071    -0.000004904948    -0.000005219037
      13       -0.000002843400    -0.000017496999     0.000010518307
      14        0.000001154878    -0.000004942694    -0.000002599473
      15       -0.000001478079    -0.000002177396    -0.000006187013

  **** Optimization is complete! (in 7 steps) ****
    Final optimized geometry and variables:
    Molecular point group: c1

    Geometry (in Angstrom), charge = 0, multiplicity = 1:

    H           -0.114726952455     0.950352632455     2.369875535434
    O            0.120726673748     0.380333839859     1.651671778401
    C            0.490977687400     1.154788973188     0.538673182017
    C            0.864236790339     0.244462501343    -0.621885378225
    H            1.345609599982     1.780281380137     0.789841112740
    H           -0.322289703059     1.817503683281     0.244245169672
    C           -0.299065866594    -0.439043782525    -1.351427584046
    H            1.570716380449    -0.499694530592    -0.263769035311
    H            1.402877456004     0.852198350498    -1.346699359127
    C           -1.134623951124    -1.405249871726    -0.508963787124
    H            0.118596530337    -0.991566190207    -2.189909933871
    H           -0.947637364808     0.323175452433    -1.779361823843
    H           -1.873166907124    -1.903352031791    -1.130849841306
    H           -0.508556448727    -2.168866810130    -0.057645316749
    H           -1.653050083144    -0.897164985166     0.293198486246

  Mulliken Charges: (a.u.)
   Center  Symbol    Alpha    Beta     Spin     Total
       1     H     0.28098  0.28098  0.00000  0.43803
       2     O     4.36815  4.36815  0.00000 -0.73629
       3     C     2.99714  2.99714  0.00000  0.00573
       4     C     3.16048  3.16048  0.00000 -0.32096
       5     H     0.42941  0.42941  0.00000  0.14119
       6     H     0.43262  0.43262  0.00000  0.13476
       7     C     3.15381  3.15381  0.00000 -0.30763
       8     H     0.41359  0.41359  0.00000  0.17282
       9     H     0.42275  0.42275  0.00000  0.15450
      10     C     3.23402  3.23402  0.00000 -0.46804
      11     H     0.42201  0.42201  0.00000  0.15597
      12     H     0.42601  0.42601  0.00000  0.14798
      13     H     0.42663  0.42663  0.00000  0.14675
      14     H     0.42078  0.42078  0.00000  0.15845
      15     H     0.41163  0.41163  0.00000  0.17674

   Total alpha = 21.00000, Total beta = 21.00000, Total charge = -0.00000
