                              Psi4 1.0.54 Driver

  ==> Input File <==

--------------------------------------------------------------------------
set {
	reference rhf
	basis cc-pvtz
}

set_num_threads( 4 )
memory 2 gb

molecule MOL {
0 1

H	 -0.890513	 2.406703	 0.396520
C	 -0.775000	 1.356832	 0.228108
C	 -1.901098	 0.499056	 0.015321
C	 0.438484	 0.799917	 0.209820
H	 -2.890702	 0.915907	 0.024049
C	 -1.728683	 -0.809949	 -0.192901
H	 1.329389	 1.376566	 0.361162
N	 0.640204	 -0.530428	 -0.000115
H	 -2.546891	 -1.480817	 -0.355479
C	 -0.404154	 -1.413670	 -0.212317
C	 2.006991	 -1.033007	 -0.000020
O	 -0.208720	 -2.584262	 -0.396060
H	 2.182444	 -1.636914	 -0.880881
H	 2.678769	 -0.195442	 -0.002236
H	 2.183828	 -1.633244	 0.883082

	symmetry c1
}
set optking {
	frozen_dihedral = ("
		10 8 11 13
	")
}

ee,wfn = optimize('scf', return_wfn=True)
oeprop( wfn, 'DIPOLE', 'QUADRUPOLE', 'MULLIKEN_CHARGES')
f=open( 'psi4out.xyz', 'w' )
f.write( "15  " )
f.write( str(ee) + "\n" )
f.write( MOL.save_string_xyz() )
f.close()
--------------------------------------------------------------------------

    Molecular point group: c1
  Charge       = 0
  Multiplicity = 1
  Basis Set: CC-PVTZ
  Basis Set:
  @DF-RHF Final Energy:  -360.72290751932314
    Total Energy =                       -360.7229075193232575
    Molecular point group: c1
  Basis Set: CC-PVTZ
  Basis Set:
  Basis Set: CC-PVTZ
  Basis Set:
  @DF-RHF Final Energy:  -360.72349882353802
    Total Energy =                       -360.7234988235379660
  Basis Set: CC-PVTZ
  Basis Set:
  Basis Set: CC-PVTZ
  Basis Set:
  @DF-RHF Final Energy:  -360.72355727981414
    Total Energy =                       -360.7235572798142016
  Basis Set: CC-PVTZ
  Basis Set:
  Basis Set: CC-PVTZ
  Basis Set:
  @DF-RHF Final Energy:  -360.72354395749051
    Total Energy =                       -360.7235439574906195
  Basis Set: CC-PVTZ
  Basis Set:
  Charge       = 0
  Multiplicity = 1
  Basis Set: CC-PVTZ
  Basis Set:

    Orbital Energies (a.u.)
    -----------------------

    Doubly Occupied:

       1A    -20.501996     2A    -15.617857     3A    -11.337591
       4A    -11.294645     5A    -11.266003     6A    -11.258157
       7A    -11.229467     8A    -11.227767     9A     -1.391347
      10A     -1.285934    11A     -1.118844    12A     -1.029366
      13A     -0.972659    14A     -0.876644    15A     -0.839005
      16A     -0.719689    17A     -0.702027    18A     -0.664055
      19A     -0.653285    20A     -0.626356    21A     -0.611938
      22A     -0.575493    23A     -0.552075    24A     -0.551063
      25A     -0.531441    26A     -0.484863    27A     -0.420468
      28A     -0.410697    29A     -0.310031

  @DF-RHF Final Energy:  -360.72356282459924

   => Energetics <=

    Nuclear Repulsion Energy =            358.8949036975428157
    One-Electron Energy =               -1201.1154025159107732
    Two-Electron Energy =                 481.4969359937687159
    DFT Exchange-Correlation Energy =       0.0000000000000000
    Empirical Dispersion Energy =           0.0000000000000000
    PCM Polarization Energy =               0.0000000000000000
    EFP Energy =                            0.0000000000000000
    Total Energy =                       -360.7235628245992984
    Molecular point group: c1
  Basis Set: CC-PVTZ
  Basis Set:

  -Total Gradient:
     Atom            X                  Y                   Z
    ------   -----------------  -----------------  -----------------
       1       -0.000014014952     0.000003492070     0.000007084816
       2        0.000184146788    -0.000081575157     0.000013672599
       3       -0.000108202681    -0.000138766942    -0.000030662544
       4       -0.000155742887     0.000227105506    -0.000008224369
       5        0.000017200943     0.000020924197     0.000004781005
       6       -0.000148049084     0.000101001027     0.000029830435
       7        0.000024845978    -0.000054506177     0.000002458534
       8       -0.000139924941    -0.000456312555     0.000726984574
       9        0.000014886779    -0.000008448491    -0.000004046222
      10        0.000319189026     0.000385057039    -0.000488240013
      11        0.000230645314     0.000588573707    -0.000590801230
      12       -0.000052409669    -0.000155311617     0.000017377408
      13       -0.000176154767    -0.000452143683     0.000334985084
      14       -0.000004419138     0.000010265887     0.000008406860
      15        0.000008003293     0.000010645188    -0.000023606939

  **** Optimization is complete! (in 5 steps) ****
    Final optimized geometry and variables:
    Molecular point group: c1

    Geometry (in Angstrom), charge = 0, multiplicity = 1:

    H           -0.735449881100     2.915215423654     0.466163602144
    C           -0.607036593134     1.867930083970     0.291244311915
    C           -1.722804311255     0.997374410641     0.083167946370
    C            0.616478036622     1.330206019506     0.257070657590
    H           -2.717077377744     1.402664623943     0.102377510291
    C           -1.537334795418    -0.309447850906    -0.134216909923
    H            1.498294827226     1.920597696121     0.402125746710
    N            0.829655222242     0.005502497930     0.036345616903
    H           -2.348439540544    -0.989921652603    -0.292967812834
    C           -0.205023905672    -0.889807408130    -0.161554841067
    C            2.180292576107    -0.534230571447     0.013057106299
    O            0.025490376013    -2.055555865447    -0.337423977377
    H            2.316886084634    -1.139647478432    -0.868332606569
    H            2.886122256357     0.281993164768     0.010139490220
    H            2.353907121057    -1.159098269332     0.877934666298

  Mulliken Charges: (a.u.)
   Center  Symbol    Alpha    Beta     Spin     Total
       1     H     0.41401  0.41401  0.00000  0.17198
       2     C     3.10687  3.10687  0.00000 -0.21374
       3     C     3.05934  3.05934  0.00000 -0.11867
       4     C     3.03883  3.03883  0.00000 -0.07766
       5     H     0.41843  0.41843  0.00000  0.16314
       6     C     3.11840  3.11840  0.00000 -0.23680
       7     H     0.41902  0.41902  0.00000  0.16196
       8     N     3.50845  3.50845  0.00000 -0.01690
       9     H     0.40934  0.40934  0.00000  0.18131
      10     C     2.84566  2.84566  0.00000  0.30868
      11     C     3.09217  3.09217  0.00000 -0.18435
      12     O     4.23569  4.23569  0.00000 -0.47138
      13     H     0.43577  0.43577  0.00000  0.12846
      14     H     0.45530  0.45530  0.00000  0.08941
      15     H     0.44272  0.44272  0.00000  0.11457

   Total alpha = 29.00000, Total beta = 29.00000, Total charge = -0.00000

*** Psi4 exiting successfully. Buy a developer a beer!
