  ==> Input File <==

--------------------------------------------------------------------------
set {
	reference rhf
	basis 6-31G*
}

set_num_threads( 1 )
memory 2 gb

molecule MOL {
0 1

H	 -2.364819	 -0.990301	 1.306589
C	 -2.563450	 -0.666347	 0.286912
O	 -1.392607	 -0.295399	 -0.366433
H	 -2.997317	 -1.489612	 -0.263666
H	 -3.281234	 0.152314	 0.318659
C	 -0.719715	 0.768384	 0.229244
C	 0.719720	 0.768376	 -0.229267
H	 -1.185038	 1.714362	 -0.050570
H	 -0.750528	 0.687237	 1.313896
O	 1.392611	 -0.295398	 0.366430
H	 0.750534	 0.687200	 -1.313918
H	 1.185043	 1.714359	 0.050526
C	 2.706965	 -0.449871	 -0.062409
H	 2.756559	 -0.644779	 -1.131878
H	 3.305899	 0.433456	 0.155466
H	 3.125548	 -1.294566	 0.467107

	symmetry c1
}
set optking {
	frozen_dihedral = ("
		3 6 7 11,
		7 10 13 14
	")
}

ee = energy('scf')
oeprop('DIPOLE', 'QUADRUPOLE', 'MULLIKEN_CHARGES')
f=open( 'psi4out.xyz', 'w' )
f.write( "16  " )
f.write( str(ee) + "\n" )
f.write( MOL.save_string_xyz() )
f.close()
--------------------------------------------------------------------------

    Molecular point group: c1

    Geometry (in Angstrom), charge = 0, multiplicity = 1:

       Center              X                  Y                   Z               Mass
    ------------   -----------------  -----------------  -----------------  -----------------
           H         -2.390035623592    -0.952263263541     1.267145596621     1.007825032070
           C         -2.588666623592    -0.628309263541     0.247468596621    12.000000000000
           O         -1.417823623592    -0.257361263541    -0.405876403379    15.994914619560
           H         -3.022533623592    -1.451574263541    -0.303109403379     1.007825032070
           H         -3.306450623592     0.190351736459     0.279215596621     1.007825032070
           C         -0.744931623592     0.806421736459     0.189800596621    12.000000000000
           C          0.694503376408     0.806413736459    -0.268710403379    12.000000000000
           H         -1.210254623592     1.752399736459    -0.090013403379     1.007825032070
           H         -0.775744623592     0.725274736459     1.274452596621     1.007825032070
           O          1.367394376408    -0.257360263541     0.326986596621    15.994914619560
           H          0.725317376408     0.725237736459    -1.353361403379     1.007825032070
           H          1.159826376408     1.752396736459     0.011082596621     1.007825032070
           C          2.681748376408    -0.411833263541    -0.101852403379    12.000000000000
           H          2.731342376408    -0.606741263541    -1.171321403379     1.007825032070
           H          3.280682376408     0.471493736459     0.116022596621     1.007825032070
           H          3.100331376408    -1.256528263541     0.427663596621     1.007825032070

  Charge       = 0
  Multiplicity = 1
  Basis Set: 6-31G*
  Basis Set:

    Orbital Energies (a.u.)
    -----------------------

    Doubly Occupied:

       1A    -20.553878     2A    -20.552906     3A    -11.268709
       4A    -11.268041     5A    -11.263845     6A    -11.262885
       7A     -1.388316     8A     -1.370474     9A     -1.030502
      10A     -0.936371    11A     -0.891372    12A     -0.824154
      13A     -0.682863    14A     -0.681211    15A     -0.657034
      16A     -0.634072    17A     -0.630522    18A     -0.598366
      19A     -0.546997    20A     -0.537390    21A     -0.509745
      22A     -0.477966    23A     -0.462686    24A     -0.418215
      25A     -0.410761

  @DF-RHF Final Energy:  -306.97723017920066

   => Energetics <=

    Nuclear Repulsion Energy =            259.4042691077685276
    One-Electron Energy =                -933.0443500772844345
    Two-Electron Energy =                 366.6628507903154173
    DFT Exchange-Correlation Energy =       0.0000000000000000
    Empirical Dispersion Energy =           0.0000000000000000
    PCM Polarization Energy =               0.0000000000000000
    EFP Energy =                            0.0000000000000000
    Total Energy =                       -306.9772301792004896

  Mulliken Charges: (a.u.)
   Center  Symbol    Alpha    Beta     Spin     Total
       1     H     0.42647  0.42647  0.00000  0.14706
       2     C     3.08002  3.08002  0.00000 -0.16004
       3     O     4.30130  4.30130  0.00000 -0.60259
       4     H     0.41197  0.41197  0.00000  0.17607
       5     H     0.43204  0.43204  0.00000  0.13592
       6     C     2.99394  2.99394  0.00000  0.01212
       7     C     2.99329  2.99329  0.00000  0.01342
       8     H     0.43052  0.43052  0.00000  0.13895
       9     H     0.42325  0.42325  0.00000  0.15350
      10     O     4.30139  4.30139  0.00000 -0.60279
      11     H     0.42254  0.42254  0.00000  0.15492
      12     H     0.43258  0.43258  0.00000  0.13484
      13     C     3.07951  3.07951  0.00000 -0.15903
      14     H     0.42795  0.42795  0.00000  0.14410
      15     H     0.43172  0.43172  0.00000  0.13656
      16     H     0.41151  0.41151  0.00000  0.17698

   Total alpha = 25.00000, Total beta = 25.00000, Total charge =  0.00000
