  ==> Input File <==

--------------------------------------------------------------------------
set {
	reference rhf
	basis 6-31G*
}

set_num_threads( 4 )
memory 2 gb

molecule MOL {
0 1

H	 -2.365627	 -1.312883	 -0.379134
C	 -1.358347	 -1.274295	 0.019669
C	 -0.681945	 0.000119	 -0.470601
H	 -0.826096	 -2.155117	 -0.321105
H	 -1.409554	 -1.292283	 1.100109
C	 -1.357790	 1.274691	 0.020220
N	 0.739525	 -0.000142	 0.006128
H	 -0.594190	 0.000341	 -1.545128
H	 -2.364980	 1.313977	 -0.378631
H	 -0.825080	 2.155361	 -0.320114
H	 -1.409060	 1.292170	 1.100671
O	 0.924865	 -0.000416	 1.183511
O	 1.596359	 -0.000175	 -0.825278

	symmetry c1
}
set optking {
	frozen_dihedral = ("
		12 7 3 8
	")
}

ee = optimize('scf')
oeprop('DIPOLE', 'QUADRUPOLE', 'MULLIKEN_CHARGES')
f=open( 'psi4out.xyz', 'w' )
f.write( "13  " )
f.write( str(ee) + "\n" )
f.write( MOL.save_string_xyz() )
f.close()
--------------------------------------------------------------------------

    Molecular point group: c1
  Charge       = 0
  Multiplicity = 1
  Basis Set: 6-31G*
  Basis Set:
  @DF-RHF Final Energy:  -321.73921506175765
    Total Energy =                       -321.7392150617577045
    Molecular point group: c1
  Basis Set: 6-31G*
  Basis Set:
  Basis Set: 6-31G*
  Basis Set:
  @DF-RHF Final Energy:  -321.73922463206191
    Total Energy =                       -321.7392246320620188
  Basis Set: 6-31G*
  Basis Set:
  Basis Set: 6-31G*
  Basis Set:
  @DF-RHF Final Energy:  -321.73900458085609
    Total Energy =                       -321.7390045808562036
  Basis Set: 6-31G*
  Basis Set:
  Basis Set: 6-31G*
  Basis Set:
  @DF-RHF Final Energy:  -321.73922635354592
    Total Energy =                       -321.7392263535458028
  Basis Set: 6-31G*
  Basis Set:
  Charge       = 0
  Multiplicity = 1
  Basis Set: 6-31G*
  Basis Set:

    Orbital Energies (a.u.)
    -----------------------

    Doubly Occupied:

       1A    -20.601545     2A    -20.597710     3A    -15.842793
       4A    -11.305760     5A    -11.246138     6A    -11.246120
       7A     -1.628569     8A     -1.414062     9A     -1.143982
      10A     -0.974717    11A     -0.957885    12A     -0.814089
      13A     -0.749439    14A     -0.728236    15A     -0.722075
      16A     -0.650593    17A     -0.594832    18A     -0.588893
      19A     -0.571372    20A     -0.530047    21A     -0.523181
      22A     -0.482640    23A     -0.468683    24A     -0.447176

  @DF-RHF Final Energy:  -321.73922658724319

   => Energetics <=

    Nuclear Repulsion Energy =            256.7832961729588419
    One-Electron Energy =                -947.3839711600264764
    Two-Electron Energy =                 368.8614483998244395
    DFT Exchange-Correlation Energy =       0.0000000000000000
    Empirical Dispersion Energy =           0.0000000000000000
    PCM Polarization Energy =               0.0000000000000000
    EFP Energy =                            0.0000000000000000
    Total Energy =                       -321.7392265872431381
    Molecular point group: c1
  Basis Set: 6-31G*
  Basis Set:

  -Total Gradient:
     Atom            X                  Y                   Z
    ------   -----------------  -----------------  -----------------
       1        0.000001126318     0.000006521886    -0.000001278265
       2        0.000015007671    -0.000000463978     0.000011498321
       3       -0.000011605914     0.000004257404    -0.000011202130
       4       -0.000003232206     0.000001081305    -0.000000453538
       5        0.000002030481    -0.000007503587     0.000004028237
       6        0.000022008188    -0.000005822658     0.000006428542
       7        0.000045578811     0.000030646304    -0.000035996984
       8        0.000010103167    -0.000001567310    -0.000013035557
       9        0.000003484859    -0.000008894811    -0.000002067588
      10       -0.000003925226    -0.000000781205     0.000000287795
      11        0.000003947014     0.000003898749     0.000002611359
      12       -0.000038290888    -0.000011282227     0.000052103353
      13       -0.000046232278    -0.000010089869    -0.000012923543

  **** Optimization is complete! (in 5 steps) ****
    Final optimized geometry and variables:
    Molecular point group: c1

    Geometry (in Angstrom), charge = 0, multiplicity = 1:

    H           -2.365946870531    -1.312387423190    -0.377132065047
    C           -1.358161501489    -1.274196058914     0.020382281601
    C           -0.682118887483     0.000287560228    -0.470332761012
    H           -0.826586006748    -2.154996067245    -0.321433418696
    H           -1.407974869068    -1.292599587458     1.100910194760
    C           -1.357657638910     1.274790653414     0.020931923678
    N            0.739496384220    -0.000115195304     0.005744045981
    H           -0.594931618863     0.000483313230    -1.544896759534
    H           -2.365427894899     1.313529118009    -0.376560932083
    H           -0.825761980921     2.155554392504    -0.320477657743
    H           -1.407453936297     1.292704926604     1.101467033709
    O            0.922186909060    -0.000379926746     1.185616860084
    O            1.596785957672    -0.000325256746    -0.822270887219

  Mulliken Charges: (a.u.)
   Center  Symbol    Alpha    Beta     Spin     Total
       1     H     0.40814  0.40814  0.00000  0.18373
       2     C     3.24998  3.24998  0.00000 -0.49996
       3     C     3.02402  3.02402  0.00000 -0.04804
       4     H     0.40287  0.40287  0.00000  0.19426
       5     H     0.39666  0.39666  0.00000  0.20669
       6     C     3.24998  3.24998  0.00000 -0.49996
       7     N     3.21544  3.21544  0.00000  0.56912
       8     H     0.38518  0.38518  0.00000  0.22964
       9     H     0.40814  0.40814  0.00000  0.18373
      10     H     0.40287  0.40287  0.00000  0.19426
      11     H     0.39666  0.39666  0.00000  0.20669
      12     O     4.23197  4.23197  0.00000 -0.46394
      13     O     4.22811  4.22811  0.00000 -0.45621

   Total alpha = 24.00000, Total beta = 24.00000, Total charge = -0.00000
