                              Psi4 1.0.54 Driver

  ==> Input File <==

--------------------------------------------------------------------------
set {
	reference rhf
	basis cc-pvtz
}

set_num_threads( 4 )
memory 2 gb

molecule MOL {
0 1

O	 -0.933864	 1.636816	 2.352383
C	 -0.623103	 1.871110	 1.229902
C	 0.634575	 1.277495	 0.626647
C	 -1.468747	 2.752372	 0.341627
C	 0.376695	 -0.140025	 0.100361
H	 1.387153	 1.244941	 1.404257
H	 1.000611	 1.908239	 -0.176499
C	 1.630207	 -0.772146	 -0.501001
H	 0.002687	 -0.743040	 0.918114
H	 -0.406410	 -0.114271	 -0.653550
C	 2.907848	 -0.545876	 0.309149
H	 1.772784	 -0.391628	 -1.509394
H	 1.468529	 -1.842059	 -0.599744
C	 3.373802	 0.906639	 0.372125
H	 3.699140	 -1.146831	 -0.127906
H	 2.764321	 -0.923458	 1.318191
H	 3.519798	 1.311927	 -0.623875
H	 4.316899	 0.983758	 0.900700
H	 2.661122	 1.540651	 0.885346
H	 -0.928623	 3.669990	 0.131287
H	 -2.401614	 2.987545	 0.830526
H	 -1.658818	 2.267607	 -0.609406

	symmetry c1
}
set optking {
	frozen_dihedral = ("
		3 5 8 12
	")
}

ee,wfn = optimize('scf', return_wfn=True)
oeprop( wfn, 'DIPOLE', 'QUADRUPOLE', 'MULLIKEN_CHARGES')
f=open( 'psi4out.xyz', 'w' )
f.write( "22  " )
f.write( str(ee) + "\n" )
f.write( MOL.save_string_xyz() )
f.close()
--------------------------------------------------------------------------

    Molecular point group: c1
  Charge       = 0
  Multiplicity = 1
  Basis Set: CC-PVTZ
  Basis Set:
  @DF-RHF Final Energy:  -348.19241311425156
    Total Energy =                       -348.1924131142516217
    Molecular point group: c1
  Basis Set: CC-PVTZ
  Basis Set:
  Basis Set: CC-PVTZ
  Basis Set:
  @DF-RHF Final Energy:  -348.20989343587183
    Total Energy =                       -348.2098934358720044
  Basis Set: CC-PVTZ
  Basis Set:
  Basis Set: CC-PVTZ
  Basis Set:
  @DF-RHF Final Energy:  -348.21498596693294
    Total Energy =                       -348.2149859669329999
  Basis Set: CC-PVTZ
  Basis Set:
  Basis Set: CC-PVTZ
  Basis Set:
  @DF-RHF Final Energy:  -348.21631258182055
    Total Energy =                       -348.2163125818204321
  Basis Set: CC-PVTZ
  Basis Set:
  @DF-RHF Final Energy:  -348.21509312907773
    Total Energy =                       -348.2150931290775588
  @DF-RHF Final Energy:  -348.21716932413676
    Total Energy =                       -348.2171693241367620
  @DF-RHF Final Energy:  -348.21712582438880
    Total Energy =                       -348.2171258243889724
  @DF-RHF Final Energy:  -348.21741319500148
    Total Energy =                       -348.2174131950013134
  Basis Set: CC-PVTZ
  Basis Set:
  @DF-RHF Final Energy:  -348.21744643643603
    Total Energy =                       -348.2174464364356936
  Basis Set: CC-PVTZ
  Basis Set:
  Basis Set: CC-PVTZ
  Basis Set:
  @DF-RHF Final Energy:  -348.21744832122340
    Total Energy =                       -348.2174483212234009
  Basis Set: CC-PVTZ
  Basis Set:
  Basis Set: CC-PVTZ
  Basis Set:
  @DF-RHF Final Energy:  -348.21744983748863
    Total Energy =                       -348.2174498374886866
  Basis Set: CC-PVTZ
  Basis Set:
  Charge       = 0
  Multiplicity = 1
  Basis Set: CC-PVTZ
  Basis Set:

    Orbital Energies (a.u.)
    -----------------------

    Doubly Occupied:

       1A    -20.536805     2A    -11.319173     3A    -11.229244
       4A    -11.227171     5A    -11.226845     6A    -11.221171
       7A    -11.219669     8A    -11.211104     9A     -1.396924
      10A     -1.095645    11A     -1.043181    12A     -0.999757
      13A     -0.946583    14A     -0.857505    15A     -0.784777
      16A     -0.736224    17A     -0.658035    18A     -0.657183
      19A     -0.622033    20A     -0.609621    21A     -0.602156
      22A     -0.593205    23A     -0.558956    24A     -0.550545
      25A     -0.536555    26A     -0.524374    27A     -0.501261
      28A     -0.490952    29A     -0.468364    30A     -0.463269
      31A     -0.457130    32A     -0.398536

  @DF-RHF Final Energy:  -348.21744998001719

   => Energetics <=

    Nuclear Repulsion Energy =            379.6527913485739987
    One-Electron Energy =               -1224.2525748392654350
    Two-Electron Energy =                 496.3823335106742434
    DFT Exchange-Correlation Energy =       0.0000000000000000
    Empirical Dispersion Energy =           0.0000000000000000
    PCM Polarization Energy =               0.0000000000000000
    EFP Energy =                            0.0000000000000000
    Total Energy =                       -348.2174499800171361
    Molecular point group: c1
  Basis Set: CC-PVTZ
  Basis Set:

  -Total Gradient:
     Atom            X                  Y                   Z
    ------   -----------------  -----------------  -----------------
       1       -0.000001473738     0.000012254485    -0.000002500902
       2       -0.000003919740    -0.000023112476     0.000003613225
       3        0.000863616398    -0.000987832388     0.003035444907
       4        0.000003680556     0.000003654085     0.000001961656
       5       -0.001741404032     0.000543476940    -0.004746226700
       6       -0.000003299354    -0.000002253684     0.000005544029
       7        0.000000308284     0.000006538112    -0.000008658224
       8        0.002885317192     0.004144417131     0.003162446733
       9       -0.000000214051    -0.000001618146     0.000005956184
      10       -0.000003227065     0.000003039652    -0.000002034663
      11        0.000019223190    -0.000005037118    -0.000010067370
      12       -0.002007107001    -0.003688391298    -0.001451509531
      13       -0.000003555257    -0.000009116239     0.000001832910
      14       -0.000003484638     0.000013217108    -0.000003766057
      15       -0.000001148635     0.000003020026    -0.000001040342
      16       -0.000001756058    -0.000000831554    -0.000004369809
      17       -0.000004032587    -0.000002031890     0.000024454465
      18       -0.000015723406     0.000005462906    -0.000008262585
      19        0.000018424943    -0.000015101643    -0.000006038608
      20       -0.000000529177     0.000003413069     0.000003241536
      21        0.000000389562     0.000000945398     0.000000023464
      22       -0.000000085385    -0.000004112475    -0.000000044316

  **** Optimization is complete! (in 12 steps) ****
    Final optimized geometry and variables:
    Molecular point group: c1

    Geometry (in Angstrom), charge = 0, multiplicity = 1:

    O           -1.962822270980     0.619462096112     1.686395197578
    C           -1.630900395936     0.851351680107     0.569524252192
    C           -0.244831649509     0.488078421835     0.074421821656
    C           -2.570641230320     1.504660681562    -0.415953547080
    C           -0.216433106831    -0.970865421881    -0.401498675728
    H            0.437489177598     0.623845845010     0.900932864590
    H            0.048120793613     1.154273372597    -0.730183705545
    C            1.123212280003    -1.486940681345    -0.945698356073
    H           -0.508272712988    -1.587566574535     0.442005210525
    H           -0.973116792715    -1.121560730477    -1.165410185486
    C            2.381683160707    -1.193432494360    -0.117874710826
    H            1.257166576917    -1.155352525565    -1.972262213952
    H            1.014806036036    -2.564749025952    -1.020710171782
    C            3.101464401901     0.109496976942    -0.462690324964
    H            3.082246600343    -2.007593686827    -0.269879364001
    H            2.134374669066    -1.210491140391     0.939687010137
    H            3.404653479367     0.114353715062    -1.504355229215
    H            3.995567469799     0.222697138617     0.139836575158
    H            2.484291963076     0.982549650919    -0.297024205493
    H           -2.213062974661     2.505331816018    -0.637030734440
    H           -3.564543294961     1.562402682008     0.000431531017
    H           -2.589865251005     0.957355464520    -1.351488229564

  Mulliken Charges: (a.u.)
   Center  Symbol    Alpha    Beta     Spin     Total
       1     O     4.17721  4.17721  0.00000 -0.35442
       2     C     2.85865  2.85865  0.00000  0.28270
       3     C     3.10713  3.10713  0.00000 -0.21427
       4     C     3.15595  3.15595  0.00000 -0.31190
       5     C     3.10586  3.10586  0.00000 -0.21172
       6     H     0.43548  0.43548  0.00000  0.12904
       7     H     0.44750  0.44750  0.00000  0.10500
       8     C     3.09839  3.09839  0.00000 -0.19679
       9     H     0.44046  0.44046  0.00000  0.11908
      10     H     0.44559  0.44559  0.00000  0.10881
      11     C     3.10248  3.10248  0.00000 -0.20497
      12     H     0.45288  0.45288  0.00000  0.09424
      13     H     0.44398  0.44398  0.00000  0.11205
      14     C     3.14866  3.14866  0.00000 -0.29733
      15     H     0.44344  0.44344  0.00000  0.11313
      16     H     0.44792  0.44792  0.00000  0.10416
      17     H     0.45424  0.45424  0.00000  0.09153
      18     H     0.44625  0.44625  0.00000  0.10749
      19     H     0.45327  0.45327  0.00000  0.09346
      20     H     0.44821  0.44821  0.00000  0.10358
      21     H     0.43576  0.43576  0.00000  0.12848
      22     H     0.45067  0.45067  0.00000  0.09867

   Total alpha = 32.00000, Total beta = 32.00000, Total charge = -0.00000

*** Psi4 exiting successfully. Buy a developer a beer!
