  ==> Input File <==

--------------------------------------------------------------------------
set {
	reference rhf
	basis 6-31G*
}

set_num_threads( 4 )
memory 2 gb

molecule MOL {
0 1

O	 0.890900	 4.449719	 0.194007
C	 -0.195495	 4.931614	 0.295402
C	 -1.458496	 4.089151	 0.290832
C	 -0.384831	 6.428094	 0.436316
C	 -1.206306	 2.591363	 0.144998
H	 -2.003037	 4.300123	 1.210264
H	 -2.098151	 4.451897	 -0.512697
C	 -2.500612	 1.776173	 0.144844
H	 -0.560765	 2.259102	 0.951849
H	 -0.656195	 2.410957	 -0.773141
C	 -2.259874	 0.272531	 0.000494
H	 -3.048927	 1.964482	 1.066765
H	 -3.143966	 2.115616	 -0.665675
C	 -3.549786	 -0.549746	 -0.000374
H	 -1.617427	 -0.068026	 0.810618
H	 -1.712569	 0.083018	 -0.921210
C	 -4.809590	 0.315458	 -0.000369
H	 -3.560515	 -1.202009	 -0.871156
H	 -3.561123	 -1.202955	 0.869711
H	 -4.844746	 0.956611	 -0.876632
H	 -5.706986	 -0.295590	 -0.001609
H	 -4.845960	 0.954827	 0.877144
H	 -0.902515	 6.659048	 1.362750
H	 0.577895	 6.919959	 0.428489
H	 -0.994075	 6.810958	 -0.377239

	symmetry c1
}
set optking {
	frozen_dihedral = ("
		15 11 14 18
	")
}

ee = optimize('scf')
oeprop('DIPOLE', 'QUADRUPOLE', 'MULLIKEN_CHARGES')
f=open( 'psi4out.xyz', 'w' )
f.write( "25  " )
f.write( str(ee) + "\n" )
f.write( MOL.save_string_xyz() )
f.close()
--------------------------------------------------------------------------

    Molecular point group: c1
  Charge       = 0
  Multiplicity = 1
  Basis Set: 6-31G*
  Basis Set:
  @DF-RHF Final Energy:  -387.12229863212593
    Total Energy =                       -387.1222986321263306
    Molecular point group: c1
  Basis Set: 6-31G*
  Basis Set:
  Basis Set: 6-31G*
  Basis Set:
  @DF-RHF Final Energy:  -387.12224891497857
    Total Energy =                       -387.1222489149776038
  Basis Set: 6-31G*
  Basis Set:
  Basis Set: 6-31G*
  Basis Set:
  @DF-RHF Final Energy:  -387.12608749559035
    Total Energy =                       -387.1260874955901272
  Basis Set: 6-31G*
  Basis Set:
  Basis Set: 6-31G*
  Basis Set:
  @DF-RHF Final Energy:  -387.12662438354363
    Total Energy =                       -387.1266243835433443
  Basis Set: 6-31G*
  Basis Set:
  @DF-RHF Final Energy:  -387.12668370996130
    Total Energy =                       -387.1266837099607301
  @DF-RHF Final Energy:  -387.12669122886155
    Total Energy =                       -387.1266912288612048
  Basis Set: 6-31G*
  Basis Set:
  @DF-RHF Final Energy:  -387.12669366943692
    Total Energy =                       -387.1266936694369178
  Basis Set: 6-31G*
  Basis Set:
  Basis Set: 6-31G*
  Basis Set:
  @DF-RHF Final Energy:  -387.12669746659509
    Total Energy =                       -387.1266974665954876
  Basis Set: 6-31G*
  Basis Set:
  Basis Set: 6-31G*
  Basis Set:
  @DF-RHF Final Energy:  -387.12669901997924
    Total Energy =                       -387.1266990199792417
  Basis Set: 6-31G*
  Basis Set:
  Charge       = 0
  Multiplicity = 1
  Basis Set: 6-31G*
  Basis Set:

    Orbital Energies (a.u.)
    -----------------------

    Doubly Occupied:

       1A    -20.550377     2A    -11.326216     3A    -11.231740
       4A    -11.228281     5A    -11.216706     6A    -11.216088
       7A    -11.216025     8A    -11.214061     9A    -11.209088
      10A     -1.395678    11A     -1.091896    12A     -1.052748
      13A     -1.012940    14A     -0.966801    15A     -0.896988
      16A     -0.827066    17A     -0.771739    18A     -0.729023
      19A     -0.660778    20A     -0.651505    21A     -0.629675
      22A     -0.624019    23A     -0.596732    24A     -0.594557
      25A     -0.559640    26A     -0.556209    27A     -0.548650
      28A     -0.522295    29A     -0.511582    30A     -0.493624
      31A     -0.490936    32A     -0.478220    33A     -0.457796
      34A     -0.451842    35A     -0.447114    36A     -0.399408

  @DF-RHF Final Energy:  -387.12669984024092

   => Energetics <=

    Nuclear Repulsion Energy =            443.2501735793998705
    One-Electron Energy =               -1403.0976574889800759
    Two-Electron Energy =                 572.7207840693392882
    DFT Exchange-Correlation Energy =       0.0000000000000000
    Empirical Dispersion Energy =           0.0000000000000000
    PCM Polarization Energy =               0.0000000000000000
    EFP Energy =                            0.0000000000000000
    Total Energy =                       -387.1266998402409172
    Molecular point group: c1
  Basis Set: 6-31G*
  Basis Set:

  -Total Gradient:
     Atom            X                  Y                   Z
    ------   -----------------  -----------------  -----------------
       1        0.000000809416    -0.000001198845     0.000018750559
       2       -0.000002905448     0.000004234808    -0.000055707107
       3       -0.000000555976    -0.000001290057    -0.000002588100
       4        0.000000728534    -0.000001413329     0.000014030193
       5       -0.000002563759     0.000001702498    -0.000034131410
       6       -0.000000463753    -0.000000412505     0.000002425511
       7        0.000000654902     0.000000220493     0.000002444894
       8        0.000000271856     0.000011860076    -0.000024816815
       9       -0.000011394228     0.000013445437     0.000015517151
      10        0.000015764722    -0.000014591589     0.000011158223
      11        0.000921313781    -0.001257739306    -0.001773006564
      12        0.000037112017    -0.000016177976     0.000030727733
      13       -0.000031849068     0.000008144345     0.000037574480
      14        0.001000635502    -0.001405961427     0.001555752555
      15       -0.000960565505     0.001276974394     0.001249578036
      16        0.000024984126    -0.000001371541     0.000016704865
      17       -0.000005276443     0.000001201224     0.000000331637
      18       -0.000986651710     0.001381022898    -0.001067676767
      19        0.000000966543     0.000003763319     0.000001708014
      20       -0.000002317074    -0.000001837623    -0.000000865967
      21        0.000000366645     0.000000008064    -0.000000269864
      22        0.000000739988    -0.000000207686    -0.000000546316
      23       -0.000001475377     0.000001622022     0.000001287282
      24        0.000000087283    -0.000000109924     0.000000744993
      25        0.000001583020    -0.000001887782     0.000000872783

  **** Optimization is complete! (in 10 steps) ****
    Final optimized geometry and variables:
    Molecular point group: c1

    Geometry (in Angstrom), charge = 0, multiplicity = 1:

    O            2.654521505883     1.725943801410     0.021128637131
    C            1.581286910158     2.235538485119     0.127136350104
    C            0.297014463084     1.425812690069     0.128987504010
    C            1.431069968585     3.736446066902     0.268283575295
    C            0.510072786992    -0.078074570869    -0.017195037528
    H           -0.237435373109     1.651307270667     1.050895363748
    H           -0.336825047219     1.804696071518    -0.671666583518
    C           -0.805828529461    -0.859151875298    -0.011254383062
    H            1.150919807676    -0.425986911733     0.786836479938
    H            1.051620541536    -0.272561693761    -0.937600079869
    C           -0.575513311552    -2.367551268101    -0.162505151213
    H           -1.336903318265    -0.656839982988     0.916249625605
    H           -1.441487365960    -0.494209322114    -0.814160705548
    C           -1.835871702053    -3.277865984068    -0.168584210957
    H            0.073491873078    -2.677773241489     0.651936794460
    H           -0.010695617254    -2.532923041528    -1.075634162738
    C           -3.200001106299    -2.579849023598    -0.184600269205
    H           -1.793514989033    -3.923113344888    -1.041121061836
    H           -1.803737125545    -3.936515575538     0.693958437612
    H           -3.327953138187    -1.959188725562    -1.065596605248
    H           -3.992350495975    -3.322242514376    -0.193043252244
    H           -3.351033889206    -1.953635773513     0.688241659228
    H            0.924045014457     3.980857554516     1.197160861253
    H            2.406035424879     4.203463102587     0.255570866169
    H            0.827849608660     4.134612270643    -0.542413391533

  Mulliken Charges: (a.u.)
   Center  Symbol    Alpha    Beta     Spin     Total
       1     O     4.26119  4.26119  0.00000 -0.52237
       2     C     2.73570  2.73570  0.00000  0.52859
       3     C     3.21058  3.21058  0.00000 -0.42115
       4     C     3.28665  3.28665  0.00000 -0.57330
       5     C     3.14801  3.14801  0.00000 -0.29603
       6     H     0.41010  0.41010  0.00000  0.17979
       7     H     0.41010  0.41010  0.00000  0.17980
       8     C     3.15619  3.15619  0.00000 -0.31238
       9     H     0.41233  0.41233  0.00000  0.17533
      10     H     0.41235  0.41235  0.00000  0.17530
      11     C     3.15649  3.15649  0.00000 -0.31299
      12     H     0.42402  0.42402  0.00000  0.15197
      13     H     0.42335  0.42335  0.00000  0.15329
      14     C     3.15539  3.15539  0.00000 -0.31077
      15     H     0.41985  0.41985  0.00000  0.16030
      16     H     0.41978  0.41978  0.00000  0.16044
      17     C     3.24191  3.24191  0.00000 -0.48382
      18     H     0.42003  0.42003  0.00000  0.15995
      19     H     0.42011  0.42011  0.00000  0.15978
      20     H     0.42156  0.42156  0.00000  0.15688
      21     H     0.41912  0.41912  0.00000  0.16176
      22     H     0.42125  0.42125  0.00000  0.15750
      23     H     0.40875  0.40875  0.00000  0.18250
      24     H     0.39647  0.39647  0.00000  0.20706
      25     H     0.40871  0.40871  0.00000  0.18257

   Total alpha = 36.00000, Total beta = 36.00000, Total charge = -0.00000
