  ==> Input File <==

--------------------------------------------------------------------------
set {
	reference rhf
	basis 6-31G*
}

set_num_threads( 4 )
memory 2 gb

molecule MOL {
0 1

H	 2.001938	 -2.704552	 0.641852
C	 1.621213	 -1.882170	 0.042707
C	 0.572358	 -1.096849	 0.823920
H	 1.184549	 -2.288201	 -0.862956
H	 2.467481	 -1.266617	 -0.242702
N	 -0.000257	 -0.000071	 0.054619
H	 -0.225062	 -1.778080	 1.093033
H	 0.996402	 -0.738472	 1.766491
C	 -1.363055	 0.315058	 0.462241
C	 0.861099	 1.174764	 0.032575
C	 -2.412078	 -0.285320	 -0.468531
H	 -1.482241	 1.391144	 0.451970
H	 -1.549931	 -0.001174	 1.492681
C	 0.682149	 2.015359	 -1.227828
H	 1.891127	 0.843531	 0.071066
H	 0.707770	 1.793398	 0.921715
H	 -2.262839	 0.075384	 -1.480151
H	 -2.369300	 -1.368867	 -0.491760
H	 -3.410332	 -0.003975	 -0.144961
H	 0.892324	 1.417370	 -2.107527
H	 -0.325862	 2.404486	 -1.322936
H	 1.360737	 2.863718	 -1.216307

	symmetry c1
}
set optking {
	frozen_dihedral = ("
		3 6 9 11
	")
}

ee = optimize('scf')
oeprop('DIPOLE', 'QUADRUPOLE', 'MULLIKEN_CHARGES')
f=open( 'psi4out.xyz', 'w' )
f.write( "22  " )
f.write( str(ee) + "\n" )
f.write( MOL.save_string_xyz() )
f.close()
--------------------------------------------------------------------------

    Molecular point group: c1
  Charge       = 0
  Multiplicity = 1
  Basis Set: 6-31G*
  Basis Set:
  @DF-RHF Final Energy:  -290.37057856049603
    Total Energy =                       -290.3705785604958010
    Molecular point group: c1
  Basis Set: 6-31G*
  Basis Set:
  Basis Set: 6-31G*
  Basis Set:
  @DF-RHF Final Energy:  -290.37078063532857
    Total Energy =                       -290.3707806353287424
  Basis Set: 6-31G*
  Basis Set:
  Basis Set: 6-31G*
  Basis Set:
  @DF-RHF Final Energy:  -290.37089542276408
    Total Energy =                       -290.3708954227639651
  Basis Set: 6-31G*
  Basis Set:
  Basis Set: 6-31G*
  Basis Set:
  @DF-RHF Final Energy:  -290.37092312132813
    Total Energy =                       -290.3709231213280191
  Basis Set: 6-31G*
  Basis Set:
  Basis Set: 6-31G*
  Basis Set:
  @DF-RHF Final Energy:  -290.37092391003330
    Total Energy =                       -290.3709239100328432
  Basis Set: 6-31G*
  Basis Set:
  Basis Set: 6-31G*
  Basis Set:
  @DF-RHF Final Energy:  -290.37092706485134
    Total Energy =                       -290.3709270648515712
  Basis Set: 6-31G*
  Basis Set:
  Charge       = 0
  Multiplicity = 1
  Basis Set: 6-31G*
  Basis Set:

    Orbital Energies (a.u.)
    -----------------------

    Doubly Occupied:

       1A    -15.536301     2A    -11.241227     3A    -11.240034
       4A    -11.239540     5A    -11.205412     6A    -11.205340
       7A    -11.202958     8A     -1.222412     9A     -1.024361
      10A     -1.021724    11A     -0.954812    12A     -0.849260
      13A     -0.840682    14A     -0.773762    15A     -0.651244
      16A     -0.640838    17A     -0.616572    18A     -0.594401
      19A     -0.584531    20A     -0.552417    21A     -0.533193
      22A     -0.520862    23A     -0.515511    24A     -0.497823
      25A     -0.492999    26A     -0.484275    27A     -0.463093
      28A     -0.459501    29A     -0.339691

  @DF-RHF Final Energy:  -290.37092714133917

   => Energetics <=

    Nuclear Repulsion Energy =            337.5071443395266897
    One-Electron Energy =               -1060.7465928159585928
    Two-Electron Energy =                 432.8685213350930212
    DFT Exchange-Correlation Energy =       0.0000000000000000
    Empirical Dispersion Energy =           0.0000000000000000
    PCM Polarization Energy =               0.0000000000000000
    EFP Energy =                            0.0000000000000000
    Total Energy =                       -290.3709271413388819
    Molecular point group: c1
  Basis Set: 6-31G*
  Basis Set:

  -Total Gradient:
     Atom            X                  Y                   Z
    ------   -----------------  -----------------  -----------------
       1       -0.000000347445    -0.000000842212     0.000000620322
       2       -0.000003558819    -0.000001973358    -0.000002888319
       3        0.000829583687     0.001495614088     0.001526987495
       4        0.000001126090     0.000000418028    -0.000000110472
       5       -0.000001177536    -0.000001188665    -0.000001059770
       6       -0.001124927683    -0.001366260212    -0.002574865389
       7       -0.000004386671     0.000000336573    -0.000000484378
       8        0.000000627541    -0.000000836425     0.000002195661
       9        0.000216438027    -0.001936478327     0.002283764500
      10       -0.000010283266     0.000001465049     0.000001926562
      11        0.000081864609     0.001802452566    -0.001237435362
      12       -0.000006500320     0.000002198633     0.000000320727
      13        0.000008218777    -0.000006673389     0.000004518544
      14        0.000008455391     0.000001277979    -0.000001740282
      15       -0.000004670461     0.000006952146     0.000001981546
      16        0.000007746533     0.000000856656    -0.000001033011
      17       -0.000003379550    -0.000005278417    -0.000007617339
      18        0.000003284506     0.000000157215     0.000005993415
      19        0.000005676909     0.000005662596    -0.000000772508
      20       -0.000001984402     0.000000731994    -0.000001570865
      21       -0.000003979998    -0.000004010046     0.000003953926
      22        0.000002174080     0.000005417531    -0.000002685004

  **** Optimization is complete! (in 7 steps) ****
    Final optimized geometry and variables:
    Molecular point group: c1

    Geometry (in Angstrom), charge = 0, multiplicity = 1:

    H            1.972864843342    -2.766473777675     0.728505938543
    C            1.646584540308    -1.918877978127     0.132493136263
    C            0.563149820226    -1.141545186022     0.874182579959
    H            1.259750682569    -2.289138363692    -0.810438959777
    H            2.522156264594    -1.315165825533    -0.078799244572
    N            0.010112034322    -0.041044909297     0.097226582427
    H           -0.246247553550    -1.829611821965     1.091269326585
    H            0.943041935072    -0.797684501018     1.841266622777
    C           -1.352719051649     0.295796163057     0.505907501038
    C            0.892754653141     1.115619719508     0.044531979943
    C           -2.395111333230    -0.303186443904    -0.432209623053
    H           -1.470084179783     1.373599738419     0.509943464060
    H           -1.540059654758    -0.025302394347     1.530049942784
    C            0.638482137292     1.991418392524    -1.178096308795
    H            1.915150482571     0.763599169716    -0.002005028933
    H            0.817414766228     1.715800786285     0.956295592935
    H           -2.250993458082     0.068305330711    -1.440642057747
    H           -2.316708821581    -1.385644451946    -0.464733509534
    H           -3.401491400336    -0.049069772371    -0.109595346233
    H            0.770574125295     1.412691863054    -2.085588726010
    H           -0.366490686513     2.400251137657    -1.186446736054
    H            1.332294231221     2.827093838646    -1.196648505491

  Mulliken Charges: (a.u.)
   Center  Symbol    Alpha    Beta     Spin     Total
       1     H     0.42287  0.42287  0.00000  0.15426
       2     C     3.23762  3.23762  0.00000 -0.47524
       3     C     3.05697  3.05697  0.00000 -0.11394
       4     H     0.41466  0.41466  0.00000  0.17068
       5     H     0.42118  0.42118  0.00000  0.15764
       6     N     3.78434  3.78434  0.00000 -0.56869
       7     H     0.41885  0.41885  0.00000  0.16230
       8     H     0.43315  0.43315  0.00000  0.13369
       9     C     3.06303  3.06303  0.00000 -0.12605
      10     C     3.05828  3.05828  0.00000 -0.11657
      11     C     3.22869  3.22869  0.00000 -0.45737
      12     H     0.42053  0.42053  0.00000  0.15895
      13     H     0.42632  0.42632  0.00000  0.14736
      14     C     3.23665  3.23665  0.00000 -0.47329
      15     H     0.41882  0.41882  0.00000  0.16235
      16     H     0.43318  0.43318  0.00000  0.13365
      17     H     0.41721  0.41721  0.00000  0.16558
      18     H     0.42162  0.42162  0.00000  0.15675
      19     H     0.42657  0.42657  0.00000  0.14686
      20     H     0.41506  0.41506  0.00000  0.16988
      21     H     0.42126  0.42126  0.00000  0.15749
      22     H     0.42314  0.42314  0.00000  0.15372

   Total alpha = 29.00000, Total beta = 29.00000, Total charge = -0.00000
