  ==> Input File <==

--------------------------------------------------------------------------
set {
	reference rhf
	basis 6-31G*
}

set_num_threads( 4 )
memory 2 gb

molecule MOL {
0 1

H	 -2.754485	 -0.328923	 2.635967
C	 -3.052391	 -0.560897	 1.605889
C	 -2.726703	 0.506663	 0.592550
O	 -3.590233	 -1.590788	 1.357293
C	 -1.253882	 0.936227	 0.642823
H	 -3.001963	 0.141113	 -0.389954
H	 -3.358031	 1.365214	 0.818320
C	 -0.282181	 -0.163265	 0.206690
H	 -1.126875	 1.804487	 0.003074
H	 -1.007665	 1.264934	 1.651330
C	 1.180775	 0.282413	 0.250794
H	 -0.534662	 -0.481506	 -0.802678
H	 -0.409027	 -1.040010	 0.838963
C	 2.148627	 -0.814315	 -0.201312
H	 1.299201	 1.164101	 -0.373974
H	 1.433828	 0.589019	 1.264865
C	 3.580890	 -0.659131	 0.322722
H	 2.166869	 -0.852443	 -1.289387
H	 1.762857	 -1.776509	 0.128956
C	 4.324889	 0.564933	 -0.213704
H	 4.142010	 -1.551473	 0.056605
H	 3.564836	 -0.624694	 1.410140
H	 4.342616	 0.565491	 -1.300421
H	 3.866655	 1.493402	 0.110242
H	 5.353900	 0.572371	 0.132816

	symmetry c1
}
set optking {
	frozen_dihedral = ("
		8 11 14 18
	")
}

ee = optimize('scf')
oeprop('DIPOLE', 'QUADRUPOLE', 'MULLIKEN_CHARGES')
f=open( 'psi4out.xyz', 'w' )
f.write( "25  " )
f.write( str(ee) + "\n" )
f.write( MOL.save_string_xyz() )
f.close()
--------------------------------------------------------------------------

    Molecular point group: c1
  Charge       = 0
  Multiplicity = 1
  Basis Set: 6-31G*
  Basis Set:
  @DF-RHF Final Energy:  -387.12077795059201
    Total Energy =                       -387.1207779505930375
    Molecular point group: c1
  Basis Set: 6-31G*
  Basis Set:
  Basis Set: 6-31G*
  Basis Set:
  @DF-RHF Final Energy:  -387.12050912878561
    Total Energy =                       -387.1205091287847608
  Basis Set: 6-31G*
  Basis Set:
  Basis Set: 6-31G*
  Basis Set:
  @DF-RHF Final Energy:  -387.11921572907897
    Total Energy =                       -387.1192157290787463
  Basis Set: 6-31G*
  Basis Set:
  Basis Set: 6-31G*
  Basis Set:
  @DF-RHF Final Energy:  -387.12088280466747
    Total Energy =                       -387.1208828046678718
  Basis Set: 6-31G*
  Basis Set:
  @DF-RHF Final Energy:  -387.12093521346765
    Total Energy =                       -387.1209352134676465
  @DF-RHF Final Energy:  -387.12098685109777
    Total Energy =                       -387.1209868510976548
  @DF-RHF Final Energy:  -387.12099050031668
    Total Energy =                       -387.1209905003169069
  @DF-RHF Final Energy:  -387.12098809003669
    Total Energy =                       -387.1209880900361213
  Basis Set: 6-31G*
  Basis Set:
  @DF-RHF Final Energy:  -387.12099081478726
    Total Energy =                       -387.1209908147868646
  Basis Set: 6-31G*
  Basis Set:
  Basis Set: 6-31G*
  Basis Set:
  @DF-RHF Final Energy:  -387.12099684004022
    Total Energy =                       -387.1209968400406751
  Basis Set: 6-31G*
  Basis Set:
  Basis Set: 6-31G*
  Basis Set:
  @DF-RHF Final Energy:  -387.12099874164784
    Total Energy =                       -387.1209987416478953
  Basis Set: 6-31G*
  Basis Set:
  Charge       = 0
  Multiplicity = 1
  Basis Set: 6-31G*
  Basis Set:

    Orbital Energies (a.u.)
    -----------------------

    Doubly Occupied:

       1A    -20.562093     2A    -11.326235     3A    -11.235358
       4A    -11.234706     5A    -11.224116     6A    -11.220059
       7A    -11.217759     8A    -11.216863     9A    -11.210657
      10A     -1.402030    11A     -1.103859    12A     -1.069790
      13A     -1.013018    14A     -0.941848    15A     -0.875475
      16A     -0.821360    17A     -0.788117    18A     -0.780612
      19A     -0.665084    20A     -0.660848    21A     -0.634428
      22A     -0.624974    23A     -0.601513    24A     -0.594170
      25A     -0.575004    26A     -0.551307    27A     -0.534311
      28A     -0.524892    29A     -0.509885    30A     -0.494210
      31A     -0.491510    32A     -0.480268    33A     -0.462698
      34A     -0.459610    35A     -0.440900    36A     -0.409627

  @DF-RHF Final Energy:  -387.12099877364614

   => Energetics <=

    Nuclear Repulsion Energy =            439.4381956024162150
    One-Electron Energy =               -1395.2000022963741230
    Two-Electron Energy =                 568.6408079203115449
    DFT Exchange-Correlation Energy =       0.0000000000000000
    Empirical Dispersion Energy =           0.0000000000000000
    PCM Polarization Energy =               0.0000000000000000
    EFP Energy =                            0.0000000000000000
    Total Energy =                       -387.1209987736463063
    Molecular point group: c1
  Basis Set: 6-31G*
  Basis Set:

  -Total Gradient:
     Atom            X                  Y                   Z
    ------   -----------------  -----------------  -----------------
       1       -0.000000230612    -0.000000920907     0.000002637315
       2        0.000002071055     0.000002262639     0.000002455314
       3       -0.000001285427    -0.000000549247    -0.000003657008
       4        0.000001184151     0.000005873769    -0.000002449705
       5       -0.000003614437     0.000000379196     0.000002641648
       6       -0.000001910345     0.000000471356    -0.000002695512
       7       -0.000002261658    -0.000002398400     0.000001389634
       8        0.000153762520    -0.000760119009     0.002111571097
       9       -0.000007976983    -0.000000352937     0.000000014358
      10        0.000004202360     0.000001158790    -0.000001703243
      11        0.000329653356     0.001534142170    -0.002916775879
      12        0.000007356745     0.000000305212     0.000000420169
      13       -0.000001916231    -0.000000497768     0.000000390936
      14       -0.002794514286    -0.002801714976     0.000804382388
      15       -0.000002104237    -0.000001190843     0.000002400265
      16       -0.000008950369     0.000002057465     0.000002093096
      17        0.000000128434    -0.000002883114    -0.000001376739
      18        0.002323211040     0.002023637685     0.000000648071
      19        0.000005144871     0.000001720026     0.000000038928
      20       -0.000000423842    -0.000001397520    -0.000003877546
      21        0.000001379062     0.000001635254     0.000000650423
      22       -0.000003369261    -0.000001911500     0.000000816693
      23        0.000000325389     0.000001866153    -0.000000544760
      24        0.000000476262    -0.000000922873     0.000000573889
      25       -0.000000337543    -0.000000650625    -0.000000043837

  **** Optimization is complete! (in 12 steps) ****
    Final optimized geometry and variables:
    Molecular point group: c1

    Geometry (in Angstrom), charge = 0, multiplicity = 1:

    H           -2.809195331670    -0.102083870740     2.130837047754
    C           -3.098448666878    -0.357301117997     1.103689125345
    C           -2.760164395860     0.685359352823     0.068712939520
    O           -3.642480088335    -1.388740606082     0.875614382139
    C           -1.284209199842     1.104854886211     0.116500491223
    H           -3.033349349794     0.300054257360    -0.906852442388
    H           -3.386136626521     1.553212918115     0.272336971311
    C           -0.319016477876    -0.008678566344    -0.297406498070
    H           -1.148487565915     1.961647681553    -0.537009324968
    H           -1.038764434455     1.448355014076     1.120187241346
    C            1.148143775109     0.422650539273    -0.245274082007
    H           -0.568139995271    -0.338618744517    -1.304288670088
    H           -0.455952495462    -0.875784368189     0.345553304842
    C            2.111914056071    -0.676260097060    -0.713888741250
    H            1.285649164010     1.319451489363    -0.843749210670
    H            1.390649093249     0.700966749422     0.779579062472
    C            3.550374347100    -0.505134902943    -0.211351031427
    H            2.131159828310    -0.696746386196    -1.801965197172
    H            1.742603934336    -1.644610766726    -0.385842786954
    C            4.241327938435     0.764702137625    -0.710902615751
    H            4.132320495270    -1.368410585807    -0.524617217931
    H            3.554148747270    -0.514360253780     0.876736062866
    H            4.250647256381     0.802302336885    -1.797027984965
    H            3.745493461604     1.661552726748    -0.353410974189
    H            5.271577288153     0.804339118908    -0.370971650742

  Mulliken Charges: (a.u.)
   Center  Symbol    Alpha    Beta     Spin     Total
       1     H     0.43261  0.43261  0.00000  0.13478
       2     C     2.83087  2.83087  0.00000  0.33825
       3     C     3.20813  3.20813  0.00000 -0.41625
       4     O     4.23775  4.23775  0.00000 -0.47549
       5     C     3.16683  3.16683  0.00000 -0.33366
       6     H     0.39967  0.39967  0.00000  0.20066
       7     H     0.40664  0.40664  0.00000  0.18673
       8     C     3.15548  3.15548  0.00000 -0.31096
       9     H     0.41281  0.41281  0.00000  0.17438
      10     H     0.41969  0.41969  0.00000  0.16062
      11     C     3.15468  3.15468  0.00000 -0.30935
      12     H     0.41801  0.41801  0.00000  0.16397
      13     H     0.41810  0.41810  0.00000  0.16381
      14     C     3.15366  3.15366  0.00000 -0.30733
      15     H     0.42013  0.42013  0.00000  0.15973
      16     H     0.42370  0.42370  0.00000  0.15260
      17     C     3.15316  3.15316  0.00000 -0.30632
      18     H     0.42233  0.42233  0.00000  0.15533
      19     H     0.41939  0.41939  0.00000  0.16123
      20     C     3.24159  3.24159  0.00000 -0.48318
      21     H     0.42041  0.42041  0.00000  0.15918
      22     H     0.42334  0.42334  0.00000  0.15332
      23     H     0.42212  0.42212  0.00000  0.15575
      24     H     0.42023  0.42023  0.00000  0.15953
      25     H     0.41867  0.41867  0.00000  0.16267

   Total alpha = 36.00000, Total beta = 36.00000, Total charge = -0.00000
