  ==> Input File <==

--------------------------------------------------------------------------
set {
	reference rhf
	basis 6-31G*
}

set_num_threads( 4 )
memory 2 gb

molecule MOL {
0 1

O	 -0.566270	 0.026763	 0.535134
C	 0.486307	 0.169203	 0.000779
C	 1.608116	 -0.841643	 0.000302
O	 0.819634	 1.258709	 -0.677069
C	 2.990107	 -0.200498	 -0.000684
H	 1.468623	 -1.481519	 -0.865924
H	 1.469683	 -1.481289	 0.866878
H	 3.129736	 0.423364	 -0.875135
H	 3.757882	 -0.966877	 -0.001197
H	 3.130964	 0.423383	 0.873533
C	 -0.145225	 2.302495	 -0.760484
C	 0.467347	 3.422793	 -1.574117
H	 -0.400173	 2.627567	 0.238973
H	 -1.043024	 1.916579	 -1.223751
H	 1.368380	 3.794609	 -1.099723
H	 -0.237618	 4.243028	 -1.662920
H	 0.721997	 3.079846	 -2.570509

	symmetry c1
}
set optking {
	frozen_dihedral = ("
		4 2 3 6
	")
}

ee = optimize('scf')
oeprop('DIPOLE', 'QUADRUPOLE', 'MULLIKEN_CHARGES')
f=open( 'psi4out.xyz', 'w' )
f.write( "17  " )
f.write( str(ee) + "\n" )
f.write( MOL.save_string_xyz() )
f.close()
--------------------------------------------------------------------------

    Molecular point group: c1
  Charge       = 0
  Multiplicity = 1
  Basis Set: 6-31G*
  Basis Set:
  @DF-RHF Final Energy:  -344.90922503480630
    Total Energy =                       -344.9092250348064681
    Molecular point group: c1
  Basis Set: 6-31G*
  Basis Set:
  Basis Set: 6-31G*
  Basis Set:
  @DF-RHF Final Energy:  -344.90938977372474
    Total Energy =                       -344.9093897737244561
  Basis Set: 6-31G*
  Basis Set:
  Basis Set: 6-31G*
  Basis Set:
  @DF-RHF Final Energy:  -344.90984203524312
    Total Energy =                       -344.9098420352431731
  Basis Set: 6-31G*
  Basis Set:
  Basis Set: 6-31G*
  Basis Set:
  @DF-RHF Final Energy:  -344.90990344952911
    Total Energy =                       -344.9099034495292244
  Basis Set: 6-31G*
  Basis Set:
  Basis Set: 6-31G*
  Basis Set:
  @DF-RHF Final Energy:  -344.90990225009989
    Total Energy =                       -344.9099022501001173
  Basis Set: 6-31G*
  Basis Set:
  Basis Set: 6-31G*
  Basis Set:
  @DF-RHF Final Energy:  -344.90990633011756
    Total Energy =                       -344.9099063301175647
  Basis Set: 6-31G*
  Basis Set:
  Charge       = 0
  Multiplicity = 1
  Basis Set: 6-31G*
  Basis Set:

    Orbital Energies (a.u.)
    -----------------------

    Doubly Occupied:

       1A    -20.602790     2A    -20.540944     3A    -11.371081
       4A    -11.285372     5A    -11.237493     6A    -11.222951
       7A    -11.221703     8A     -1.467981     9A     -1.360294
      10A     -1.072435    11A     -1.030197    12A     -0.905707
      13A     -0.859982    14A     -0.778142    15A     -0.690793
      16A     -0.677659    17A     -0.671981    18A     -0.626880
      19A     -0.580915    20A     -0.572283    21A     -0.552785
      22A     -0.546989    23A     -0.523651    24A     -0.512936
      25A     -0.505442    26A     -0.491617    27A     -0.451507
      28A     -0.430810

  @DF-RHF Final Energy:  -344.90990633289601

   => Energetics <=

    Nuclear Repulsion Energy =            317.4762359354836576
    One-Electron Energy =               -1099.1856444485297288
    Two-Electron Energy =                 436.7995021801499433
    DFT Exchange-Correlation Energy =       0.0000000000000000
    Empirical Dispersion Energy =           0.0000000000000000
    PCM Polarization Energy =               0.0000000000000000
    EFP Energy =                            0.0000000000000000
    Total Energy =                       -344.9099063328961847
    Molecular point group: c1
  Basis Set: 6-31G*
  Basis Set:

  -Total Gradient:
     Atom            X                  Y                   Z
    ------   -----------------  -----------------  -----------------
       1        0.000009988017    -0.000014738015     0.000009772806
       2       -0.000401156557    -0.000427053225    -0.000608623365
       3        0.000569184880     0.000622648422    -0.000306584575
       4        0.000259215501     0.000275783054     0.000531548965
       5       -0.000008684676     0.000005790648    -0.000004286807
       6       -0.000416638647    -0.000442514923     0.000398266059
       7       -0.000005537563     0.000002549786     0.000004971387
       8        0.000000517348     0.000003937950    -0.000004234221
       9       -0.000005112466     0.000001077801     0.000000348188
      10        0.000002124380     0.000000473948     0.000001611517
      11       -0.000024752845    -0.000049207367    -0.000074053735
      12        0.000010943015     0.000006780156     0.000020692423
      13        0.000006551414    -0.000001993753     0.000017974135
      14        0.000003298707     0.000016852001     0.000009303272
      15        0.000004185818     0.000005827133    -0.000004330092
      16       -0.000000422681    -0.000000377403     0.000003091235
      17       -0.000003703647    -0.000005836210     0.000004532810

  **** Optimization is complete! (in 7 steps) ****
    Final optimized geometry and variables:
    Molecular point group: c1

    Geometry (in Angstrom), charge = 0, multiplicity = 1:

    O           -1.362833823360    -0.870151731921     0.880003164114
    C           -0.304534021697    -0.705096778275     0.362228237969
    C            0.806436250639    -1.730799107562     0.373503001772
    O            0.010672896022     0.389952335488    -0.312435979901
    C            2.225264213307    -1.164777852918     0.362006850559
    H            0.647577564870    -2.365228998912    -0.495427683590
    H            0.637449692230    -2.353874175702     1.242497007421
    H            2.414000160590    -0.588999460055    -0.534567560920
    H            2.945232786674    -1.974895116902     0.405262673662
    H            2.398288853205    -0.519970028388     1.217157716271
    C           -0.980831053645     1.407283771962    -0.414337833469
    C           -0.381908942662     2.546380885275    -1.211771563021
    H           -1.265867166289     1.721120444612     0.580323240908
    H           -1.856994513216     0.997225851323    -0.897579613095
    H            0.498138650327     2.941524375622    -0.717156676525
    H           -1.107204552493     3.347149182150    -1.313453552063
    H           -0.096838263344     2.214058426498    -2.203532014701

  Mulliken Charges: (a.u.)
   Center  Symbol    Alpha    Beta     Spin     Total
       1     O     4.28855  4.28855  0.00000 -0.57710
       2     C     2.60673  2.60673  0.00000  0.78653
       3     C     3.20487  3.20487  0.00000 -0.40974
       4     O     4.30995  4.30995  0.00000 -0.61989
       5     C     3.24217  3.24217  0.00000 -0.48435
       6     H     0.40089  0.40089  0.00000  0.19821
       7     H     0.39735  0.39735  0.00000  0.20531
       8     H     0.40779  0.40779  0.00000  0.18441
       9     H     0.41567  0.41567  0.00000  0.16865
      10     H     0.41554  0.41554  0.00000  0.16891
      11     C     3.00241  3.00241  0.00000 -0.00482
      12     C     3.24888  3.24888  0.00000 -0.49776
      13     H     0.40938  0.40938  0.00000  0.18124
      14     H     0.40996  0.40996  0.00000  0.18008
      15     H     0.41181  0.41181  0.00000  0.17638
      16     H     0.41602  0.41602  0.00000  0.16797
      17     H     0.41202  0.41202  0.00000  0.17596

   Total alpha = 28.00000, Total beta = 28.00000, Total charge =  0.00000
