  ==> Input File <==

--------------------------------------------------------------------------
set {
	reference rhf
	basis cc-pvtz
}

set_num_threads( 4 )
memory 2 gb

molecule MOL {
0 1

H	 -1.140736	 -0.466009	 0.677707
N	 -0.712187	 0.000026	 -0.093397
C	 0.734067	 -0.000020	 0.038424
H	 -1.068990	 0.931634	 -0.108986
H	 1.140372	 -0.872115	 -0.458226
H	 1.140363	 0.872301	 -0.457869
H	 1.095085	 -0.000244	 1.065614

	symmetry c1
}
set optking {
	frozen_dihedral = ("
		1 2 3 7
	")
}

ee = optimize('scf')
oeprop('DIPOLE', 'QUADRUPOLE', 'MULLIKEN_CHARGES')
f=open( 'psi4out.xyz', 'w' )
f.write( "7  " )
f.write( str(ee) + "\n" )
f.write( MOL.save_string_xyz() )
f.close()
--------------------------------------------------------------------------

    Molecular point group: c1
  Charge       = 0
  Multiplicity = 1
  Basis Set: CC-PVTZ
  Basis Set:
  @DF-RHF Final Energy:   -95.25205202084376
    Total Energy =                        -95.2520520208438199
    Molecular point group: c1
  Basis Set: CC-PVTZ
  Basis Set:
  Basis Set: CC-PVTZ
  Basis Set:
  @DF-RHF Final Energy:   -95.25214479193804
    Total Energy =                        -95.2521447919380080
  Basis Set: CC-PVTZ
  Basis Set:
  Basis Set: CC-PVTZ
  Basis Set:
  @DF-RHF Final Energy:   -95.25216054322711
    Total Energy =                        -95.2521605432270349
  Basis Set: CC-PVTZ
  Basis Set:
  Charge       = 0
  Multiplicity = 1
  Basis Set: CC-PVTZ
  Basis Set:

    Orbital Energies (a.u.)
    -----------------------

    Doubly Occupied:

       1A    -15.528556     2A    -11.235747     3A     -1.171525
       4A     -0.897751     5A     -0.664676     6A     -0.602106
       7A     -0.558083     8A     -0.518162     9A     -0.387187

  @DF-RHF Final Energy:   -95.25216114816325

   => Energetics <=

    Nuclear Repulsion Energy =             42.3357740616168812
    One-Electron Energy =                -212.0482883127828018
    Two-Electron Energy =                  74.4603531030026318
    DFT Exchange-Correlation Energy =       0.0000000000000000
    Empirical Dispersion Energy =           0.0000000000000000
    PCM Polarization Energy =               0.0000000000000000
    EFP Energy =                            0.0000000000000000
    Total Energy =                        -95.2521611481632817
    Molecular point group: c1
  Basis Set: CC-PVTZ
  Basis Set:

  -Total Gradient:
     Atom            X                  Y                   Z
    ------   -----------------  -----------------  -----------------
       1       -0.000152015075     0.002508483995     0.001427259503
       2        0.000196813353    -0.003971060432    -0.001751047563
       3       -0.000129043989     0.004227244961     0.000326637902
       4        0.000015641536    -0.000014007107    -0.000011526182
       5        0.000005107108    -0.000009320846     0.000006313618
       6        0.000035572663    -0.000005431470    -0.000001270432
       7        0.000027924406    -0.002735909101     0.000003633154

  **** Optimization is complete! (in 4 steps) ****
    Final optimized geometry and variables:
    Molecular point group: c1

    Geometry (in Angstrom), charge = 0, multiplicity = 1:

    H           -1.142711685017    -0.483648826289     0.680230526787
    N           -0.715095173204    -0.016229477898    -0.090333972207
    C            0.735762910123    -0.013052449554     0.040508644743
    H           -1.068539897294     0.916513988381    -0.078760176302
    H            1.151529154903    -0.891528396124    -0.439373029806
    H            1.149444935206     0.852939123685    -0.459321462378
    H            1.085457381243    -0.013364558324     1.070026499516

  Mulliken Charges: (a.u.)
   Center  Symbol    Alpha    Beta     Spin     Total
       1     H     0.42978  0.42978  0.00000  0.14043
       2     N     3.68464  3.68464  0.00000 -0.36927
       3     C     3.07042  3.07042  0.00000 -0.14084
       4     H     0.42875  0.42875  0.00000  0.14249
       5     H     0.45856  0.45856  0.00000  0.08287
       6     H     0.45803  0.45803  0.00000  0.08394
       7     H     0.46982  0.46982  0.00000  0.06037

   Total alpha =  9.00000, Total beta =  9.00000, Total charge = -0.00000
