  ==> Input File <==

--------------------------------------------------------------------------
set {
	reference rhf
	basis 6-31G*
}

set_num_threads( 1 )
memory 2 gb

molecule MOL {
0 1

O	 1.846825	 1.296220	 0.000415
C	 1.705091	 0.115954	 0.001797
C	 0.381791	 -0.609817	 0.001258
O	 2.721346	 -0.737485	 -0.000216
C	 -0.823008	 0.326187	 0.001381
H	 0.371250	 -1.265087	 -0.865474
H	 0.370908	 -1.265746	 0.867490
C	 -2.126111	 -0.405130	 0.327201
H	 -0.902323	 0.807045	 -0.968502
H	 -0.657099	 1.122568	 0.720102
C	 -3.345256	 0.518738	 0.330761
H	 -2.284972	 -1.204736	 -0.394872
H	 -2.039400	 -0.887174	 1.299825
C	 -4.646798	 -0.212312	 0.657571
H	 -3.434777	 0.999117	 -0.641022
H	 -3.188454	 1.317526	 1.052210
H	 -4.849439	 -0.995774	 -0.067231
H	 -5.492014	 0.468890	 0.652659
H	 -4.600967	 -0.675255	 1.639352
C	 4.024888	 -0.184556	 -0.001949
H	 4.179030	 0.422472	 -0.882452
H	 4.701782	 -1.024608	 -0.003642
H	 4.181981	 0.421185	 0.878906

	symmetry c1
}
set optking {
	frozen_dihedral = ("
		15 11 8 12,
		9 5 8 12,
		1 2 3 6,
		1 2 4 20
	")
}

ee = energy('scf')
oeprop('DIPOLE', 'QUADRUPOLE', 'MULLIKEN_CHARGES')
f=open( 'psi4out.xyz', 'w' )
f.write( "23  " )
f.write( str(ee) + "\n" )
f.write( MOL.save_string_xyz() )
f.close()
--------------------------------------------------------------------------

    Molecular point group: c1

    Geometry (in Angstrom), charge = 0, multiplicity = 1:

       Center              X                  Y                   Z               Mass
    ------------   -----------------  -----------------  -----------------  -----------------
           O          1.836345268946     1.282750751509    -0.146645621236    15.994914619560
           C          1.694611268946     0.102484751509    -0.145263621236    12.000000000000
           C          0.371311268946    -0.623286248491    -0.145802621236    12.000000000000
           O          2.710866268946    -0.750954248491    -0.147276621236    15.994914619560
           C         -0.833487731054     0.312717751509    -0.145679621236    12.000000000000
           H          0.360770268946    -1.278556248491    -1.012534621236     1.007825032070
           H          0.360428268946    -1.279215248491     0.720429378764     1.007825032070
           C         -2.136590731054    -0.418599248491     0.180140378764    12.000000000000
           H         -0.912802731054     0.793575751509    -1.115562621236     1.007825032070
           H         -0.667578731054     1.109098751509     0.573041378764     1.007825032070
           C         -3.355735731054     0.505268751509     0.183700378764    12.000000000000
           H         -2.295451731054    -1.218205248491    -0.541932621236     1.007825032070
           H         -2.049879731054    -0.900643248491     1.152764378764     1.007825032070
           C         -4.657277731054    -0.225781248491     0.510510378764    12.000000000000
           H         -3.445256731054     0.985647751509    -0.788082621236     1.007825032070
           H         -3.198933731054     1.304056751509     0.905149378764     1.007825032070
           H         -4.859918731054    -1.009243248491    -0.214291621236     1.007825032070
           H         -5.502493731054     0.455420751509     0.505598378764     1.007825032070
           H         -4.611446731054    -0.688724248491     1.492291378764     1.007825032070
           C          4.014408268946    -0.198025248491    -0.149009621236    12.000000000000
           H          4.168550268946     0.409002751509    -1.029512621236     1.007825032070
           H          4.691302268946    -1.038077248491    -0.150702621236     1.007825032070
           H          4.171501268946     0.407715751509     0.731845378764     1.007825032070

  Charge       = 0
  Multiplicity = 1
  Basis Set: 6-31G*
  Basis Set:

    Orbital Energies (a.u.)
    -----------------------

    Doubly Occupied:

       1A    -20.603706     2A    -20.545527     3A    -11.372348
       4A    -11.280889     5A    -11.235376     6A    -11.218766
       7A    -11.217715     8A    -11.216313     9A    -11.209546
      10A     -1.469409    11A     -1.362885    12A     -1.093081
      13A     -1.043566    14A     -0.987012    15A     -0.932014
      16A     -0.843491    17A     -0.795065    18A     -0.767245
      19A     -0.697468    20A     -0.683548    21A     -0.671636
      22A     -0.651199    23A     -0.609483    24A     -0.599482
      25A     -0.572490    26A     -0.557942    27A     -0.557139
      28A     -0.523991    29A     -0.521734    30A     -0.506847
      31A     -0.484332    32A     -0.469668    33A     -0.465816
      34A     -0.460901    35A     -0.455749    36A     -0.435719

  @DF-RHF Final Energy:  -422.97572489018756

   => Energetics <=

    Nuclear Repulsion Energy =            452.3155165545086334
    One-Electron Energy =               -1472.3444229417241331
    Two-Electron Energy =                 597.0531814970282767
    DFT Exchange-Correlation Energy =       0.0000000000000000
    Empirical Dispersion Energy =           0.0000000000000000
    PCM Polarization Energy =               0.0000000000000000
    EFP Energy =                            0.0000000000000000
    Total Energy =                       -422.9757248901872799

  Mulliken Charges: (a.u.)
   Center  Symbol    Alpha    Beta     Spin     Total
       1     O     4.28585  4.28585  0.00000 -0.57171
       2     C     2.60578  2.60578  0.00000  0.78844
       3     C     3.20847  3.20847  0.00000 -0.41695
       4     O     4.30716  4.30716  0.00000 -0.61432
       5     C     3.15343  3.15343  0.00000 -0.30686
       6     H     0.39993  0.39993  0.00000  0.20013
       7     H     0.40070  0.40070  0.00000  0.19861
       8     C     3.15371  3.15371  0.00000 -0.30742
       9     H     0.41464  0.41464  0.00000  0.17073
      10     H     0.40732  0.40732  0.00000  0.18537
      11     C     3.15165  3.15165  0.00000 -0.30330
      12     H     0.42430  0.42430  0.00000  0.15140
      13     H     0.42366  0.42366  0.00000  0.15269
      14     C     3.23957  3.23957  0.00000 -0.47913
      15     H     0.42170  0.42170  0.00000  0.15660
      16     H     0.42099  0.42099  0.00000  0.15803
      17     H     0.42188  0.42188  0.00000  0.15624
      18     H     0.41851  0.41851  0.00000  0.16298
      19     H     0.42178  0.42178  0.00000  0.15643
      20     C     3.09242  3.09242  0.00000 -0.18483
      21     H     0.40903  0.40903  0.00000  0.18194
      22     H     0.40842  0.40842  0.00000  0.18315
      23     H     0.40911  0.40911  0.00000  0.18178

   Total alpha = 36.00000, Total beta = 36.00000, Total charge =  0.00000
