  ==> Input File <==

--------------------------------------------------------------------------
set {
	reference rhf
	basis 6-31G*
}

set_num_threads( 1 )
memory 2 gb

molecule MOL {
0 1

H	 -3.365496	 -0.906124	 -0.519177
O	 -3.517110	 -0.026191	 -0.205115
C	 -2.306886	 0.532354	 0.237577
C	 -1.177863	 -0.397191	 -0.171080
H	 -2.156308	 1.517575	 -0.201710
H	 -2.315015	 0.655684	 1.319734
C	 0.198102	 0.111031	 0.262842
H	 -1.208843	 -0.518759	 -1.250427
H	 -1.368741	 -1.376554	 0.258909
C	 1.331804	 -0.827780	 -0.158768
H	 0.361943	 1.100838	 -0.156218
H	 0.217265	 0.229072	 1.345532
C	 2.723619	 -0.410569	 0.329459
H	 1.342964	 -0.912588	 -1.244120
H	 1.116806	 -1.824343	 0.220779
C	 3.243875	 0.895854	 -0.272975
H	 3.424222	 -1.207124	 0.091250
H	 2.714788	 -0.329854	 1.414619
H	 3.251977	 0.848779	 -1.358681
H	 2.637085	 1.747371	 0.016682
H	 4.259473	 1.094070	 0.055697

	symmetry c1
}
set optking {
	frozen_dihedral = ("
		2 3 4 8,
		8 4 7 10,
		4 7 10 14,
		16 13 10 14
	")
}

ee = energy('scf')
oeprop('DIPOLE', 'QUADRUPOLE', 'MULLIKEN_CHARGES')
f=open( 'psi4out.xyz', 'w' )
f.write( "21  " )
f.write( str(ee) + "\n" )
f.write( MOL.save_string_xyz() )
f.close()
--------------------------------------------------------------------------

    Molecular point group: c1

    Geometry (in Angstrom), charge = 0, multiplicity = 1:

       Center              X                  Y                   Z               Mass
    ------------   -----------------  -----------------  -----------------  -----------------
           H         -3.374093033113    -0.891868324525    -0.513659868970     1.007825032070
           O         -3.525707033113    -0.011935324525    -0.199597868970    15.994914619560
           C         -2.315483033113     0.546609675475     0.243094131030    12.000000000000
           C         -1.186460033113    -0.382935324525    -0.165562868970    12.000000000000
           H         -2.164905033113     1.531830675475    -0.196192868970     1.007825032070
           H         -2.323612033113     0.669939675475     1.325251131030     1.007825032070
           C          0.189504966887     0.125286675475     0.268359131030    12.000000000000
           H         -1.217440033113    -0.504503324525    -1.244909868970     1.007825032070
           H         -1.377338033113    -1.362298324525     0.264426131030     1.007825032070
           C          1.323206966887    -0.813524324525    -0.153250868970    12.000000000000
           H          0.353345966887     1.115093675475    -0.150700868970     1.007825032070
           H          0.208667966887     0.243327675475     1.351049131030     1.007825032070
           C          2.715021966887    -0.396313324525     0.334976131030    12.000000000000
           H          1.334366966887    -0.898332324525    -1.238602868970     1.007825032070
           H          1.108208966887    -1.810087324525     0.226296131030     1.007825032070
           C          3.235277966887     0.910109675475    -0.267457868970    12.000000000000
           H          3.415624966887    -1.192868324525     0.096767131030     1.007825032070
           H          2.706190966887    -0.315598324525     1.420136131030     1.007825032070
           H          3.243379966887     0.863034675475    -1.353163868970     1.007825032070
           H          2.628487966887     1.761626675475     0.022199131030     1.007825032070
           H          4.250875966887     1.108325675475     0.061214131030     1.007825032070

  Charge       = 0
  Multiplicity = 1
  Basis Set: 6-31G*
  Basis Set:

    Orbital Energies (a.u.)
    -----------------------

    Doubly Occupied:

       1A    -20.548016     2A    -11.267086     3A    -11.223269
       4A    -11.222462     5A    -11.219714     6A    -11.219099
       7A    -11.211555     8A     -1.358001     9A     -1.092406
      10A     -1.037761    11A     -0.956914    12A     -0.880976
      13A     -0.828354    14A     -0.784112    15A     -0.669086
      16A     -0.661350    17A     -0.626458    18A     -0.620745
      19A     -0.594637    20A     -0.576615    21A     -0.545857
      22A     -0.533037    23A     -0.507994    24A     -0.497265
      25A     -0.488661    26A     -0.466880    27A     -0.461707
      28A     -0.439997    29A     -0.431717

  @DF-RHF Final Energy:  -310.20865347360302

   => Energetics <=

    Nuclear Repulsion Energy =            313.4062470433522094
    One-Electron Energy =               -1041.2863512331982747
    Two-Electron Energy =                 417.6714507162439531
    DFT Exchange-Correlation Energy =       0.0000000000000000
    Empirical Dispersion Energy =           0.0000000000000000
    PCM Polarization Energy =               0.0000000000000000
    EFP Energy =                            0.0000000000000000
    Total Energy =                       -310.2086534736021122

  Mulliken Charges: (a.u.)
   Center  Symbol    Alpha    Beta     Spin     Total
       1     H     0.27810  0.27810  0.00000  0.44381
       2     O     4.37853  4.37853  0.00000 -0.75705
       3     C     2.96757  2.96757  0.00000  0.06487
       4     C     3.19092  3.19092  0.00000 -0.38184
       5     H     0.42399  0.42399  0.00000  0.15201
       6     H     0.42753  0.42753  0.00000  0.14494
       7     C     3.15997  3.15997  0.00000 -0.31994
       8     H     0.41711  0.41711  0.00000  0.16577
       9     H     0.42190  0.42190  0.00000  0.15620
      10     C     3.15240  3.15240  0.00000 -0.30480
      11     H     0.41834  0.41834  0.00000  0.16332
      12     H     0.42111  0.42111  0.00000  0.15779
      13     C     3.15283  3.15283  0.00000 -0.30567
      14     H     0.42324  0.42324  0.00000  0.15353
      15     H     0.42184  0.42184  0.00000  0.15632
      16     C     3.24158  3.24158  0.00000 -0.48317
      17     H     0.42011  0.42011  0.00000  0.15978
      18     H     0.42277  0.42277  0.00000  0.15447
      19     H     0.42179  0.42179  0.00000  0.15641
      20     H     0.42009  0.42009  0.00000  0.15982
      21     H     0.41829  0.41829  0.00000  0.16342

   Total alpha = 29.00000, Total beta = 29.00000, Total charge =  0.00000
