  ==> Input File <==

--------------------------------------------------------------------------
set {
	reference rhf
	basis cc-pvtz
}

set_num_threads( 4 )
memory 2 gb

molecule MOL {
0 1

O	 -1.510770	 1.240811	 -0.054933
C	 -1.081510	 0.147522	 0.122720
C	 0.327029	 -0.064006	 0.641890
C	 -1.903028	 -1.084121	 -0.174656
C	 1.349460	 -0.017068	 -0.500215
H	 0.399029	 -1.014606	 1.159950
H	 0.538021	 0.726928	 1.350471
C	 2.784765	 0.065681	 0.006536
H	 1.239382	 -0.897158	 -1.127242
H	 1.130135	 0.839998	 -1.126044
H	 3.485070	 0.108995	 -0.819132
H	 3.038633	 -0.797928	 0.611913
H	 2.932674	 0.951532	 0.614204
H	 -1.341891	 -1.779207	 -0.789259
H	 -2.820449	 -0.808163	 -0.671328
H	 -2.133314	 -1.593056	 0.755831

	symmetry c1
}
set optking {
	frozen_dihedral = ("
		9 5 3 2
	")
}

ee = optimize('scf')
oeprop('DIPOLE', 'QUADRUPOLE', 'MULLIKEN_CHARGES')
f=open( 'psi4out.xyz', 'w' )
f.write( "16  " )
f.write( str(ee) + "\n" )
f.write( MOL.save_string_xyz() )
f.close()
--------------------------------------------------------------------------

    Molecular point group: c1
  Charge       = 0
  Multiplicity = 1
  Basis Set: CC-PVTZ
  Basis Set:
  @DF-RHF Final Energy:  -270.12895502191043
    Total Energy =                       -270.1289550219103148
    Molecular point group: c1
  Basis Set: CC-PVTZ
  Basis Set:
  Basis Set: CC-PVTZ
  Basis Set:
  @DF-RHF Final Energy:  -270.12901695972010
    Total Energy =                       -270.1290169597201043
  Basis Set: CC-PVTZ
  Basis Set:
  Basis Set: CC-PVTZ
  Basis Set:
  @DF-RHF Final Energy:  -270.12902330789842
    Total Energy =                       -270.1290233078984215
  Basis Set: CC-PVTZ
  Basis Set:
  Basis Set: CC-PVTZ
  Basis Set:
  @DF-RHF Final Energy:  -270.12903204276870
    Total Energy =                       -270.1290320427684719
  Basis Set: CC-PVTZ
  Basis Set:
  Basis Set: CC-PVTZ
  Basis Set:
  @DF-RHF Final Energy:  -270.12903537850389
    Total Energy =                       -270.1290353785035450
  Basis Set: CC-PVTZ
  Basis Set:
  Charge       = 0
  Multiplicity = 1
  Basis Set: CC-PVTZ
  Basis Set:

    Orbital Energies (a.u.)
    -----------------------

    Doubly Occupied:

       1A    -20.537355     2A    -11.319874     3A    -11.231482
       4A    -11.228363     5A    -11.227299     6A    -11.217129
       7A     -1.397618     8A     -1.083409     9A     -1.014138
      10A     -0.950140    11A     -0.829447    12A     -0.736444
      13A     -0.662412    14A     -0.649691    15A     -0.614095
      16A     -0.610274    17A     -0.576024    18A     -0.558350
      19A     -0.540669    20A     -0.518026    21A     -0.503624
      22A     -0.485536    23A     -0.474332    24A     -0.400573

  @DF-RHF Final Energy:  -270.12903584934014

   => Energetics <=

    Nuclear Repulsion Energy =            237.4908547415211046
    One-Electron Energy =                -836.5071708192424467
    Two-Electron Energy =                 328.8872802283810302
    DFT Exchange-Correlation Energy =       0.0000000000000000
    Empirical Dispersion Energy =           0.0000000000000000
    PCM Polarization Energy =               0.0000000000000000
    EFP Energy =                            0.0000000000000000
    Total Energy =                       -270.1290358493402550
    Molecular point group: c1
  Basis Set: CC-PVTZ
  Basis Set:

  -Total Gradient:
     Atom            X                  Y                   Z
    ------   -----------------  -----------------  -----------------
       1        0.000021877011     0.000005000896    -0.000022661225
       2        0.000118880202     0.001519913361     0.000210282132
       3        0.000142959878    -0.002348683410     0.000018500461
       4       -0.000007206956     0.000012416086     0.000001091250
       5       -0.001736159364     0.001870978524    -0.001474809715
       6        0.000002485407     0.000001359055    -0.000011572463
       7       -0.000000991637    -0.000002255219     0.000015052683
       8        0.000015937292    -0.000002186650     0.000004438437
       9        0.001434520137    -0.001042479589     0.001241707989
      10       -0.000004254405    -0.000010307903     0.000011684604
      11        0.000004991513     0.000002062118     0.000000330794
      12        0.000003651288    -0.000002163589    -0.000002915955
      13       -0.000000445623    -0.000001385548     0.000001397353
      14        0.000004539811    -0.000001387664     0.000002497635
      15       -0.000002203252    -0.000002282772     0.000001380893
      16        0.000001418695     0.000001402305     0.000003595125

  **** Optimization is complete! (in 6 steps) ****
    Final optimized geometry and variables:
    Molecular point group: c1

    Geometry (in Angstrom), charge = 0, multiplicity = 1:

    O           -1.525202986511     1.190098709640    -0.036347107004
    C           -1.084375257461     0.098848329831     0.124168971435
    C            0.329118842191    -0.102954526755     0.634556917426
    C           -1.894607238461    -1.136767727729    -0.186881002376
    C            1.349241063551    -0.055668991767    -0.511246854484
    H            0.414518602957    -1.044622378894     1.166022456640
    H            0.532962536671     0.700917000138     1.330659223804
    C            2.785297987143     0.008585636994    -0.000755056206
    H            1.240752685010    -0.939175089225    -1.133097952242
    H            1.143588697228     0.806627621200    -1.134026969712
    H            3.488844200171     0.021488845441    -0.824775656040
    H            3.019645809170    -0.848576221368     0.621640656367
    H            2.948694462651     0.902538209805     0.590450773942
    H           -1.330168885245    -1.814476397011    -0.817737357258
    H           -2.819301805913    -0.863570208099    -0.671484156551
    H           -2.111233696773    -1.664077727653     0.736663884939

  Mulliken Charges: (a.u.)
   Center  Symbol    Alpha    Beta     Spin     Total
       1     O     4.17694  4.17694  0.00000 -0.35388
       2     C     2.85758  2.85758  0.00000  0.28485
       3     C     3.09850  3.09850  0.00000 -0.19701
       4     C     3.15477  3.15477  0.00000 -0.30955
       5     C     3.09192  3.09192  0.00000 -0.18385
       6     H     0.44897  0.44897  0.00000  0.10207
       7     H     0.44026  0.44026  0.00000  0.11948
       8     C     3.14803  3.14803  0.00000 -0.29606
       9     H     0.45303  0.45303  0.00000  0.09394
      10     H     0.44144  0.44144  0.00000  0.11711
      11     H     0.44650  0.44650  0.00000  0.10700
      12     H     0.45516  0.45516  0.00000  0.08968
      13     H     0.45126  0.45126  0.00000  0.09749
      14     H     0.45101  0.45101  0.00000  0.09797
      15     H     0.43607  0.43607  0.00000  0.12787
      16     H     0.44856  0.44856  0.00000  0.10288

   Total alpha = 24.00000, Total beta = 24.00000, Total charge =  0.00000
