  ==> Input File <==

--------------------------------------------------------------------------
set {
	reference rhf
	basis 6-31G*
}

set_num_threads( 1 )
memory 2 gb

molecule MOL {
0 1

H	 -1.402156	 -0.404012	 -0.563397
N	 -0.626943	 -0.667432	 -0.000092
C	 -0.727299	 -1.882669	 0.775695
C	 0.469286	 0.129090	 0.000148
H	 -1.550916	 -1.827195	 1.479671
H	 0.192636	 -2.010132	 1.322688
H	 -0.876658	 -2.743469	 0.132464
C	 1.788933	 -0.616240	 -0.000037
O	 0.411098	 1.327768	 -0.000049
H	 1.872803	 -1.245775	 -0.880381
H	 2.595421	 0.101576	 0.003713
H	 1.870096	 -1.252171	 0.875943

	symmetry c1
}
set optking {
	frozen_dihedral = ("
		4 2 3 5
	")
}

ee = energy('scf')
oeprop('DIPOLE', 'QUADRUPOLE', 'MULLIKEN_CHARGES')
f=open( 'psi4out.xyz', 'w' )
f.write( "12  " )
f.write( str(ee) + "\n" )
f.write( MOL.save_string_xyz() )
f.close()
--------------------------------------------------------------------------

    Molecular point group: c1

    Geometry (in Angstrom), charge = 0, multiplicity = 1:

       Center              X                  Y                   Z               Mass
    ------------   -----------------  -----------------  -----------------  -----------------
           H         -1.660732819950    -0.048091477033    -0.723512116273     1.007825032070
           N         -0.885519819950    -0.311511477033    -0.160207116273    14.003074004780
           C         -0.985875819950    -1.526748477033     0.615579883727    12.000000000000
           C          0.210709180050     0.485010522967    -0.159967116273    12.000000000000
           H         -1.809492819950    -1.471274477033     1.319555883727     1.007825032070
           H         -0.065940819950    -1.654211477033     1.162572883727     1.007825032070
           H         -1.135234819950    -2.387548477033    -0.027651116273     1.007825032070
           C          1.530356180050    -0.260319477033    -0.160152116273    12.000000000000
           O          0.152521180050     1.683688522967    -0.160164116273    15.994914619560
           H          1.614226180050    -0.889854477033    -1.040496116273     1.007825032070
           H          2.336844180050     0.457496522967    -0.156402116273     1.007825032070
           H          1.611519180050    -0.896250477033     0.715827883727     1.007825032070

  Charge       = 0
  Multiplicity = 1
  Basis Set: 6-31G*
  Basis Set:

    Orbital Energies (a.u.)
    -----------------------

    Doubly Occupied:

       1A    -20.525469     2A    -15.568888     3A    -11.344648
       4A    -11.267634     5A    -11.226726     6A     -1.386950
       7A     -1.229419     8A     -1.003219     9A     -0.952620
      10A     -0.787363    11A     -0.676908    12A     -0.660563
      13A     -0.638383    14A     -0.595446    15A     -0.579355
      16A     -0.565270    17A     -0.555410    18A     -0.496033
      19A     -0.415606    20A     -0.379140

  @DF-RHF Final Energy:  -246.98319875168269

   => Energetics <=

    Nuclear Repulsion Energy =            181.9336698694787344
    One-Electron Energy =                -696.1235831603092947
    Two-Electron Energy =                 267.2067145391481517
    DFT Exchange-Correlation Energy =       0.0000000000000000
    Empirical Dispersion Energy =           0.0000000000000000
    PCM Polarization Energy =               0.0000000000000000
    EFP Energy =                            0.0000000000000000
    Total Energy =                       -246.9831987516823801

  Mulliken Charges: (a.u.)
   Center  Symbol    Alpha    Beta     Spin     Total
       1     H     0.30574  0.30574  0.00000  0.38852
       2     N     3.89024  3.89024  0.00000 -0.78049
       3     C     3.13784  3.13784  0.00000 -0.27567
       4     C     2.64478  2.64478  0.00000  0.71045
       5     H     0.40859  0.40859  0.00000  0.18282
       6     H     0.41276  0.41276  0.00000  0.17448
       7     H     0.41626  0.41626  0.00000  0.16748
       8     C     3.29177  3.29177  0.00000 -0.58355
       9     O     4.28194  4.28194  0.00000 -0.56387
      10     H     0.40487  0.40487  0.00000  0.19026
      11     H     0.39504  0.39504  0.00000  0.20991
      12     H     0.41017  0.41017  0.00000  0.17966

   Total alpha = 20.00000, Total beta = 20.00000, Total charge =  0.00000
