  ==> Input File <==

--------------------------------------------------------------------------
set {
	reference rhf
	basis 6-31G*
}

set_num_threads( 4 )
memory 2 gb

molecule MOL {
0 1

H	 2.332609	 0.878551	 -1.051851
C	 2.357710	 0.000000	 -0.417167
C	 1.175432	 0.000000	 0.532082
H	 3.291263	 0.000000	 0.136880
H	 2.332609	 -0.878551	 -1.051851
O	 0.000000	 0.000000	 -0.221444
H	 1.206604	 0.877321	 1.177902
H	 1.206604	 -0.877321	 1.177902
C	 -1.175432	 0.000000	 0.532082
C	 -0.816006	 -0.225158	 1.987750
H	 -1.845961	 -0.783946	 0.180562
H	 -1.697607	 0.949029	 0.411982
H	 -0.306548	 -1.174447	 2.108619
H	 -1.709445	 -0.231016	 2.604372
H	 -0.157986	 0.560958	 2.340363

	symmetry c1
}
set optking {
	frozen_dihedral = ("
		11 9 6 3
	")
}

ee = optimize('scf')
oeprop('DIPOLE', 'QUADRUPOLE', 'MULLIKEN_CHARGES')
f=open( 'psi4out.xyz', 'w' )
f.write( "15  " )
f.write( str(ee) + "\n" )
f.write( MOL.save_string_xyz() )
f.close()
--------------------------------------------------------------------------

    Molecular point group: c1
  Charge       = 0
  Multiplicity = 1
  Basis Set: 6-31G*
  Basis Set:
  @DF-RHF Final Energy:  -232.11640242079369
    Total Energy =                       -232.1164024207938041
    Molecular point group: c1
  Basis Set: 6-31G*
  Basis Set:
  Basis Set: 6-31G*
  Basis Set:
  @DF-RHF Final Energy:  -232.12122166328129
    Total Energy =                       -232.1212216632814034
  Basis Set: 6-31G*
  Basis Set:
  Basis Set: 6-31G*
  Basis Set:
  @DF-RHF Final Energy:  -232.12907469786535
    Total Energy =                       -232.1290746978652351
  Basis Set: 6-31G*
  Basis Set:
  Basis Set: 6-31G*
  Basis Set:
  @DF-RHF Final Energy:  -232.13244709908054
    Total Energy =                       -232.1324470990805935
  Basis Set: 6-31G*
  Basis Set:
  @DF-RHF Final Energy:  -232.13297842085589
    Total Energy =                       -232.1329784208559204
  @DF-RHF Final Energy:  -232.13389745572482
    Total Energy =                       -232.1338974557247639
  Basis Set: 6-31G*
  Basis Set:
  @DF-RHF Final Energy:  -232.13408541687411
    Total Energy =                       -232.1340854168743135
  Basis Set: 6-31G*
  Basis Set:
  Basis Set: 6-31G*
  Basis Set:
  @DF-RHF Final Energy:  -232.13410438958925
    Total Energy =                       -232.1341043895893677
  Basis Set: 6-31G*
  Basis Set:
  Basis Set: 6-31G*
  Basis Set:
  @DF-RHF Final Energy:  -232.13410555072161
    Total Energy =                       -232.1341055507216424
  Basis Set: 6-31G*
  Basis Set:
  Charge       = 0
  Multiplicity = 1
  Basis Set: 6-31G*
  Basis Set:

    Orbital Energies (a.u.)
    -----------------------

    Doubly Occupied:

       1A    -20.544292     2A    -11.268714     3A    -11.267064
       4A    -11.217735     5A    -11.206483     6A     -1.366112
       7A     -1.040172     8A     -0.991084     9A     -0.871736
      10A     -0.795695    11A     -0.673103    12A     -0.662519
      13A     -0.611655    14A     -0.603175    15A     -0.547968
      16A     -0.534109    17A     -0.522633    18A     -0.501980
      19A     -0.500618    20A     -0.448662    21A     -0.398745

  @DF-RHF Final Energy:  -232.13410563700214

   => Energetics <=

    Nuclear Repulsion Energy =            192.9625854801928710
    One-Electron Energy =                -697.0448760279679163
    Two-Electron Energy =                 271.9481849107728522
    DFT Exchange-Correlation Energy =       0.0000000000000000
    Empirical Dispersion Energy =           0.0000000000000000
    PCM Polarization Energy =               0.0000000000000000
    EFP Energy =                            0.0000000000000000
    Total Energy =                       -232.1341056370022216
    Molecular point group: c1
  Basis Set: 6-31G*
  Basis Set:

  -Total Gradient:
     Atom            X                  Y                   Z
    ------   -----------------  -----------------  -----------------
       1        0.000002425696     0.000001883493    -0.000004166139
       2       -0.000015016219     0.000005575190    -0.000002174585
       3        0.000008412076    -0.001930484062    -0.000009379320
       4       -0.000007010108     0.000001665159     0.000004141819
       5       -0.000001601513    -0.000000839048     0.000001602868
       6        0.000178570448     0.002576210244     0.000332116498
       7       -0.000003763501     0.000005970854    -0.000001019862
       8        0.000011740059     0.000006579813    -0.000002585083
       9       -0.001045052557     0.000751582651    -0.001730823009
      10       -0.000005652781    -0.000005185762     0.000001240468
      11        0.000876197604    -0.001418482894     0.001412117410
      12        0.000003943015     0.000001169358    -0.000002874321
      13       -0.000007532995     0.000002804954     0.000000506172
      14       -0.000001562462    -0.000000292750     0.000004731206
      15        0.000005903238     0.000001842801    -0.000003434120

  **** Optimization is complete! (in 10 steps) ****
    Final optimized geometry and variables:
    Molecular point group: c1

    Geometry (in Angstrom), charge = 0, multiplicity = 1:

    H            1.970700607956     0.937026652198    -1.685571320037
    C            2.064237449407     0.055719856336    -1.061291297043
    C            0.989106219726     0.049402195561     0.008980771996
    H            3.051557415437     0.053995094753    -0.609097977280
    H            1.971418441006    -0.819667078561    -1.694060430722
    O           -0.248189596670     0.052071620372    -0.641654999178
    H            1.098424919854     0.924509976539     0.646363600975
    H            1.100503885347    -0.829167133578     0.638575041325
    C           -1.454060183242     0.037057663138     0.084256440576
    C           -1.360074609369    -0.189946925291     1.589982660061
    H           -2.060007057591    -0.756887133612    -0.339160827085
    H           -1.965919504023     0.976894404648    -0.101153028102
    H           -0.915514956378    -1.149182175096     1.829903013049
    H           -2.365419033709    -0.181812404453     2.000012400302
    H           -0.795014824362     0.586631383633     2.092522999042

  Mulliken Charges: (a.u.)
   Center  Symbol    Alpha    Beta     Spin     Total
       1     H     0.41384  0.41384  0.00000  0.17231
       2     C     3.24200  3.24200  0.00000 -0.48399
       3     C     2.98530  2.98530  0.00000  0.02939
       4     H     0.42394  0.42394  0.00000  0.15213
       5     H     0.41405  0.41405  0.00000  0.17190
       6     O     4.32100  4.32100  0.00000 -0.64200
       7     H     0.43257  0.43257  0.00000  0.13486
       8     H     0.43126  0.43126  0.00000  0.13747
       9     C     2.97425  2.97425  0.00000  0.05150
      10     C     3.26889  3.26889  0.00000 -0.53778
      11     H     0.42269  0.42269  0.00000  0.15462
      12     H     0.42584  0.42584  0.00000  0.14832
      13     H     0.41465  0.41465  0.00000  0.17069
      14     H     0.41435  0.41435  0.00000  0.17130
      15     H     0.41536  0.41536  0.00000  0.16928

   Total alpha = 21.00000, Total beta = 21.00000, Total charge = -0.00000
