                              Psi4 1.0.54 Driver

  ==> Input File <==

--------------------------------------------------------------------------
set {
	reference rhf
	basis cc-pvtz
}

set_num_threads( 4 )
memory 2 gb

molecule MOL {
0 1

H	 2.856461	 0.359505	 1.196985
O	 3.552828	 0.179605	 0.593214
C	 3.469514	 -1.144647	 0.136391
C	 2.321911	 -1.380284	 -0.834262
H	 4.409672	 -1.345844	 -0.359192
H	 3.394894	 -1.832007	 0.976878
C	 0.934823	 -1.210335	 -0.218670
H	 2.435038	 -0.701400	 -1.674189
H	 2.419400	 -2.389073	 -1.228268
C	 -0.191383	 -1.486841	 -1.213679
H	 0.835410	 -0.201732	 0.168420
H	 0.833042	 -1.883210	 0.631134
C	 -1.603448	 -1.403410	 -0.631127
H	 -0.106697	 -0.796525	 -2.049454
H	 -0.049278	 -2.481134	 -1.627993
C	 -2.041121	 -0.006551	 -0.194127
H	 -2.302827	 -1.766083	 -1.379368
H	 -1.684251	 -2.085755	 0.212100
C	 -3.489218	 0.042606	 0.286507
H	 -1.917009	 0.683815	 -1.025666
H	 -1.396125	 0.355543	 0.600776
C	 -4.219984	 1.311773	 -0.139038
H	 -4.022855	 -0.824300	 -0.093339
H	 -3.510372	 -0.038577	 1.370031
H	 -4.244251	 1.405725	 -1.219696
H	 -5.244345	 1.313233	 0.215630
H	 -3.732090	 2.196311	 0.257073

	symmetry c1
}
set optking {
	frozen_dihedral = ("
		20 16 19 22
	")
}

ee,wfn = optimize('scf', return_wfn=True)
oeprop( wfn, 'DIPOLE', 'QUADRUPOLE', 'MULLIKEN_CHARGES')
f=open( 'psi4out.xyz', 'w' )
f.write( "27  " )
f.write( str(ee) + "\n" )
f.write( MOL.save_string_xyz() )
f.close()
--------------------------------------------------------------------------

    Molecular point group: c1
  Charge       = 0
  Multiplicity = 1
  Basis Set: CC-PVTZ
  Basis Set:
  @DF-RHF Final Energy:  -388.42362145874483
    Total Energy =                       -388.4236214587449467
    Molecular point group: c1
  Basis Set: CC-PVTZ
  Basis Set:
  Basis Set: CC-PVTZ
  Basis Set:
  @DF-RHF Final Energy:  -388.42380294209823
    Total Energy =                       -388.4238029420973817
  Basis Set: CC-PVTZ
  Basis Set:
  Basis Set: CC-PVTZ
  Basis Set:
  @DF-RHF Final Energy:  -388.42395765573696
    Total Energy =                       -388.4239576557370128
  Basis Set: CC-PVTZ
  Basis Set:
  Basis Set: CC-PVTZ
  Basis Set:
  @DF-RHF Final Energy:  -388.42393862163306
    Total Energy =                       -388.4239386216323737
  Basis Set: CC-PVTZ
  Basis Set:
  Basis Set: CC-PVTZ
  Basis Set:
  @DF-RHF Final Energy:  -388.42396843439752
    Total Energy =                       -388.4239684343976933
  Basis Set: CC-PVTZ
  Basis Set:
  Charge       = 0
  Multiplicity = 1
  Basis Set: CC-PVTZ
  Basis Set:

    Orbital Energies (a.u.)
    -----------------------

    Doubly Occupied:

       1A    -20.545410     2A    -11.265035     3A    -11.216826
       4A    -11.214736     5A    -11.213803     6A    -11.213645
       7A    -11.213293     8A    -11.211533     9A    -11.207476
      10A     -1.363302    11A     -1.095564    12A     -1.061438
      13A     -1.012380    14A     -0.949299    15A     -0.888730
      16A     -0.821506    17A     -0.801485    18A     -0.779132
      19A     -0.696346    20A     -0.649338    21A     -0.639514
      22A     -0.615833    23A     -0.598601    24A     -0.587531
      25A     -0.581665    26A     -0.554639    27A     -0.541783
      28A     -0.529726    29A     -0.510199    30A     -0.492319
      31A     -0.483381    32A     -0.477672    33A     -0.467960
      34A     -0.460046    35A     -0.450895    36A     -0.442030
      37A     -0.425513

  @DF-RHF Final Energy:  -388.42396860315102

   => Energetics <=

    Nuclear Repulsion Energy =            459.5112855325008923
    One-Electron Energy =               -1437.3113498478458041
    Two-Electron Energy =                 589.3760957121935462
    DFT Exchange-Correlation Energy =       0.0000000000000000
    Empirical Dispersion Energy =           0.0000000000000000
    PCM Polarization Energy =               0.0000000000000000
    EFP Energy =                            0.0000000000000000
    Total Energy =                       -388.4239686031513656
    Molecular point group: c1
  Basis Set: CC-PVTZ
  Basis Set:

  -Total Gradient:
     Atom            X                  Y                   Z
    ------   -----------------  -----------------  -----------------
       1       -0.000005293528     0.000004691761     0.000003008971
       2       -0.000004852719    -0.000001541525     0.000001332933
       3        0.000004534157    -0.000002071326    -0.000007800444
       4        0.000001965747    -0.000006242500     0.000000706378
       5       -0.000000586489    -0.000002742568    -0.000003147750
       6       -0.000000180020    -0.000000513802     0.000001867625
       7       -0.000005629224     0.000007122023    -0.000002596315
       8        0.000000715546    -0.000000433491     0.000001529926
       9        0.000002690178    -0.000003674184    -0.000001658954
      10        0.000004791107     0.000000305675     0.000010055634
      11       -0.000006920410     0.000009980733     0.000004770832
      12       -0.000004832745     0.000002324464    -0.000000599451
      13       -0.000037176898     0.000001195646    -0.000008452285
      14       -0.000008074457    -0.000000199001     0.000003327884
      15        0.000008313366    -0.000001141179     0.000000880020
      16       -0.001770229700    -0.004327568708    -0.004061219450
      17        0.000016545825    -0.000001961184    -0.000007518802
      18       -0.000007606862    -0.000001980705    -0.000004651562
      19        0.001684016306     0.002675645256     0.003978997477
      20        0.001057362751     0.003054917190     0.002503488939
      21        0.000017245684     0.000004282478     0.000036828003
      22       -0.000975376481    -0.001395236764    -0.002453156418
      23        0.000008681949    -0.000026185234    -0.000002997777
      24        0.000021415835     0.000012298517     0.000001828171
      25       -0.000001915776    -0.000006774178    -0.000004827048
      26        0.000000046156    -0.000007135550     0.000011564441
      27        0.000000350706     0.000012638151    -0.000001560976

  **** Optimization is complete! (in 6 steps) ****
    Final optimized geometry and variables:
    Molecular point group: c1

    Geometry (in Angstrom), charge = 0, multiplicity = 1:

    H            2.941310649771     0.901419676960     1.439571457449
    O            3.643011348553     0.721793749153     0.842132911621
    C            3.563613889381    -0.601958382792     0.383305070664
    C            2.425529473974    -0.836237358071    -0.598695318585
    H            4.508501014101    -0.803247771554    -0.103137072236
    H            3.480350781316    -1.289897137157     1.222454536540
    C            1.032629990049    -0.660462936362     0.001895820558
    H            2.549587841539    -0.159599014026    -1.438808645462
    H            2.524097491774    -1.846171363645    -0.989438022382
    C           -0.083895620487    -0.944931699229    -1.001829233038
    H            0.930406584648     0.350946463325     0.380559295519
    H            0.922230118388    -1.326892859120     0.855549769618
    C           -1.501943257561    -0.860871293248    -0.434502225408
    H            0.007398183855    -0.260441736892    -1.841709417297
    H            0.064427758478    -1.941782365605    -1.407616731414
    C           -1.957782580078     0.540559334036    -0.036236809779
    H           -2.192292446472    -1.247231605516    -1.179019699373
    H           -1.585490260067    -1.523080280427     0.424692341975
    C           -3.388038466052     0.586066798339     0.525374309605
    H           -1.876872034468     1.214081268787    -0.885476356255
    H           -1.280961585981     0.949318439999     0.707505245627
    C           -4.158547026419     1.839244220550     0.121421378093
    H           -3.939900805820    -0.279989741178     0.171020648493
    H           -3.361876602973     0.500741976792     1.606722357652
    H           -4.264715577265     1.894527191992    -0.956562412400
    H           -5.152335769691     1.847269252786     0.554680636528
    H           -3.648957258098     2.740285025466     0.448125858741

  Mulliken Charges: (a.u.)
   Center  Symbol    Alpha    Beta     Spin     Total
       1     H     0.39229  0.39229  0.00000  0.21542
       2     O     4.20550  4.20550  0.00000 -0.41101
       3     C     2.98002  2.98002  0.00000  0.03996
       4     C     3.08909  3.08909  0.00000 -0.17818
       5     H     0.44856  0.44856  0.00000  0.10288
       6     H     0.46967  0.46967  0.00000  0.06067
       7     C     3.10255  3.10255  0.00000 -0.20511
       8     H     0.45074  0.45074  0.00000  0.09852
       9     H     0.45528  0.45528  0.00000  0.08943
      10     C     3.09869  3.09869  0.00000 -0.19738
      11     H     0.45589  0.45589  0.00000  0.08822
      12     H     0.45380  0.45380  0.00000  0.09240
      13     C     3.09730  3.09730  0.00000 -0.19460
      14     H     0.45165  0.45165  0.00000  0.09670
      15     H     0.44797  0.44797  0.00000  0.10407
      16     C     3.09247  3.09247  0.00000 -0.18493
      17     H     0.44769  0.44769  0.00000  0.10462
      18     H     0.45309  0.45309  0.00000  0.09383
      19     C     3.08495  3.08495  0.00000 -0.16989
      20     H     0.45367  0.45367  0.00000  0.09266
      21     H     0.45366  0.45366  0.00000  0.09269
      22     C     3.14790  3.14790  0.00000 -0.29580
      23     H     0.45608  0.45608  0.00000  0.08784
      24     H     0.45214  0.45214  0.00000  0.09572
      25     H     0.45515  0.45515  0.00000  0.08971
      26     H     0.44939  0.44939  0.00000  0.10121
      27     H     0.45483  0.45483  0.00000  0.09034

   Total alpha = 37.00000, Total beta = 37.00000, Total charge = -0.00000

*** Psi4 exiting successfully. Buy a developer a beer!
