  ==> Input File <==

--------------------------------------------------------------------------
set {
	reference rhf
	basis cc-pvtz
}

set_num_threads( 4 )
memory 2 gb

molecule MOL {
0 1

H	 -2.662508	 -0.501705	 -0.778542
O	 -2.346257	 -0.289210	 0.080372
C	 -1.183935	 0.486039	 -0.009831
C	 0.062853	 -0.375310	 0.027457
H	 -1.178881	 1.094526	 -0.908634
H	 -1.184406	 1.155156	 0.838676
O	 1.172093	 0.457955	 -0.054438
H	 0.052476	 -1.081302	 -0.804627
H	 0.076323	 -0.955658	 0.947560
C	 2.395478	 -0.199028	 -0.000366
H	 2.505946	 -0.901710	 -0.823354
H	 3.174616	 0.545641	 -0.071768
H	 2.513730	 -0.742241	 0.934223

	symmetry c1
}
set optking {
	frozen_dihedral = ("
		1 2 3 5
	")
}

ee = optimize('scf')
oeprop('DIPOLE', 'QUADRUPOLE', 'MULLIKEN_CHARGES')
f=open( 'psi4out.xyz', 'w' )
f.write( "13  " )
f.write( str(ee) + "\n" )
f.write( MOL.save_string_xyz() )
f.close()
--------------------------------------------------------------------------

    Molecular point group: c1
  Charge       = 0
  Multiplicity = 1
  Basis Set: CC-PVTZ
  Basis Set:
  @DF-RHF Final Energy:  -268.06193450748384
    Total Energy =                       -268.0619345074838407
    Molecular point group: c1
  Basis Set: CC-PVTZ
  Basis Set:
  Basis Set: CC-PVTZ
  Basis Set:
  @DF-RHF Final Energy:  -268.06198104621842
    Total Energy =                       -268.0619810462182500
  Basis Set: CC-PVTZ
  Basis Set:
  Basis Set: CC-PVTZ
  Basis Set:
  @DF-RHF Final Energy:  -268.06199783718557
    Total Energy =                       -268.0619978371854586
  Basis Set: CC-PVTZ
  Basis Set:
  Charge       = 0
  Multiplicity = 1
  Basis Set: CC-PVTZ
  Basis Set:

    Orbital Energies (a.u.)
    -----------------------

    Doubly Occupied:

       1A    -20.554535     2A    -20.552359     3A    -11.267929
       4A    -11.266708     5A    -11.266621     6A     -1.390485
       7A     -1.368606     8A     -1.019257     9A     -0.913250
      10A     -0.839262    11A     -0.714653    12A     -0.676761
      13A     -0.657911    14A     -0.641261    15A     -0.599956
      16A     -0.563303    17A     -0.547983    18A     -0.487403
      19A     -0.486821    20A     -0.440804    21A     -0.423176

  @DF-RHF Final Energy:  -268.06199813066542

   => Energetics <=

    Nuclear Repulsion Energy =            190.4336321142015152
    One-Electron Energy =                -743.6331718431031277
    Two-Electron Energy =                 285.1375415982365666
    DFT Exchange-Correlation Energy =       0.0000000000000000
    Empirical Dispersion Energy =           0.0000000000000000
    PCM Polarization Energy =               0.0000000000000000
    EFP Energy =                            0.0000000000000000
    Total Energy =                       -268.0619981306650743
    Molecular point group: c1
  Basis Set: CC-PVTZ
  Basis Set:

  -Total Gradient:
     Atom            X                  Y                   Z
    ------   -----------------  -----------------  -----------------
       1       -0.000525655781     0.000749586285    -0.000004614495
       2        0.000786040716    -0.001058576249    -0.000160504822
       3       -0.000644013685     0.000921702835     0.000591121083
       4        0.000026077754    -0.000006301742    -0.000009422475
       5        0.000353942715    -0.000615039076    -0.000393667324
       6        0.000006640408     0.000019823575    -0.000002423671
       7        0.000000245275     0.000010920063    -0.000008494699
       8        0.000012912034    -0.000015636722    -0.000005162247
       9       -0.000009348789     0.000002331976    -0.000004152821
      10        0.000001304961    -0.000016926183    -0.000003167109
      11        0.000003889877     0.000001560633    -0.000000045229
      12       -0.000011376986     0.000004787774    -0.000000912140
      13       -0.000000658501     0.000001766829     0.000001445949

  **** Optimization is complete! (in 4 steps) ****
    Final optimized geometry and variables:
    Molecular point group: c1

    Geometry (in Angstrom), charge = 0, multiplicity = 1:

    H           -2.652141596193    -0.524281526900    -0.769254186338
    O           -2.338457270357    -0.297568187024     0.085723252112
    C           -1.182181628838     0.488843843235    -0.010535226603
    C            0.062003876271    -0.376069222506     0.021721836578
    H           -1.180186276121     1.086774562315    -0.915639749734
    H           -1.172267578460     1.165910871377     0.832368020010
    O            1.173521919533     0.456011942283    -0.051377896000
    H            0.049214270547    -1.075628963012    -0.814426498103
    H            0.072118825063    -0.962284696796     0.938126150824
    C            2.395045764778    -0.204174193464     0.000763606694
    H            2.505763470426    -0.901553449039    -0.826693174570
    H            3.176321584053     0.538971058116    -0.063650216223
    H            2.509911675304    -0.754246177508     0.931794746212

  Mulliken Charges: (a.u.)
   Center  Symbol    Alpha    Beta     Spin     Total
       1     H     0.39212  0.39212  0.00000  0.21576
       2     O     4.20438  4.20438  0.00000 -0.40876
       3     C     2.97524  2.97524  0.00000  0.04951
       4     C     2.96049  2.96049  0.00000  0.07902
       5     H     0.46723  0.46723  0.00000  0.06554
       6     H     0.45439  0.45439  0.00000  0.09122
       7     O     4.17617  4.17617  0.00000 -0.35233
       8     H     0.48073  0.48073  0.00000  0.03855
       9     H     0.47033  0.47033  0.00000  0.05934
      10     C     3.03146  3.03146  0.00000 -0.06292
      11     H     0.47125  0.47125  0.00000  0.05749
      12     H     0.44632  0.44632  0.00000  0.10736
      13     H     0.46989  0.46989  0.00000  0.06021

   Total alpha = 21.00000, Total beta = 21.00000, Total charge =  0.00000
