  ==> Input File <==

--------------------------------------------------------------------------
set {
	reference rhf
	basis 6-31G*
}

set_num_threads( 1 )
memory 2 gb

molecule MOL {
0 1

H	 -0.679546	 -1.398891	 0.670623
N	 -0.626943	 -0.667432	 -0.000092
C	 -1.726037	 -0.507623	 -0.924846
C	 0.469286	 0.129090	 0.000148
H	 -1.860397	 -1.400360	 -1.526488
H	 -1.501315	 0.322074	 -1.575100
H	 -2.651250	 -0.300993	 -0.397288
C	 1.788933	 -0.616240	 -0.000037
O	 0.411098	 1.327768	 -0.000049
H	 1.872803	 -1.245775	 -0.880381
H	 2.595421	 0.101576	 0.003713
H	 1.870096	 -1.252171	 0.875943

	symmetry c1
}
set optking {
	frozen_dihedral = ("
		4 2 3 5
	")
}

ee = energy('scf')
oeprop('DIPOLE', 'QUADRUPOLE', 'MULLIKEN_CHARGES')
f=open( 'psi4out.xyz', 'w' )
f.write( "12  " )
f.write( str(ee) + "\n" )
f.write( MOL.save_string_xyz() )
f.close()
--------------------------------------------------------------------------

    Molecular point group: c1

    Geometry (in Angstrom), charge = 0, multiplicity = 1:

       Center              X                  Y                   Z               Mass
    ------------   -----------------  -----------------  -----------------  -----------------
           H         -0.731913254166    -1.326876327880     0.861580961646     1.007825032070
           N         -0.679310254166    -0.595417327880     0.190865961646    14.003074004780
           C         -1.778404254166    -0.435608327880    -0.733888038354    12.000000000000
           C          0.416918745834     0.201104672120     0.191105961646    12.000000000000
           H         -1.912764254166    -1.328345327880    -1.335530038354     1.007825032070
           H         -1.553682254166     0.394088672120    -1.384142038354     1.007825032070
           H         -2.703617254166    -0.228978327880    -0.206330038354     1.007825032070
           C          1.736565745834    -0.544225327880     0.190920961646    12.000000000000
           O          0.358730745834     1.399782672120     0.190908961646    15.994914619560
           H          1.820435745834    -1.173760327880    -0.689423038354     1.007825032070
           H          2.543053745834     0.173590672120     0.194670961646     1.007825032070
           H          1.817728745834    -1.180156327880     1.066900961646     1.007825032070

  Charge       = 0
  Multiplicity = 1
  Basis Set: 6-31G*
  Basis Set:

    Orbital Energies (a.u.)
    -----------------------

    Doubly Occupied:

       1A    -20.531848     2A    -15.562393     3A    -11.345323
       4A    -11.258093     5A    -11.226468     6A     -1.390655
       7A     -1.223498     8A     -1.010627     9A     -0.933539
      10A     -0.784191    11A     -0.686266    12A     -0.647034
      13A     -0.637063    14A     -0.585693    15A     -0.582699
      16A     -0.559969    17A     -0.548588    18A     -0.494352
      19A     -0.419550    20A     -0.375544

  @DF-RHF Final Energy:  -246.98193037466314

   => Energetics <=

    Nuclear Repulsion Energy =            180.9682313554041002
    One-Electron Energy =                -694.2935086516536103
    Two-Electron Energy =                 266.3433469215864307
    DFT Exchange-Correlation Energy =       0.0000000000000000
    Empirical Dispersion Energy =           0.0000000000000000
    PCM Polarization Energy =               0.0000000000000000
    EFP Energy =                            0.0000000000000000
    Total Energy =                       -246.9819303746630794

  Mulliken Charges: (a.u.)
   Center  Symbol    Alpha    Beta     Spin     Total
       1     H     0.31133  0.31133  0.00000  0.37733
       2     N     3.89593  3.89593  0.00000 -0.79186
       3     C     3.13474  3.13474  0.00000 -0.26949
       4     C     2.64941  2.64941  0.00000  0.70118
       5     H     0.41860  0.41860  0.00000  0.16279
       6     H     0.39986  0.39986  0.00000  0.20029
       7     H     0.41500  0.41500  0.00000  0.16999
       8     C     3.28309  3.28309  0.00000 -0.56619
       9     O     4.27484  4.27484  0.00000 -0.54969
      10     H     0.40593  0.40593  0.00000  0.18813
      11     H     0.39808  0.39808  0.00000  0.20385
      12     H     0.41317  0.41317  0.00000  0.17366

   Total alpha = 20.00000, Total beta = 20.00000, Total charge = -0.00000
