  ==> Input File <==

--------------------------------------------------------------------------
set {
	reference rhf
	basis cc-pvtz
}

set_num_threads( 4 )
memory 2 gb

molecule MOL {
0 1

H	 -2.721501	 0.805566	 -0.427500
N	 -1.745277	 0.877817	 -0.235571
C	 -0.963243	 0.727995	 -1.448880
H	 -1.510996	 0.156482	 0.413109
C	 0.513611	 0.829198	 -1.143415
H	 -1.143173	 -0.213157	 -1.966956
H	 -1.223844	 1.529706	 -2.131080
O	 0.881195	 -0.248324	 -0.336237
H	 1.084687	 0.813843	 -2.070674
H	 0.717733	 1.767576	 -0.632817
C	 2.208068	 -0.234417	 0.074171
H	 2.725499	 -1.027054	 -0.446768
H	 2.688377	 0.712084	 -0.164856
H	 2.295137	 -0.403407	 1.144883

	symmetry c1
}
set optking {
	frozen_dihedral = ("
		5 8 11 13
	")
}

ee = optimize('scf')
oeprop('DIPOLE', 'QUADRUPOLE', 'MULLIKEN_CHARGES')
f=open( 'psi4out.xyz', 'w' )
f.write( "14  " )
f.write( str(ee) + "\n" )
f.write( MOL.save_string_xyz() )
f.close()
--------------------------------------------------------------------------

    Molecular point group: c1
  Charge       = 0
  Multiplicity = 1
  Basis Set: CC-PVTZ
  Basis Set:
  @DF-RHF Final Energy:  -248.22224958087119
    Total Energy =                       -248.2222495808712210
    Molecular point group: c1
  Basis Set: CC-PVTZ
  Basis Set:
  Basis Set: CC-PVTZ
  Basis Set:
  @DF-RHF Final Energy:  -248.22271345168224
    Total Energy =                       -248.2227134516821820
  Basis Set: CC-PVTZ
  Basis Set:
  Basis Set: CC-PVTZ
  Basis Set:
  @DF-RHF Final Energy:  -248.22282418124036
    Total Energy =                       -248.2228241812401848
  Basis Set: CC-PVTZ
  Basis Set:
  Charge       = 0
  Multiplicity = 1
  Basis Set: CC-PVTZ
  Basis Set:

    Orbital Energies (a.u.)
    -----------------------

    Doubly Occupied:

       1A    -20.547450     2A    -15.523085     3A    -11.264446
       4A    -11.263255     5A    -11.239378     6A     -1.380015
       7A     -1.175544     8A     -1.000436     9A     -0.907891
      10A     -0.815397    11A     -0.683781    12A     -0.673723
      13A     -0.645201    14A     -0.611757    15A     -0.607522
      16A     -0.540448    17A     -0.535565    18A     -0.497434
      19A     -0.473479    20A     -0.414982    21A     -0.383490

  @DF-RHF Final Energy:  -248.22282506143000

   => Energetics <=

    Nuclear Repulsion Energy =            194.4285674423474575
    One-Electron Energy =                -722.9342312702201525
    Two-Electron Energy =                 280.2828387664426941
    DFT Exchange-Correlation Energy =       0.0000000000000000
    Empirical Dispersion Energy =           0.0000000000000000
    PCM Polarization Energy =               0.0000000000000000
    EFP Energy =                            0.0000000000000000
    Total Energy =                       -248.2228250614300009
    Molecular point group: c1
  Basis Set: CC-PVTZ
  Basis Set:

  -Total Gradient:
     Atom            X                  Y                   Z
    ------   -----------------  -----------------  -----------------
       1        0.000013164842     0.000003893749    -0.000021991469
       2        0.000024528408    -0.000004477681    -0.000010235378
       3       -0.000030511410    -0.000002395283    -0.000028616148
       4        0.000011699049     0.000010349621    -0.000008580121
       5       -0.000339831954     0.000647536014     0.000956380396
       6       -0.000004950125     0.000005851200     0.000010476989
       7       -0.000034917762     0.000011105623    -0.000010530767
       8        0.000654514666    -0.001017249970    -0.001640646887
       9       -0.000011714502    -0.000031470443     0.000041851580
      10        0.000014896306     0.000010730366    -0.000008632971
      11       -0.000638160479     0.000841537971     0.001943167587
      12        0.000017683245    -0.000005309060     0.000008673668
      13        0.000348680591    -0.000490845354    -0.001237359622
      14       -0.000025080874     0.000020743247     0.000006043142

  **** Optimization is complete! (in 4 steps) ****
    Final optimized geometry and variables:
    Molecular point group: c1

    Geometry (in Angstrom), charge = 0, multiplicity = 1:

    H           -2.902501775491     0.411667368163     0.193263099719
    N           -1.925251113573     0.492126293329     0.376386299214
    C           -1.153158523569     0.349233727385    -0.843982981194
    H           -1.678881859921    -0.227844734828     1.022018943353
    C            0.325597311639     0.461826657762    -0.551828713611
    H           -1.330483496113    -0.592944369999    -1.361042155854
    H           -1.425792091271     1.149406814440    -1.523483738663
    O            0.703563800457    -0.612907112454     0.256397759481
    H            0.885344772046     0.449014715426    -1.485652504402
    H            0.525794191788     1.402245016087    -0.045216666493
    C            2.031423969922    -0.625784537787     0.681989882996
    H            2.574983979116    -1.427075043849     0.191686089913
    H            2.536708785898     0.307533242743     0.456961513882
    H            2.064685125425    -0.788545227328     1.751957858731

  Mulliken Charges: (a.u.)
   Center  Symbol    Alpha    Beta     Spin     Total
       1     H     0.43034  0.43034  0.00000  0.13931
       2     N     3.69428  3.69428  0.00000 -0.38857
       3     C     3.02404  3.02404  0.00000 -0.04808
       4     H     0.42220  0.42220  0.00000  0.15561
       5     C     2.96793  2.96793  0.00000  0.06414
       6     H     0.46481  0.46481  0.00000  0.07037
       7     H     0.45874  0.45874  0.00000  0.08251
       8     O     4.18447  4.18447  0.00000 -0.36893
       9     H     0.47020  0.47020  0.00000  0.05960
      10     H     0.46830  0.46830  0.00000  0.06339
      11     C     3.02728  3.02728  0.00000 -0.05457
      12     H     0.46073  0.46073  0.00000  0.07854
      13     H     0.47178  0.47178  0.00000  0.05643
      14     H     0.45487  0.45487  0.00000  0.09025

   Total alpha = 21.00000, Total beta = 21.00000, Total charge =  0.00000
