                              Psi4 1.0.54 Driver

  ==> Input File <==

--------------------------------------------------------------------------
set {
	reference rhf
	basis cc-pvtz
}

set_num_threads( 4 )
memory 2 gb

molecule MOL {
0 1

H	 -3.945836	 0.578071	 -0.789223
O	 -3.515113	 -0.019339	 -0.206321
C	 -2.302264	 0.528872	 0.237390
C	 -1.175688	 -0.398187	 -0.171891
H	 -2.148018	 1.514076	 -0.197759
H	 -2.310727	 0.646384	 1.319032
C	 0.196029	 0.106276	 0.266738
H	 -1.201873	 -0.515469	 -1.250677
H	 -1.365975	 -1.378728	 0.252664
C	 1.330220	 -0.826136	 -0.155230
H	 0.359542	 1.097229	 -0.145561
H	 0.212134	 0.218135	 1.348778
C	 2.719700	 -0.407669	 0.328325
H	 1.339388	 -0.911200	 -1.239363
H	 1.119001	 -1.821953	 0.224128
C	 3.241564	 0.893452	 -0.276737
H	 3.418299	 -1.204729	 0.093035
H	 2.711776	 -0.323368	 1.411960
H	 3.254204	 0.841071	 -1.360784
H	 2.634460	 1.745075	 0.005842
H	 4.254264	 1.092401	 0.054971

	symmetry c1
}
set optking {
	frozen_dihedral = ("
		1 2 3 5
	")
}

ee,wfn = optimize('scf', return_wfn=True)
oeprop( wfn, 'DIPOLE', 'QUADRUPOLE', 'MULLIKEN_CHARGES')
f=open( 'psi4out.xyz', 'w' )
f.write( "21  " )
f.write( str(ee) + "\n" )
f.write( MOL.save_string_xyz() )
f.close()
--------------------------------------------------------------------------

    Molecular point group: c1
  Charge       = 0
  Multiplicity = 1
  Basis Set: CC-PVTZ
  Basis Set:
  @DF-RHF Final Energy:  -310.33085112484389
    Total Energy =                       -310.3308511248435480
    Molecular point group: c1
  Basis Set: CC-PVTZ
  Basis Set:
  Basis Set: CC-PVTZ
  Basis Set:
  @DF-RHF Final Energy:  -310.33081743016220
    Total Energy =                       -310.3308174301621420
  Basis Set: CC-PVTZ
  Basis Set:
  Basis Set: CC-PVTZ
  Basis Set:
  @DF-RHF Final Energy:  -310.33130156813837
    Total Energy =                       -310.3313015681383149
  Basis Set: CC-PVTZ
  Basis Set:
  Basis Set: CC-PVTZ
  Basis Set:
  @DF-RHF Final Energy:  -310.33130831155790
    Total Energy =                       -310.3313083115576774
  Basis Set: CC-PVTZ
  Basis Set:
  Charge       = 0
  Multiplicity = 1
  Basis Set: CC-PVTZ
  Basis Set:

    Orbital Energies (a.u.)
    -----------------------

    Doubly Occupied:

       1A    -20.544114     2A    -11.265435     3A    -11.213603
       4A    -11.213497     5A    -11.211896     6A    -11.208925
       7A    -11.206679     8A     -1.361693     9A     -1.087723
      10A     -1.034526    11A     -0.955715    12A     -0.877603
      13A     -0.810455    14A     -0.779422    15A     -0.703287
      16A     -0.650574    17A     -0.624327    18A     -0.603181
      19A     -0.593396    20A     -0.572117    21A     -0.540811
      22A     -0.522135    23A     -0.510422    24A     -0.490084
      25A     -0.476697    26A     -0.464074    27A     -0.459064
      28A     -0.455400    29A     -0.424321

  @DF-RHF Final Energy:  -310.33130762342034

   => Energetics <=

    Nuclear Repulsion Energy =            312.5859034877722706
    One-Electron Energy =               -1040.1120637967437688
    Two-Electron Energy =                 417.1948526855512682
    DFT Exchange-Correlation Energy =       0.0000000000000000
    Empirical Dispersion Energy =           0.0000000000000000
    PCM Polarization Energy =               0.0000000000000000
    EFP Energy =                            0.0000000000000000
    Total Energy =                       -310.3313076234202299
    Molecular point group: c1
  Basis Set: CC-PVTZ
  Basis Set:

  -Total Gradient:
     Atom            X                  Y                   Z
    ------   -----------------  -----------------  -----------------
       1        0.000061332359    -0.000109886570    -0.000197046047
       2       -0.000070447399     0.000166529358     0.000150836740
       3        0.000143234757    -0.000137169789    -0.000034922038
       4       -0.000075524356     0.000023888475     0.000003839588
       5       -0.000112063098     0.000076101333     0.000098305781
       6        0.000075806505     0.000019903387     0.000041593902
       7       -0.000088017901     0.000025396994     0.000013822887
       8        0.000022556183    -0.000018675179    -0.000034061976
       9        0.000012557122    -0.000037618744    -0.000005892942
      10        0.000011917280     0.000039849214    -0.000093153499
      11       -0.000075517523    -0.000031358688     0.000000447827
      12        0.000005153999     0.000028652166     0.000015920124
      13       -0.000001067088    -0.000022002699     0.000102706233
      14       -0.000007609230     0.000013303791    -0.000026115740
      15        0.000046172322    -0.000021890188    -0.000027579251
      16       -0.000021699731     0.000009389465    -0.000026289724
      17        0.000000091561    -0.000032983756     0.000020245651
      18        0.000009535356     0.000018525895     0.000032142374
      19        0.000003794111     0.000016574936    -0.000033043187
      20        0.000061437766     0.000005175401     0.000005284550
      21       -0.000001642999    -0.000031704801    -0.000007041253

  **** Optimization is complete! (in 5 steps) ****
    Final optimized geometry and variables:
    Molecular point group: c1

    Geometry (in Angstrom), charge = 0, multiplicity = 1:

    H           -4.033361526184     0.690114125688    -0.433200691024
    O           -3.549132158612     0.050086113930     0.050999821118
    C           -2.277467727791     0.543812415174     0.392917798583
    C           -1.189024400577    -0.360499248384    -0.155852356102
    H           -2.145826063659     1.554943491145     0.017893216921
    H           -2.206474137298     0.593853089310     1.475156145791
    C            0.212756394310     0.083469399134     0.251689348496
    H           -1.270772097422    -0.388436543330    -1.238644018239
    H           -1.376369736383    -1.370686303200     0.194537544628
    C            1.306774709045    -0.828527378134    -0.301008131468
    H            0.375851827485     1.102862914959    -0.085412307959
    H            0.283099506477     0.105578420668     1.336998804396
    C            2.724997077404    -0.481067828015     0.154638004333
    H            1.267455998867    -0.817783123649    -1.387826434080
    H            1.089659210975    -1.849800098211    -0.001083180496
    C            3.253479195046     0.854233670061    -0.363988261560
    H            3.393308566881    -1.270500089273    -0.175312576390
    H            2.764145300703    -0.486758981498     1.240813604344
    H            3.217043757370     0.892816612984    -1.448128269938
    H            2.682272977500     1.692644743504     0.016103326157
    H            4.284707926667     1.001626257339    -0.064068997932

  Mulliken Charges: (a.u.)
   Center  Symbol    Alpha    Beta     Spin     Total
       1     H     0.39128  0.39128  0.00000  0.21744
       2     O     4.20436  4.20436  0.00000 -0.40873
       3     C     2.97013  2.97013  0.00000  0.05975
       4     C     3.07969  3.07969  0.00000 -0.15938
       5     H     0.47397  0.47397  0.00000  0.05207
       6     H     0.46412  0.46412  0.00000  0.07175
       7     C     3.10410  3.10410  0.00000 -0.20819
       8     H     0.45679  0.45679  0.00000  0.08642
       9     H     0.45012  0.45012  0.00000  0.09976
      10     C     3.09381  3.09381  0.00000 -0.18762
      11     H     0.45427  0.45427  0.00000  0.09145
      12     H     0.45436  0.45436  0.00000  0.09128
      13     C     3.08996  3.08996  0.00000 -0.17991
      14     H     0.45359  0.45359  0.00000  0.09281
      15     H     0.44849  0.44849  0.00000  0.10303
      16     C     3.15239  3.15239  0.00000 -0.30477
      17     H     0.44839  0.44839  0.00000  0.10322
      18     H     0.45467  0.45467  0.00000  0.09065
      19     H     0.45499  0.45499  0.00000  0.09002
      20     H     0.45423  0.45423  0.00000  0.09154
      21     H     0.44631  0.44631  0.00000  0.10739

   Total alpha = 29.00000, Total beta = 29.00000, Total charge = -0.00000

*** Psi4 exiting successfully. Buy a developer a beer!
