                              Psi4 1.0.54 Driver

  ==> Input File <==

--------------------------------------------------------------------------
set {
	reference rhf
	basis cc-pvtz
}

set_num_threads( 4 )
memory 2 gb

molecule MOL {
0 1

H	 -2.087784	 -1.201715	 1.343210
C	 -2.444151	 -0.805460	 0.395123
O	 -1.401606	 -0.295183	 -0.366624
H	 -2.902490	 -1.606586	 -0.166134
H	 -3.197669	 -0.047316	 0.600824
C	 -0.718530	 0.758693	 0.228682
C	 0.718529	 0.758687	 -0.228709
H	 -1.176498	 1.708665	 -0.046615
H	 -0.748705	 0.673525	 1.312779
O	 1.401606	 -0.295166	 0.366636
H	 0.748705	 0.673477	 -1.312803
H	 1.176496	 1.708671	 0.046552
C	 2.714315	 -0.441627	 -0.061017
H	 2.765292	 -0.641548	 -1.128869
H	 3.305661	 0.447341	 0.150952
H	 3.143725	 -1.278506	 0.470147

	symmetry c1
}
set optking {
	frozen_dihedral = ("
		2 3 6 7
	")
}

ee,wfn = optimize('scf', return_wfn=True)
oeprop( wfn, 'DIPOLE', 'QUADRUPOLE', 'MULLIKEN_CHARGES')
f=open( 'psi4out.xyz', 'w' )
f.write( "16  " )
f.write( str(ee) + "\n" )
f.write( MOL.save_string_xyz() )
f.close()
--------------------------------------------------------------------------

    Molecular point group: c1
  Charge       = 0
  Multiplicity = 1
  Basis Set: CC-PVTZ
  Basis Set:
  @DF-RHF Final Energy:  -307.09682633477291
    Total Energy =                       -307.0968263347730840
    Molecular point group: c1
  Basis Set: CC-PVTZ
  Basis Set:
  Basis Set: CC-PVTZ
  Basis Set:
  @DF-RHF Final Energy:  -307.09690006865952
    Total Energy =                       -307.0969000686596928
  Basis Set: CC-PVTZ
  Basis Set:
  Basis Set: CC-PVTZ
  Basis Set:
  @DF-RHF Final Energy:  -307.09691394792566
    Total Energy =                       -307.0969139479254295
  Basis Set: CC-PVTZ
  Basis Set:
  Charge       = 0
  Multiplicity = 1
  Basis Set: CC-PVTZ
  Basis Set:

    Orbital Energies (a.u.)
    -----------------------

    Doubly Occupied:

       1A    -20.548536     2A    -20.545727     3A    -11.266982
       4A    -11.266301     5A    -11.262184     6A    -11.260410
       7A     -1.390908     8A     -1.372908     9A     -1.031581
      10A     -0.938058    11A     -0.890924    12A     -0.824331
      13A     -0.684199    14A     -0.683478    15A     -0.658939
      16A     -0.635077    17A     -0.632728    18A     -0.600670
      19A     -0.545452    20A     -0.540023    21A     -0.511479
      22A     -0.479330    23A     -0.464535    24A     -0.420581
      25A     -0.413663

  @DF-RHF Final Energy:  -307.09691444461532

   => Energetics <=

    Nuclear Repulsion Energy =            259.8476978223801552
    One-Electron Energy =                -934.1512152753477949
    Two-Electron Energy =                 367.2066030083523742
    DFT Exchange-Correlation Energy =       0.0000000000000000
    Empirical Dispersion Energy =           0.0000000000000000
    PCM Polarization Energy =               0.0000000000000000
    EFP Energy =                            0.0000000000000000
    Total Energy =                       -307.0969144446152654
    Molecular point group: c1
  Basis Set: CC-PVTZ
  Basis Set:

  -Total Gradient:
     Atom            X                  Y                   Z
    ------   -----------------  -----------------  -----------------
       1        0.000009627255     0.000015332217    -0.000005740323
       2        0.000909082226    -0.000973127160     0.000638614686
       3       -0.001211969804     0.001085752855    -0.000478401009
       4       -0.000010949150    -0.000004385031    -0.000006738568
       5        0.000024248714     0.000002897691    -0.000014322032
       6       -0.000047838430     0.000640718797    -0.001151737852
       7        0.000338463360    -0.000772300214     0.001071569163
       8        0.000000296406    -0.000001595560     0.000003200343
       9       -0.000000607674    -0.000013946829    -0.000008062194
      10       -0.000024133778     0.000015483868    -0.000044984630
      11        0.000004962837    -0.000013085242     0.000007539360
      12        0.000002925156     0.000024713907    -0.000009100434
      13        0.000006673405    -0.000006692778     0.000000764677
      14        0.000003911047    -0.000000632958    -0.000001782372
      15       -0.000005620136     0.000001172294     0.000000825933
      16        0.000000928568    -0.000000305856    -0.000001644748

  **** Optimization is complete! (in 4 steps) ****
    Final optimized geometry and variables:
    Molecular point group: c1

    Geometry (in Angstrom), charge = 0, multiplicity = 1:

    H           -2.138773314685    -1.139771997123     1.289535885313
    C           -2.492861415504    -0.751445716311     0.338412848414
    O           -1.447952582853    -0.233140195354    -0.416253219522
    H           -2.935379616450    -1.559876984601    -0.225442009773
    H           -3.260084319434    -0.004315887363     0.532942372917
    C           -0.762784652526     0.830439961473     0.165253683135
    C            0.673740925839     0.828021678423    -0.295635854618
    H           -1.230079199286     1.774070323093    -0.110841665861
    H           -0.777695534341     0.753332629905     1.248902838111
    O            1.353639473195    -0.220841534453     0.312900053441
    H            0.703696754244     0.728455680521    -1.378536531765
    H            1.134039678137     1.780640538843    -0.033215433716
    C            2.661591412996    -0.386677197322    -0.122728205267
    H            2.701687142461    -0.606712151491    -1.187000249417
    H            3.262143380353     0.500834921840     0.067873478946
    H            3.088451745715    -1.217221646268     0.420389146098

  Mulliken Charges: (a.u.)
   Center  Symbol    Alpha    Beta     Spin     Total
       1     H     0.46836  0.46836  0.00000  0.06328
       2     C     3.03040  3.03040  0.00000 -0.06080
       3     O     4.17553  4.17553  0.00000 -0.35107
       4     H     0.44872  0.44872  0.00000  0.10256
       5     H     0.47329  0.47329  0.00000  0.05342
       6     C     2.96154  2.96154  0.00000  0.07692
       7     C     2.96216  2.96216  0.00000  0.07569
       8     H     0.46833  0.46833  0.00000  0.06334
       9     H     0.47112  0.47112  0.00000  0.05777
      10     O     4.17225  4.17225  0.00000 -0.34450
      11     H     0.47106  0.47106  0.00000  0.05789
      12     H     0.47564  0.47564  0.00000  0.04873
      13     C     3.03143  3.03143  0.00000 -0.06285
      14     H     0.46984  0.46984  0.00000  0.06032
      15     H     0.47337  0.47337  0.00000  0.05326
      16     H     0.44698  0.44698  0.00000  0.10605

   Total alpha = 25.00000, Total beta = 25.00000, Total charge = -0.00000

*** Psi4 exiting successfully. Buy a developer a beer!
