  ==> Input File <==

--------------------------------------------------------------------------
set {
	reference rhf
	basis 6-31G*
}

set_num_threads( 4 )
memory 2 gb

molecule MOL {
0 1

H	 -2.798360	 -0.862255	 -0.071053
N	 -1.863561	 -0.715187	 0.256814
C	 -1.344686	 0.554728	 -0.219830
H	 -1.300452	 -1.461917	 -0.101532
C	 -0.106133	 0.324519	 -1.060142
H	 -2.060336	 1.126924	 -0.811810
H	 -1.072176	 1.162075	 0.637870
O	 -0.478368	 -0.391274	 -2.203020
H	 0.338939	 1.277920	 -1.344001
H	 0.626686	 -0.237255	 -0.485146
C	 0.584054	 -0.747807	 -3.028680
H	 0.177054	 -1.290064	 -3.871298
H	 1.113038	 0.129126	 -3.397659
H	 1.295099	 -1.386146	 -2.508346

	symmetry c1
}
set optking {
	frozen_dihedral = ("
		6 3 2 4
	")
}

ee = optimize('scf')
oeprop('DIPOLE', 'QUADRUPOLE', 'MULLIKEN_CHARGES')
f=open( 'psi4out.xyz', 'w' )
f.write( "14  " )
f.write( str(ee) + "\n" )
f.write( MOL.save_string_xyz() )
f.close()
--------------------------------------------------------------------------

    Molecular point group: c1
  Charge       = 0
  Multiplicity = 1
  Basis Set: 6-31G*
  Basis Set:
  @DF-RHF Final Energy:  -248.11892683066091
    Total Energy =                       -248.1189268306609392
    Molecular point group: c1
  Basis Set: 6-31G*
  Basis Set:
  Basis Set: 6-31G*
  Basis Set:
  @DF-RHF Final Energy:  -248.11985080074845
    Total Energy =                       -248.1198508007483952
  Basis Set: 6-31G*
  Basis Set:
  Basis Set: 6-31G*
  Basis Set:
  @DF-RHF Final Energy:  -248.12007206707622
    Total Energy =                       -248.1200720670761939
  Basis Set: 6-31G*
  Basis Set:
  Basis Set: 6-31G*
  Basis Set:
  @DF-RHF Final Energy:  -248.12007597796634
    Total Energy =                       -248.1200759779663372
  Basis Set: 6-31G*
  Basis Set:
  Charge       = 0
  Multiplicity = 1
  Basis Set: 6-31G*
  Basis Set:

    Orbital Energies (a.u.)
    -----------------------

    Doubly Occupied:

       1A    -20.561754     2A    -15.526470     3A    -11.272379
       4A    -11.270402     5A    -11.241540     6A     -1.386400
       7A     -1.171026     8A     -1.001951     9A     -0.911462
      10A     -0.822173    11A     -0.687985    12A     -0.666536
      13A     -0.653358    14A     -0.626202    15A     -0.582895
      16A     -0.548950    17A     -0.537714    18A     -0.504720
      19A     -0.472623    20A     -0.422306    21A     -0.376802

  @DF-RHF Final Energy:  -248.12007623333326

   => Energetics <=

    Nuclear Repulsion Energy =            194.2752506608782426
    One-Electron Energy =                -722.2993571865839613
    Two-Electron Energy =                 279.9040302923724539
    DFT Exchange-Correlation Energy =       0.0000000000000000
    Empirical Dispersion Energy =           0.0000000000000000
    PCM Polarization Energy =               0.0000000000000000
    EFP Energy =                            0.0000000000000000
    Total Energy =                       -248.1200762333332932
    Molecular point group: c1
  Basis Set: 6-31G*
  Basis Set:

  -Total Gradient:
     Atom            X                  Y                   Z
    ------   -----------------  -----------------  -----------------
       1       -0.000006092087    -0.000007631292     0.000010029014
       2       -0.000472039377     0.000090701866    -0.000476054582
       3        0.000273440907    -0.000376734734    -0.000442980927
       4        0.000364765243     0.000038036593     0.000464656723
       5        0.000006196029    -0.000013718968     0.000069308846
       6       -0.000165267535     0.000268813133     0.000441419808
       7       -0.000004520832     0.000003680696     0.000015868013
       8        0.000016596372    -0.000003582195    -0.000051018886
       9       -0.000005084856    -0.000003424169    -0.000015397812
      10        0.000001877660     0.000006752557    -0.000003890340
      11       -0.000019403859     0.000003919634    -0.000007425531
      12        0.000007702448    -0.000004868941    -0.000006145505
      13        0.000003452167    -0.000001242400    -0.000002466217
      14       -0.000001622280    -0.000000701778     0.000004097399

  **** Optimization is complete! (in 5 steps) ****
    Final optimized geometry and variables:
    Molecular point group: c1

    Geometry (in Angstrom), charge = 0, multiplicity = 1:

    H           -2.224803811622    -0.575804722771     1.228453202701
    N           -1.285671213535    -0.473261271052     1.554572021020
    C           -0.693406599184     0.762883869189     1.053251976085
    H           -0.783009868115    -1.267744525356     1.212144821288
    C            0.538378198280     0.529459222583     0.199324939612
    H           -1.415555627576     1.325991384300     0.469992281142
    H           -0.401537269428     1.395192029432     1.888348751044
    O            0.182547057142    -0.214265540205    -0.927870145555
    H            0.968746044793     1.486104474087    -0.095086622082
    H            1.294575339033    -0.005035823176     0.776223198778
    C            1.243780856955    -0.504303153679    -1.781439818744
    H            0.851424582373    -1.081866174869    -2.607157725743
    H            1.700113412795     0.403212545034    -2.172063059311
    H            2.012870127395    -1.086898245310    -1.277570492732

  Mulliken Charges: (a.u.)
   Center  Symbol    Alpha    Beta     Spin     Total
       1     H     0.32973  0.32973  0.00000  0.34055
       2     N     3.92983  3.92983  0.00000 -0.85966
       3     C     3.05452  3.05452  0.00000 -0.10904
       4     H     0.32656  0.32656  0.00000  0.34688
       5     C     3.00871  3.00871  0.00000 -0.01742
       6     H     0.41988  0.41988  0.00000  0.16024
       7     H     0.42066  0.42066  0.00000  0.15868
       8     O     4.30509  4.30509  0.00000 -0.61018
       9     H     0.42743  0.42743  0.00000  0.14514
      10     H     0.42842  0.42842  0.00000  0.14317
      11     C     3.08019  3.08019  0.00000 -0.16037
      12     H     0.41119  0.41119  0.00000  0.17761
      13     H     0.42862  0.42862  0.00000  0.14276
      14     H     0.42918  0.42918  0.00000  0.14164

   Total alpha = 21.00000, Total beta = 21.00000, Total charge =  0.00000
