                              Psi4 1.0.54 Driver

  ==> Input File <==

--------------------------------------------------------------------------
set {
	reference rhf
	basis cc-pvtz
}

set_num_threads( 4 )
memory 2 gb

molecule MOL {
0 1

H	 -2.644180	 -0.653737	 1.272255
C	 -2.092774	 -0.380414	 0.391915
O	 -0.808934	 -0.154049	 0.752536
F	 -2.163230	 -1.351640	 -0.507133
F	 -2.627232	 0.691260	 -0.169301
C	 0.085006	 0.250800	 -0.215074
C	 1.370439	 -0.548013	 -0.012993
Cl	 0.421658	 1.987697	 -0.091007
H	 -0.272219	 0.063284	 -1.212508
F	 1.171228	 -1.531827	 0.826917
F	 2.287004	 0.239830	 0.497425
F	 1.829239	 -1.038628	 -1.131497

	symmetry c1
}
set optking {
	frozen_dihedral = ("
		10 7 6 9
	")
}

ee,wfn = optimize('scf', return_wfn=True)
oeprop( wfn, 'DIPOLE', 'QUADRUPOLE', 'MULLIKEN_CHARGES')
f=open( 'psi4out.xyz', 'w' )
f.write( "12  " )
f.write( str(ee) + "\n" )
f.write( MOL.save_string_xyz() )
f.close()
--------------------------------------------------------------------------

    Molecular point group: c1
  Charge       = 0
  Multiplicity = 1
  Basis Set: CC-PVTZ
  Basis Set:
  @DF-RHF Final Energy: -1146.60799232064255
    Total Energy =                      -1146.6079923206423246
    Molecular point group: c1
  Basis Set: CC-PVTZ
  Basis Set:
  Basis Set: CC-PVTZ
  Basis Set:
  @DF-RHF Final Energy: -1146.60846557675859
    Total Energy =                      -1146.6084655767585900
  Basis Set: CC-PVTZ
  Basis Set:
  Basis Set: CC-PVTZ
  Basis Set:
  @DF-RHF Final Energy: -1146.61145934610659
    Total Energy =                      -1146.6114593461059030
  Basis Set: CC-PVTZ
  Basis Set:
  Basis Set: CC-PVTZ
  Basis Set:
  @DF-RHF Final Energy: -1146.61171651852032
    Total Energy =                      -1146.6117165185198701
  Basis Set: CC-PVTZ
  Basis Set:
  @DF-RHF Final Energy: -1146.61174182888976
    Total Energy =                      -1146.6117418288899898
  @DF-RHF Final Energy: -1146.61175252847147
    Total Energy =                      -1146.6117525284707881
  Basis Set: CC-PVTZ
  Basis Set:
  @DF-RHF Final Energy: -1146.61176361809294
    Total Energy =                      -1146.6117636180924819
  Basis Set: CC-PVTZ
  Basis Set:
  Basis Set: CC-PVTZ
  Basis Set:
  @DF-RHF Final Energy: -1146.61177172312318
    Total Energy =                      -1146.6117717231227289
  Basis Set: CC-PVTZ
  Basis Set:
  Basis Set: CC-PVTZ
  Basis Set:
  @DF-RHF Final Energy: -1146.61177502993769
    Total Energy =                      -1146.6117750299390536
  Basis Set: CC-PVTZ
  Basis Set:
  Charge       = 0
  Multiplicity = 1
  Basis Set: CC-PVTZ
  Basis Set:

    Orbital Energies (a.u.)
    -----------------------

    Doubly Occupied:

       1A   -104.855021     2A    -26.354891     3A    -26.353176
       4A    -26.351778     5A    -26.343827     6A    -26.343557
       7A    -20.639974     8A    -11.522458     9A    -11.484253
      10A    -11.402276    11A    -10.580620    12A     -8.047393
      13A     -8.045428    14A     -8.045334    15A     -1.768435
      16A     -1.725030    17A     -1.662372    18A     -1.660570
      19A     -1.645170    20A     -1.487464    21A     -1.174993
      22A     -1.048034    23A     -0.991813    24A     -0.924262
      25A     -0.862637    26A     -0.859219    27A     -0.851116
      28A     -0.831925    29A     -0.820270    30A     -0.795829
      31A     -0.734269    32A     -0.732225    33A     -0.710922
      34A     -0.708779    35A     -0.684060    36A     -0.681199
      37A     -0.665520    38A     -0.662595    39A     -0.650329
      40A     -0.634887    41A     -0.598620    42A     -0.578935
      43A     -0.523678    44A     -0.476899    45A     -0.468094

  @DF-RHF Final Energy: -1146.61177547931766

   => Energetics <=

    Nuclear Repulsion Energy =            735.8515094048528908
    One-Electron Energy =               -3054.9463055619730767
    Two-Electron Energy =                1172.4830206778028696
    DFT Exchange-Correlation Energy =       0.0000000000000000
    Empirical Dispersion Energy =           0.0000000000000000
    PCM Polarization Energy =               0.0000000000000000
    EFP Energy =                            0.0000000000000000
    Total Energy =                      -1146.6117754793172026
    Molecular point group: c1
  Basis Set: CC-PVTZ
  Basis Set:

  -Total Gradient:
     Atom            X                  Y                   Z
    ------   -----------------  -----------------  -----------------
       1        0.000014898020     0.000012658627    -0.000016221388
       2        0.000076647411     0.000013782107    -0.000102164327
       3        0.000024917531     0.000021596566     0.000083924004
       4       -0.000045365924    -0.000061631076     0.000007474228
       5       -0.000046959189     0.000024200951     0.000035031054
       6       -0.002915369596    -0.003494054386     0.002097223536
       7       -0.000609300169    -0.001704725416    -0.004129849532
       8       -0.000001824008    -0.000005780054     0.000004347099
       9        0.002630273615     0.003341476609    -0.000999903221
      10        0.000885705516     0.001887432888     0.003014574915
      11        0.000002725591    -0.000007183850     0.000038807010
      12       -0.000016348787    -0.000027772863    -0.000033243379

  **** Optimization is complete! (in 10 steps) ****
    Final optimized geometry and variables:
    Molecular point group: c1

    Geometry (in Angstrom), charge = 0, multiplicity = 1:

    H           -2.785200831572    -0.563690839539     1.032272413087
    C           -2.130766701339    -0.320169271279     0.216185303169
    O           -0.905715170531    -0.055448288796     0.721787823906
    F           -2.076016263603    -1.331822791157    -0.639486698077
    F           -2.604339828166     0.716099925817    -0.456640893017
    C            0.092495455626     0.311389097170    -0.151338970332
    C            1.336250654862    -0.600248882330     0.051649376668
    CL           0.502426292834     2.024072581683     0.076191303673
    H           -0.197088133687     0.228002895294    -1.182349461291
    F            1.035860827736    -1.642803250684     0.779142555839
    F            2.339349376610     0.002960353549     0.628068094747
    F            1.744521674349    -1.020811791844    -1.124622703666

  Mulliken Charges: (a.u.)
   Center  Symbol    Alpha    Beta     Spin     Total
       1     H     0.45139  0.45139  0.00000  0.09722
       2     C     2.73812  2.73812  0.00000  0.52376
       3     O     4.14992  4.14992  0.00000 -0.29984
       4     F     4.61857  4.61857  0.00000 -0.23714
       5     F     4.61578  4.61578  0.00000 -0.23157
       6     C     2.96126  2.96126  0.00000  0.07748
       7     C     2.66186  2.66186  0.00000  0.67628
       8    CL     8.57000  8.57000  0.00000 -0.14000
       9     H     0.43197  0.43197  0.00000  0.13607
      10     F     4.59876  4.59876  0.00000 -0.19751
      11     F     4.59618  4.59618  0.00000 -0.19236
      12     F     4.60620  4.60620  0.00000 -0.21239

   Total alpha = 45.00000, Total beta = 45.00000, Total charge = -0.00000

*** Psi4 exiting successfully. Buy a developer a beer!
