  ==> Input File <==

--------------------------------------------------------------------------
set {
	reference rhf
	basis 6-31G*
}

set_num_threads( 1 )
memory 2 gb

molecule MOL {
0 1

H	 3.169282	 -0.189149	 2.441409
O	 3.886821	 -0.335700	 1.842466
C	 3.730745	 -1.581752	 1.212349
C	 2.614630	 -1.594510	 0.173670
H	 4.678624	 -1.789867	 0.732883
H	 3.563865	 -2.364347	 1.951590
C	 1.219410	 -1.356504	 0.756407
H	 2.831572	 -0.836959	 -0.574942
H	 2.635039	 -2.557369	 -0.334121
C	 0.115918	 -1.429151	 -0.302766
H	 1.195335	 -0.383573	 1.239305
H	 1.019703	 -2.096500	 1.531562
C	 -1.309753	 -1.282496	 0.241564
H	 0.293292	 -0.665123	 -1.057515
H	 0.191614	 -2.385276	 -0.816376
C	 -2.037799	 -0.007733	 -0.193645
H	 -1.890610	 -2.142323	 -0.085726
H	 -1.285946	 -1.330893	 1.329189
C	 -3.489788	 0.042957	 0.286558
H	 -2.017067	 0.064384	 -1.280144
H	 -1.513726	 0.868678	 0.179924
C	 -4.216917	 1.317354	 -0.141063
H	 -4.025645	 -0.823308	 -0.095450
H	 -3.513059	 -0.038752	 1.371301
H	 -4.239342	 1.411634	 -1.223113
H	 -5.243387	 1.322503	 0.212445
H	 -3.726170	 2.201406	 0.256408

	symmetry c1
}
set optking {
	frozen_dihedral = ("
		14 10 7 4,
		10 7 4 8,
		8 4 3 2,
		10 13 16 20,
		20 16 19 22,
		4 3 2 1
	")
}

ee = energy('scf')
oeprop('DIPOLE', 'QUADRUPOLE', 'MULLIKEN_CHARGES')
f=open( 'psi4out.xyz', 'w' )
f.write( "27  " )
f.write( str(ee) + "\n" )
f.write( MOL.save_string_xyz() )
f.close()
--------------------------------------------------------------------------

    Molecular point group: c1

    Geometry (in Angstrom), charge = 0, multiplicity = 1:

       Center              X                  Y                   Z               Mass
    ------------   -----------------  -----------------  -----------------  -----------------
           H          3.063634938528     0.486285398509     1.982727858606     1.007825032070
           O          3.781173938528     0.339734398509     1.383784858606    15.994914619560
           C          3.625097938528    -0.906317601491     0.753667858606    12.000000000000
           C          2.508982938528    -0.919075601491    -0.285011141394    12.000000000000
           H          4.572976938528    -1.114432601491     0.274201858606     1.007825032070
           H          3.458217938528    -1.688912601491     1.492908858606     1.007825032070
           C          1.113762938528    -0.681069601491     0.297725858606    12.000000000000
           H          2.725924938528    -0.161524601491    -1.033623141394     1.007825032070
           H          2.529391938528    -1.881934601491    -0.792802141394     1.007825032070
           C          0.010270938528    -0.753716601491    -0.761447141394    12.000000000000
           H          1.089687938528     0.291861398509     0.780623858606     1.007825032070
           H          0.914055938528    -1.421065601491     1.072880858606     1.007825032070
           C         -1.415400061472    -0.607061601491    -0.217117141394    12.000000000000
           H          0.187644938528     0.010311398509    -1.516196141394     1.007825032070
           H          0.085966938528    -1.709841601491    -1.275057141394     1.007825032070
           C         -2.143446061472     0.667701398509    -0.652326141394    12.000000000000
           H         -1.996257061472    -1.466888601491    -0.544407141394     1.007825032070
           H         -1.391593061472    -0.655458601491     0.870507858606     1.007825032070
           C         -3.595435061472     0.718391398509    -0.172123141394    12.000000000000
           H         -2.122714061472     0.739818398509    -1.738825141394     1.007825032070
           H         -1.619373061472     1.544112398509    -0.278757141394     1.007825032070
           C         -4.322564061472     1.992788398509    -0.599744141394    12.000000000000
           H         -4.131292061472    -0.147873601491    -0.554131141394     1.007825032070
           H         -3.618706061472     0.636682398509     0.912619858606     1.007825032070
           H         -4.344989061472     2.087068398509    -1.681794141394     1.007825032070
           H         -5.349034061472     1.997937398509    -0.246236141394     1.007825032070
           H         -3.831817061472     2.876840398509    -0.202273141394     1.007825032070

  Charge       = 0
  Multiplicity = 1
  Basis Set: 6-31G*
  Basis Set:

    Orbital Energies (a.u.)
    -----------------------

    Doubly Occupied:

       1A    -20.552263     2A    -11.267051     3A    -11.220704
       4A    -11.215817     5A    -11.215467     6A    -11.214987
       7A    -11.214606     8A    -11.213965     9A    -11.208949
      10A     -1.359033    11A     -1.094122    12A     -1.062275
      13A     -1.011319    14A     -0.949758    15A     -0.884696
      16A     -0.819618    17A     -0.794571    18A     -0.787740
      19A     -0.694028    20A     -0.646699    21A     -0.643462
      22A     -0.613399    23A     -0.599090    24A     -0.585187
      25A     -0.578411    26A     -0.550842    27A     -0.544745
      28A     -0.524825    29A     -0.507454    30A     -0.489289
      31A     -0.484729    32A     -0.475454    33A     -0.470678
      34A     -0.462364    35A     -0.451030    36A     -0.442027
      37A     -0.421127

  @DF-RHF Final Energy:  -388.27757492876896

   => Energetics <=

    Nuclear Repulsion Energy =            454.0096293468863564
    One-Electron Energy =               -1426.0309919928033651
    Two-Electron Energy =                 583.7437877171465743
    DFT Exchange-Correlation Energy =       0.0000000000000000
    Empirical Dispersion Energy =           0.0000000000000000
    PCM Polarization Energy =               0.0000000000000000
    EFP Energy =                            0.0000000000000000
    Total Energy =                       -388.2775749287703775

  Mulliken Charges: (a.u.)
   Center  Symbol    Alpha    Beta     Spin     Total
       1     H     0.27999  0.27999  0.00000  0.44002
       2     O     4.37095  4.37095  0.00000 -0.74190
       3     C     2.99735  2.99735  0.00000  0.00530
       4     C     3.16203  3.16203  0.00000 -0.32406
       5     H     0.41443  0.41443  0.00000  0.17114
       6     H     0.43205  0.43205  0.00000  0.13589
       7     C     3.16305  3.16305  0.00000 -0.32610
       8     H     0.41484  0.41484  0.00000  0.17033
       9     H     0.42414  0.42414  0.00000  0.15172
      10     C     3.15374  3.15374  0.00000 -0.30748
      11     H     0.42464  0.42464  0.00000  0.15072
      12     H     0.42451  0.42451  0.00000  0.15098
      13     C     3.15547  3.15547  0.00000 -0.31094
      14     H     0.41877  0.41877  0.00000  0.16245
      15     H     0.42102  0.42102  0.00000  0.15796
      16     C     3.15230  3.15230  0.00000 -0.30459
      17     H     0.42110  0.42110  0.00000  0.15780
      18     H     0.42221  0.42221  0.00000  0.15559
      19     C     3.15217  3.15217  0.00000 -0.30434
      20     H     0.42322  0.42322  0.00000  0.15356
      21     H     0.42358  0.42358  0.00000  0.15284
      22     C     3.23926  3.23926  0.00000 -0.47852
      23     H     0.42300  0.42300  0.00000  0.15401
      24     H     0.42336  0.42336  0.00000  0.15328
      25     H     0.42166  0.42166  0.00000  0.15669
      26     H     0.41935  0.41935  0.00000  0.16131
      27     H     0.42183  0.42183  0.00000  0.15635

   Total alpha = 37.00000, Total beta = 37.00000, Total charge =  0.00000
