                              Psi4 1.0.54 Driver

  ==> Input File <==

--------------------------------------------------------------------------
set {
	reference rhf
	basis cc-pvtz
}

set_num_threads( 4 )
memory 2 gb

molecule MOL {
0 1

H	 -2.782470	 0.540476	 -0.470781
O	 -2.314149	 -0.142481	 -0.025868
C	 -0.943968	 -0.065024	 -0.330004
H	 -0.812453	 -0.225647	 -1.398677
C	 -0.231190	 -1.182119	 0.407588
C	 -0.353957	 1.300455	 0.050966
H	 -0.312960	 -0.992018	 1.473037
H	 -0.739001	 -2.119570	 0.220510
C	 1.246016	 -1.268050	 -0.015484
H	 -0.539697	 2.008573	 -0.751819
H	 -0.890149	 1.662852	 0.920673
C	 1.153445	 1.231845	 0.356830
H	 1.822936	 -1.684671	 0.802357
H	 1.352175	 -1.958229	 -0.845118
C	 1.826249	 0.100717	 -0.416012
H	 1.622808	 2.181502	 0.128730
H	 1.301823	 1.066487	 1.419363
H	 2.897139	 0.112401	 -0.249669
H	 1.683298	 0.265615	 -1.480028

	symmetry c1
}
ee,wfn = energy('scf', return_wfn=True)
oeprop( wfn, 'DIPOLE', 'QUADRUPOLE', 'MULLIKEN_CHARGES')
oeprop( wfn, 'GRID_ESP')
f=open( 'psi4out.xyz', 'w' )
f.write( "19  " )
f.write( str(ee) + "\n" )
f.write( MOL.save_string_xyz() )
f.close()
--------------------------------------------------------------------------

    Molecular point group: c1

    Geometry (in Angstrom), charge = 0, multiplicity = 1:

       Center              X                  Y                   Z               Mass
    ------------   -----------------  -----------------  -----------------  -----------------
           H         -2.782310096659     0.540481998116    -0.470777190024     1.007825032070
           O         -2.313989096659    -0.142475001884    -0.025864190024    15.994914619560
           C         -0.943808096659    -0.065018001884    -0.330000190024    12.000000000000
           H         -0.812293096659    -0.225641001884    -1.398673190024     1.007825032070
           C         -0.231030096659    -1.182113001884     0.407591809976    12.000000000000
           C         -0.353797096659     1.300460998116     0.050969809976    12.000000000000
           H         -0.312800096659    -0.992012001884     1.473040809976     1.007825032070
           H         -0.738841096659    -2.119564001884     0.220513809976     1.007825032070
           C          1.246175903341    -1.268044001884    -0.015480190024    12.000000000000
           H         -0.539537096659     2.008578998116    -0.751815190024     1.007825032070
           H         -0.889989096659     1.662857998116     0.920676809976     1.007825032070
           C          1.153604903341     1.231850998116     0.356833809976    12.000000000000
           H          1.823095903341    -1.684665001884     0.802360809976     1.007825032070
           H          1.352334903341    -1.958223001884    -0.845114190024     1.007825032070
           C          1.826408903341     0.100722998116    -0.416008190024    12.000000000000
           H          1.622967903341     2.181507998116     0.128733809976     1.007825032070
           H          1.301982903341     1.066492998116     1.419366809976     1.007825032070
           H          2.897298903341     0.112406998116    -0.249665190024     1.007825032070
           H          1.683457903341     0.265620998116    -1.480024190024     1.007825032070

  Charge       = 0
  Multiplicity = 1
  Basis Set: CC-PVTZ
  Basis Set:

    Orbital Energies (a.u.)
    -----------------------

    Doubly Occupied:

       1A    -20.543381     2A    -11.267287     3A    -11.215154
       4A    -11.213843     5A    -11.213195     6A    -11.212147
       7A    -11.206763     8A     -1.363380     9A     -1.110121
      10A     -1.003323    11A     -0.989437    12A     -0.844547
      13A     -0.836946    14A     -0.734598    15A     -0.699574
      16A     -0.663832    17A     -0.629432    18A     -0.591596
      19A     -0.579574    20A     -0.547831    21A     -0.531073
      22A     -0.519032    23A     -0.499365    24A     -0.488706
      25A     -0.463996    26A     -0.449591    27A     -0.428606
      28A     -0.414611

  @DF-RHF Final Energy:  -309.16357029855067

   => Energetics <=

    Nuclear Repulsion Energy =            331.9861410582182089
    One-Electron Energy =               -1077.7773928256051477
    Two-Electron Energy =                 436.6276814688363288
    DFT Exchange-Correlation Energy =       0.0000000000000000
    Empirical Dispersion Energy =           0.0000000000000000
    PCM Polarization Energy =               0.0000000000000000
    EFP Energy =                            0.0000000000000000
    Total Energy =                       -309.1635702985506100

  Mulliken Charges: (a.u.)
   Center  Symbol    Alpha    Beta     Spin     Total
       1     H     0.39673  0.39673  0.00000  0.20653
       2     O     4.19960  4.19960  0.00000 -0.39921
       3     C     2.92347  2.92347  0.00000  0.15305
       4     H     0.46372  0.46372  0.00000  0.07256
       5     C     3.09832  3.09832  0.00000 -0.19664
       6     C     3.12217  3.12217  0.00000 -0.24434
       7     H     0.45412  0.45412  0.00000  0.09176
       8     H     0.44040  0.44040  0.00000  0.11919
       9     C     3.11356  3.11356  0.00000 -0.22712
      10     H     0.45162  0.45162  0.00000  0.09676
      11     H     0.44576  0.44576  0.00000  0.10848
      12     C     3.10089  3.10089  0.00000 -0.20178
      13     H     0.44713  0.44713  0.00000  0.10575
      14     H     0.44747  0.44747  0.00000  0.10506
      15     C     3.10261  3.10261  0.00000 -0.20521
      16     H     0.44274  0.44274  0.00000  0.11451
      17     H     0.45252  0.45252  0.00000  0.09495
      18     H     0.44285  0.44285  0.00000  0.11431
      19     H     0.45430  0.45430  0.00000  0.09139

   Total alpha = 28.00000, Total beta = 28.00000, Total charge = -0.00000

*** Psi4 exiting successfully. Buy a developer a beer!
