  ==> Input File <==

--------------------------------------------------------------------------
set {
	reference rhf
	basis 6-31G*
}

set_num_threads( 4 )
memory 2 gb

molecule MOL {
0 1

O	 1.214711	 1.306902	 -0.000018
C	 1.122059	 0.121804	 -0.000188
C	 -0.170150	 -0.657997	 -0.000612
O	 2.172624	 -0.688929	 0.000216
C	 -1.412532	 0.227344	 -0.000452
H	 -0.153702	 -1.313099	 -0.867402
H	 -0.153924	 -1.313811	 0.865644
C	 -2.672397	 -0.538718	 -0.406966
H	 -1.256675	 1.063717	 -0.674762
H	 -1.545975	 0.657394	 0.987350
C	 -3.922165	 0.340533	 -0.408231
H	 -2.533039	 -0.968197	 -1.397018
H	 -2.822391	 -1.377098	 0.270303
H	 -3.816889	 1.169501	 -1.102049
H	 -4.800646	 -0.226389	 -0.700031
H	 -4.108651	 0.757167	 0.577304
C	 3.452279	 -0.082609	 0.000533
H	 3.583069	 0.529321	 -0.880332
H	 4.163299	 -0.894027	 0.001117
H	 3.582335	 0.529955	 0.881077

	symmetry c1
}
set optking {
	frozen_dihedral = ("
		9 5 3 6
	")
}

ee = optimize('scf')
oeprop('DIPOLE', 'QUADRUPOLE', 'MULLIKEN_CHARGES')
f=open( 'psi4out.xyz', 'w' )
f.write( "20  " )
f.write( str(ee) + "\n" )
f.write( MOL.save_string_xyz() )
f.close()
--------------------------------------------------------------------------

    Molecular point group: c1
  Charge       = 0
  Multiplicity = 1
  Basis Set: 6-31G*
  Basis Set:
  @DF-RHF Final Energy:  -383.94069873538547
    Total Energy =                       -383.9406987353859222
    Molecular point group: c1
  Basis Set: 6-31G*
  Basis Set:
  Basis Set: 6-31G*
  Basis Set:
  @DF-RHF Final Energy:  -383.94078489883856
    Total Energy =                       -383.9407848988383876
  Basis Set: 6-31G*
  Basis Set:
  Basis Set: 6-31G*
  Basis Set:
  @DF-RHF Final Energy:  -383.94079444917088
    Total Energy =                       -383.9407944491711078
  Basis Set: 6-31G*
  Basis Set:
  Basis Set: 6-31G*
  Basis Set:
  @DF-RHF Final Energy:  -383.94076127387359
    Total Energy =                       -383.9407612738732496
  Basis Set: 6-31G*
  Basis Set:
  Basis Set: 6-31G*
  Basis Set:
  @DF-RHF Final Energy:  -383.94082305625659
    Total Energy =                       -383.9408230562568178
  Basis Set: 6-31G*
  Basis Set:
  Charge       = 0
  Multiplicity = 1
  Basis Set: 6-31G*
  Basis Set:

    Orbital Energies (a.u.)
    -----------------------

    Doubly Occupied:

       1A    -20.603892     2A    -20.545821     3A    -11.372835
       4A    -11.281025     5A    -11.235600     6A    -11.220480
       7A    -11.219019     8A    -11.210681     9A     -1.469690
      10A     -1.363113    11A     -1.088345    12A     -1.024527
      13A     -0.969112    14A     -0.886037    15A     -0.804479
      16A     -0.767800    17A     -0.698146    18A     -0.683104
      19A     -0.672262    20A     -0.644422    21A     -0.598183
      22A     -0.591866    23A     -0.579064    24A     -0.541317
      25A     -0.535295    26A     -0.522847    27A     -0.500380
      28A     -0.478458    29A     -0.473559    30A     -0.469122
      31A     -0.456047    32A     -0.437805

  @DF-RHF Final Energy:  -383.94082315188962

   => Energetics <=

    Nuclear Repulsion Energy =            381.0113095998365225
    One-Electron Energy =               -1278.0156037267988722
    Two-Electron Energy =                 513.0634709750727325
    DFT Exchange-Correlation Energy =       0.0000000000000000
    Empirical Dispersion Energy =           0.0000000000000000
    PCM Polarization Energy =               0.0000000000000000
    EFP Energy =                            0.0000000000000000
    Total Energy =                       -383.9408231518896173
    Molecular point group: c1
  Basis Set: 6-31G*
  Basis Set:

  -Total Gradient:
     Atom            X                  Y                   Z
    ------   -----------------  -----------------  -----------------
       1        0.000039844641    -0.000038505950    -0.000016007188
       2       -0.000028025023     0.000001514868     0.000033773776
       3        0.001818249698     0.002599978802    -0.001259489533
       4        0.000028179393     0.000041319073    -0.000012558675
       5       -0.001525120990    -0.002212722426    -0.002057019803
       6       -0.001291415430    -0.001793643201     0.001367834813
       7        0.000005218578     0.000003502834     0.000010718887
       8       -0.000010594705     0.000007439773     0.000063264758
       9        0.000993640513     0.001429747344     0.001908130227
      10       -0.000019501708    -0.000037031617    -0.000020725225
      11       -0.000011344547    -0.000004397851    -0.000031499882
      12       -0.000005043581     0.000018303601     0.000014586635
      13        0.000000673511    -0.000014437406     0.000003293281
      14        0.000002345453     0.000007066184     0.000011255616
      15       -0.000010337530     0.000008743208    -0.000012836423
      16        0.000000395893    -0.000015825400     0.000000251643
      17        0.000005568187    -0.000007556134    -0.000004484750
      18        0.000001686167     0.000000861866    -0.000001362604
      19        0.000005822386     0.000004785524     0.000000321386
      20       -0.000000240911     0.000000856906     0.000002553061

  **** Optimization is complete! (in 6 steps) ****
    Final optimized geometry and variables:
    Molecular point group: c1

    Geometry (in Angstrom), charge = 0, multiplicity = 1:

    O            1.218904732522     1.298239348039     0.086745940339
    C            1.118869443503     0.113759921161     0.089827701711
    C           -0.176429524878    -0.659474642907     0.066807324449
    O            2.164383085664    -0.702922053831     0.116743190825
    C           -1.423120030829     0.222870034736     0.058781487172
    H           -0.155563681977    -1.325099176099    -0.791977695671
    H           -0.172644119253    -1.317678260368     0.931593916139
    C           -2.689689508749    -0.552442970141    -0.303904553617
    H           -1.274365248586     1.053211875434    -0.623047590654
    H           -1.541609979602     0.673545799366     1.040648047431
    C           -3.945210105175     0.317552540808    -0.265772452561
    H           -2.578146137145    -0.981054928521    -1.297708378018
    H           -2.811592809542    -1.391770698602     0.378016249334
    H           -3.864472880115     1.150946268184    -0.957532722418
    H           -4.827318871900    -0.254132657634    -0.536611402876
    H           -4.107752916346     0.727424364482     0.726833043343
    C            3.447291647917    -0.103981227246     0.140860886624
    H            3.599931469645     0.503140458237    -0.739821602251
    H            4.153341103675    -0.919506237594     0.159792334105
    H            3.562638914762     0.511798863221     1.021208173994

  Mulliken Charges: (a.u.)
   Center  Symbol    Alpha    Beta     Spin     Total
       1     O     4.28577  4.28577  0.00000 -0.57154
       2     C     2.60585  2.60585  0.00000  0.78830
       3     C     3.20917  3.20917  0.00000 -0.41835
       4     O     4.30683  4.30683  0.00000 -0.61367
       5     C     3.15261  3.15261  0.00000 -0.30521
       6     H     0.40052  0.40052  0.00000  0.19895
       7     H     0.40011  0.40011  0.00000  0.19978
       8     C     3.15454  3.15454  0.00000 -0.30909
       9     H     0.40644  0.40644  0.00000  0.18712
      10     H     0.41585  0.41585  0.00000  0.16830
      11     C     3.23953  3.23953  0.00000 -0.47906
      12     H     0.42235  0.42235  0.00000  0.15529
      13     H     0.42309  0.42309  0.00000  0.15381
      14     H     0.41946  0.41946  0.00000  0.16108
      15     H     0.41871  0.41871  0.00000  0.16258
      16     H     0.42032  0.42032  0.00000  0.15936
      17     C     3.09239  3.09239  0.00000 -0.18478
      18     H     0.40904  0.40904  0.00000  0.18191
      19     H     0.40839  0.40839  0.00000  0.18322
      20     H     0.40900  0.40900  0.00000  0.18200

   Total alpha = 32.00000, Total beta = 32.00000, Total charge = -0.00000
