  ==> Input File <==

--------------------------------------------------------------------------
set {
	reference rhf
	basis 6-31G*
}

set_num_threads( 1 )
memory 2 gb

molecule MOL {
0 1

H	 1.136379	 0.211822	 1.465562
C	 1.135357	 0.094285	 0.374742
C	 0.065331	 0.871482	 -0.349150
O	 1.941633	 -0.601957	 -0.151457
C	 -1.062948	 -0.030469	 -0.869679
H	 0.531917	 1.427339	 -1.154279
H	 -0.346664	 1.588939	 0.359141
C	 -0.612091	 -0.984889	 -1.976130
H	 -1.864637	 0.600362	 -1.240297
H	 -1.482270	 -0.598736	 -0.042103
H	 -0.221714	 -0.435824	 -2.827400
H	 -1.441139	 -1.592905	 -2.322991
H	 0.169289	 -1.657248	 -1.634415

	symmetry c1
}
set optking {
	frozen_dihedral = ("
		6 3 5 9
	")
}

ee = energy('scf')
oeprop('DIPOLE', 'QUADRUPOLE', 'MULLIKEN_CHARGES')
f=open( 'psi4out.xyz', 'w' )
f.write( "13  " )
f.write( str(ee) + "\n" )
f.write( MOL.save_string_xyz() )
f.close()
--------------------------------------------------------------------------

    Molecular point group: c1

    Geometry (in Angstrom), charge = 0, multiplicity = 1:

       Center              X                  Y                   Z               Mass
    ------------   -----------------  -----------------  -----------------  -----------------
           H          0.833597699993     0.360080845961     2.072296882754     1.007825032070
           C          0.832575699993     0.242543845961     0.981476882754    12.000000000000
           C         -0.237450300007     1.019740845961     0.257584882754    12.000000000000
           O          1.638851699993    -0.453698154039     0.455277882754    15.994914619560
           C         -1.365729300007     0.117789845961    -0.262944117246    12.000000000000
           H          0.229135699993     1.575597845961    -0.547544117246     1.007825032070
           H         -0.649445300007     1.737197845961     0.965875882754     1.007825032070
           C         -0.914872300007    -0.836630154039    -1.369395117246    12.000000000000
           H         -2.167418300007     0.748620845961    -0.633562117246     1.007825032070
           H         -1.785051300007    -0.450477154039     0.564631882754     1.007825032070
           H         -0.524495300007    -0.287565154039    -2.220665117246     1.007825032070
           H         -1.743920300007    -1.444646154039    -1.716256117246     1.007825032070
           H         -0.133492300007    -1.508989154039    -1.027680117246     1.007825032070

  Charge       = 0
  Multiplicity = 1
  Basis Set: 6-31G*
  Basis Set:

    Orbital Energies (a.u.)
    -----------------------

    Doubly Occupied:

       1A    -20.564395     2A    -11.327937     3A    -11.236118
       4A    -11.235524     5A    -11.209915     6A     -1.404994
       7A     -1.081280     8A     -0.970764     9A     -0.844986
      10A     -0.780099    11A     -0.678163    12A     -0.651401
      13A     -0.602953    14A     -0.593348    15A     -0.565521
      16A     -0.522689    17A     -0.502819    18A     -0.488475
      19A     -0.479948    20A     -0.407707

  @DF-RHF Final Energy:  -230.98207063913844

   => Energetics <=

    Nuclear Repulsion Energy =            176.2797596823551771
    One-Electron Energy =                -662.2256210433671413
    Two-Electron Energy =                 254.9637907218723001
    DFT Exchange-Correlation Energy =       0.0000000000000000
    Empirical Dispersion Energy =           0.0000000000000000
    PCM Polarization Energy =               0.0000000000000000
    EFP Energy =                            0.0000000000000000
    Total Energy =                       -230.9820706391396641

  Mulliken Charges: (a.u.)
   Center  Symbol    Alpha    Beta     Spin     Total
       1     H     0.42829  0.42829  0.00000  0.14341
       2     C     2.84389  2.84389  0.00000  0.31223
       3     C     3.20061  3.20061  0.00000 -0.40123
       4     O     4.23475  4.23475  0.00000 -0.46949
       5     C     3.16055  3.16055  0.00000 -0.32110
       6     H     0.39982  0.39982  0.00000  0.20036
       7     H     0.41573  0.41573  0.00000  0.16855
       8     C     3.24279  3.24279  0.00000 -0.48558
       9     H     0.41323  0.41323  0.00000  0.17355
      10     H     0.41798  0.41798  0.00000  0.16403
      11     H     0.41979  0.41979  0.00000  0.16042
      12     H     0.42004  0.42004  0.00000  0.15992
      13     H     0.40254  0.40254  0.00000  0.19492

   Total alpha = 20.00000, Total beta = 20.00000, Total charge =  0.00000
