  ==> Input File <==

--------------------------------------------------------------------------
set {
	reference rhf
	basis cc-pvtz
}

set_num_threads( 4 )
memory 2 gb

molecule MOL {
0 1

H	 2.685749	 1.891509	 1.290341
N	 1.861830	 1.331944	 1.229822
C	 1.860978	 0.530248	 0.016256
H	 1.081155	 1.954543	 1.246122
C	 0.644130	 -0.381765	 -0.031064
H	 2.761494	 -0.074710	 0.018181
H	 1.891964	 1.134521	 -0.891405
C	 -0.678115	 0.376691	 0.025731
H	 0.693998	 -0.977147	 -0.936845
H	 0.693309	 -1.082142	 0.800523
C	 -1.900706	 -0.535531	 -0.022488
H	 -0.725296	 1.079516	 -0.802982
H	 -0.715474	 0.974884	 0.933278
C	 -3.220513	 0.226854	 0.028039
H	 -1.865036	 -1.134397	 -0.928236
H	 -1.857948	 -1.236381	 0.806820
H	 -3.309098	 0.911849	 -0.808725
H	 -4.066838	 -0.449485	 -0.008086
H	 -3.301685	 0.809374	 0.939860

	symmetry c1
}
set optking {
	frozen_dihedral = ("
		6 3 5 9
	")
}

ee = optimize('scf')
oeprop('DIPOLE', 'QUADRUPOLE', 'MULLIKEN_CHARGES')
f=open( 'psi4out.xyz', 'w' )
f.write( "19  " )
f.write( str(ee) + "\n" )
f.write( MOL.save_string_xyz() )
f.close()
--------------------------------------------------------------------------

    Molecular point group: c1
  Charge       = 0
  Multiplicity = 1
  Basis Set: CC-PVTZ
  Basis Set:
  @DF-RHF Final Energy:  -251.44634282934484
    Total Energy =                       -251.4463428293448146
    Molecular point group: c1
  Basis Set: CC-PVTZ
  Basis Set:
  Basis Set: CC-PVTZ
  Basis Set:
  @DF-RHF Final Energy:  -251.44678911178914
    Total Energy =                       -251.4467891117893146
  Basis Set: CC-PVTZ
  Basis Set:
  Basis Set: CC-PVTZ
  Basis Set:
  @DF-RHF Final Energy:  -251.44706893757697
    Total Energy =                       -251.4470689375768302
  Basis Set: CC-PVTZ
  Basis Set:
  Basis Set: CC-PVTZ
  Basis Set:
  @DF-RHF Final Energy:  -251.44708729783329
    Total Energy =                       -251.4470872978332636
  Basis Set: CC-PVTZ
  Basis Set:
  Basis Set: CC-PVTZ
  Basis Set:
  @DF-RHF Final Energy:  -251.44708902474397
    Total Energy =                       -251.4470890247438319
  Basis Set: CC-PVTZ
  Basis Set:
  Charge       = 0
  Multiplicity = 1
  Basis Set: CC-PVTZ
  Basis Set:

    Orbital Energies (a.u.)
    -----------------------

    Doubly Occupied:

       1A    -15.526473     2A    -11.238532     3A    -11.211317
       4A    -11.209383     5A    -11.207145     6A    -11.205110
       7A     -1.178348     8A     -1.072070     9A     -0.998192
      10A     -0.907152    11A     -0.814276    12A     -0.780171
      13A     -0.665228    14A     -0.653723    15A     -0.613655
      16A     -0.587013    17A     -0.560642    18A     -0.550684
      19A     -0.530013    20A     -0.501121    21A     -0.488201
      22A     -0.462916    23A     -0.461460    24A     -0.445253
      25A     -0.383668

  @DF-RHF Final Energy:  -251.44708926362387

   => Energetics <=

    Nuclear Repulsion Energy =            249.6576555626480740
    One-Electron Energy =                -833.7060021857707852
    Two-Electron Energy =                 332.6012573594989021
    DFT Exchange-Correlation Energy =       0.0000000000000000
    Empirical Dispersion Energy =           0.0000000000000000
    PCM Polarization Energy =               0.0000000000000000
    EFP Energy =                            0.0000000000000000
    Total Energy =                       -251.4470892636238091
    Molecular point group: c1
  Basis Set: CC-PVTZ
  Basis Set:

  -Total Gradient:
     Atom            X                  Y                   Z
    ------   -----------------  -----------------  -----------------
       1       -0.000009787845     0.000000788422    -0.000001885526
       2       -0.000024339772     0.000012306422     0.000007630167
       3       -0.000117881077     0.000181360383    -0.001603875393
       4       -0.000002249456     0.000009751999     0.000013604093
       5        0.000757911769    -0.001043491943     0.000988845822
       6        0.000009623856    -0.000019634385     0.001183317307
       7        0.000001379005    -0.000008059452    -0.000000764472
       8        0.000001627179     0.000014074566    -0.000021539080
       9       -0.000620453835     0.000854778041    -0.000569466267
      10        0.000013778581    -0.000011646203     0.000004281360
      11       -0.000012482537     0.000002982008    -0.000016237350
      12       -0.000005742086    -0.000001425192     0.000000507820
      13       -0.000000726842     0.000005963673    -0.000000547546
      14        0.000004044597    -0.000004319670     0.000017927288
      15        0.000002673459     0.000007264738    -0.000003840618
      16        0.000000042941     0.000001077437    -0.000004020362
      17        0.000004267544    -0.000007330759    -0.000000965910
      18        0.000001957479    -0.000001536806     0.000005489213
      19       -0.000003642963     0.000007096722     0.000001539451

  **** Optimization is complete! (in 6 steps) ****
    Final optimized geometry and variables:
    Molecular point group: c1

    Geometry (in Angstrom), charge = 0, multiplicity = 1:

    H            3.039748646978     1.517888122123     1.065562777154
    N            2.150814050464     1.070560125427     0.995655511031
    C            2.080103879643     0.247991980218    -0.203928067226
    H            1.462485205972     1.792428776136     0.984010582436
    C            0.852722230271    -0.655337783034    -0.207056842974
    H            2.966155368232    -0.376136996947    -0.215192533623
    H            2.094698995487     0.837603424191    -1.121684752716
    C           -0.479004116620     0.091216417924    -0.167382741594
    H            0.883542080785    -1.261482581413    -1.109018430856
    H            0.913673944854    -1.331649867108     0.639487951592
    C           -1.687350604361    -0.836064304926    -0.267202533628
    H           -0.514382526185     0.811657522719    -0.982873901478
    H           -0.552085435037     0.660684927055     0.754249957593
    C           -3.018976472442    -0.094895994172    -0.212672934723
    H           -1.628897865948    -1.403802791436    -1.191838780093
    H           -1.646687955804    -1.562905211499     0.539254321153
    H           -3.104579804555     0.617011898623    -1.027128081125
    H           -3.854496627468    -0.781692379455    -0.285585042288
    H           -3.123145668017     0.454541011485     0.717089052642

  Mulliken Charges: (a.u.)
   Center  Symbol    Alpha    Beta     Spin     Total
       1     H     0.42918  0.42918  0.00000  0.14165
       2     N     3.69092  3.69092  0.00000 -0.38184
       3     C     3.04038  3.04038  0.00000 -0.08075
       4     H     0.42884  0.42884  0.00000  0.14233
       5     C     3.07933  3.07933  0.00000 -0.15866
       6     H     0.45183  0.45183  0.00000  0.09635
       7     H     0.46434  0.46434  0.00000  0.07132
       8     C     3.09528  3.09528  0.00000 -0.19057
       9     H     0.45556  0.45556  0.00000  0.08887
      10     H     0.45282  0.45282  0.00000  0.09435
      11     C     3.08361  3.08361  0.00000 -0.16721
      12     H     0.45634  0.45634  0.00000  0.08732
      13     H     0.45353  0.45353  0.00000  0.09295
      14     C     3.14994  3.14994  0.00000 -0.29989
      15     H     0.45497  0.45497  0.00000  0.09007
      16     H     0.45343  0.45343  0.00000  0.09314
      17     H     0.45594  0.45594  0.00000  0.08812
      18     H     0.44856  0.44856  0.00000  0.10289
      19     H     0.45521  0.45521  0.00000  0.08957

   Total alpha = 25.00000, Total beta = 25.00000, Total charge = -0.00000
