  ==> Input File <==

--------------------------------------------------------------------------
set {
	reference rhf
	basis 6-31G*
}

set_num_threads( 4 )
memory 2 gb

molecule MOL {
0 1

H	 -2.620122	 -0.815820	 1.611403
C	 -2.621916	 -1.167268	 0.581538
O	 -1.361261	 -1.056449	 0.003778
H	 -2.895515	 -2.213276	 0.569125
H	 -3.368683	 -0.602025	 0.025421
C	 -0.874367	 0.246818	 -0.056876
C	 0.535832	 0.228395	 -0.598362
H	 -1.501366	 0.854650	 -0.710410
H	 -0.873708	 0.706092	 0.929568
O	 1.392611	 -0.295398	 0.366430
H	 0.563395	 -0.370275	 -1.506569
H	 0.833905	 1.245300	 -0.856722
C	 2.706965	 -0.449871	 -0.062409
H	 2.756559	 -0.644779	 -1.131878
H	 3.305899	 0.433456	 0.155466
H	 3.125548	 -1.294566	 0.467107

	symmetry c1
}
set optking {
	frozen_dihedral = ("
		7 10 13 14
	")
}

ee = optimize('scf')
oeprop('DIPOLE', 'QUADRUPOLE', 'MULLIKEN_CHARGES')
f=open( 'psi4out.xyz', 'w' )
f.write( "16  " )
f.write( str(ee) + "\n" )
f.write( MOL.save_string_xyz() )
f.close()
--------------------------------------------------------------------------

    Molecular point group: c1
  Charge       = 0
  Multiplicity = 1
  Basis Set: 6-31G*
  Basis Set:
  @DF-RHF Final Energy:  -306.97550730262236
    Total Energy =                       -306.9755073026224181
    Molecular point group: c1
  Basis Set: 6-31G*
  Basis Set:
  Basis Set: 6-31G*
  Basis Set:
  @DF-RHF Final Energy:  -306.97562872288734
    Total Energy =                       -306.9756287228872225
  Basis Set: 6-31G*
  Basis Set:
  Basis Set: 6-31G*
  Basis Set:
  @DF-RHF Final Energy:  -306.97568089403040
    Total Energy =                       -306.9756808940304609
  Basis Set: 6-31G*
  Basis Set:
  Charge       = 0
  Multiplicity = 1
  Basis Set: 6-31G*
  Basis Set:

    Orbital Energies (a.u.)
    -----------------------

    Doubly Occupied:

       1A    -20.553339     2A    -20.551540     3A    -11.269239
       4A    -11.268307     5A    -11.263396     6A    -11.263259
       7A     -1.386951     8A     -1.368978     9A     -1.030698
      10A     -0.936167    11A     -0.891938    12A     -0.823869
      13A     -0.683107    14A     -0.679460    15A     -0.656795
      16A     -0.635187    17A     -0.628120    18A     -0.597326
      19A     -0.552273    20A     -0.535453    21A     -0.509236
      22A     -0.477245    23A     -0.462054    24A     -0.418382
      25A     -0.408452

  @DF-RHF Final Energy:  -306.97568147870629

   => Energetics <=

    Nuclear Repulsion Energy =            258.6956053288826070
    One-Electron Energy =                -931.6410334559780040
    Two-Electron Energy =                 365.9697466483891617
    DFT Exchange-Correlation Energy =       0.0000000000000000
    Empirical Dispersion Energy =           0.0000000000000000
    PCM Polarization Energy =               0.0000000000000000
    EFP Energy =                            0.0000000000000000
    Total Energy =                       -306.9756814787062353
    Molecular point group: c1
  Basis Set: 6-31G*
  Basis Set:

  -Total Gradient:
     Atom            X                  Y                   Z
    ------   -----------------  -----------------  -----------------
       1       -0.000001328664    -0.000000223138     0.000000619551
       2        0.000000635618     0.000001663462     0.000001957055
       3        0.000000595477    -0.000003237657     0.000022856296
       4        0.000001308396    -0.000000231206     0.000000299052
       5        0.000003073651     0.000001017844    -0.000000775087
       6       -0.000035661525     0.000018315437    -0.000070178801
       7       -0.000572053122    -0.002204117797    -0.000775540811
       8       -0.000042700535     0.000013353671     0.000002145711
       9        0.000018068844    -0.000021989741    -0.000021884079
      10        0.000918654928     0.004058636422     0.000955945678
      11       -0.000003212362    -0.000002599722     0.000027163694
      12        0.000003170691    -0.000011626443    -0.000001525434
      13       -0.000483461629    -0.004874336477     0.000418881754
      14        0.000188735231     0.003025264138    -0.000542931748
      15       -0.000013115263     0.000009616121    -0.000012518999
      16        0.000017290263    -0.000009504915    -0.000004513832

  **** Optimization is complete! (in 4 steps) ****
    Final optimized geometry and variables:
    Molecular point group: c1

    Geometry (in Angstrom), charge = 0, multiplicity = 1:

    H           -2.576772535710    -0.399486040383     1.574510389129
    C           -2.581550647322    -0.748398610632     0.543785573594
    O           -1.323710236208    -0.631818610977    -0.038981024924
    H           -2.851857461758    -1.795243261356     0.529876127157
    H           -3.332192794359    -0.184050206217    -0.007913475927
    C           -0.841657116058     0.673347348556    -0.098604988521
    C            0.566894174194     0.661560143877    -0.644914120260
    H           -1.473095294524     1.280323758036    -0.748771638107
    H           -0.839851095919     1.130425646138     0.888720684226
    O            1.425571180849     0.129296246380     0.314015029217
    H            0.592396232547     0.068486136916    -1.555965365216
    H            0.858408630518     1.681711921700    -0.898386533414
    C            2.746261015887    -0.043590961940    -0.097721096486
    H            2.813438077792    -0.241190029209    -1.164420129978
    H            3.336956244040     0.846781124298     0.109797078382
    H            3.166340023749    -0.876795113368     0.449304968856

  Mulliken Charges: (a.u.)
   Center  Symbol    Alpha    Beta     Spin     Total
       1     H     0.42808  0.42808  0.00000  0.14383
       2     C     3.07946  3.07946  0.00000 -0.15891
       3     O     4.30085  4.30085  0.00000 -0.60170
       4     H     0.41136  0.41136  0.00000  0.17729
       5     H     0.43194  0.43194  0.00000  0.13612
       6     C     2.99352  2.99352  0.00000  0.01295
       7     C     2.99314  2.99314  0.00000  0.01372
       8     H     0.43236  0.43236  0.00000  0.13528
       9     H     0.42276  0.42276  0.00000  0.15449
      10     O     4.30357  4.30357  0.00000 -0.60713
      11     H     0.42203  0.42203  0.00000  0.15595
      12     H     0.43275  0.43275  0.00000  0.13449
      13     C     3.07687  3.07687  0.00000 -0.15373
      14     H     0.43047  0.43047  0.00000  0.13907
      15     H     0.42813  0.42813  0.00000  0.14373
      16     H     0.41272  0.41272  0.00000  0.17456

   Total alpha = 25.00000, Total beta = 25.00000, Total charge = -0.00000
