  ==> Input File <==

--------------------------------------------------------------------------
set {
	reference rhf
	basis 6-31G*
}

set_num_threads( 4 )
memory 2 gb

molecule MOL {
0 1

O	 1.846825	 1.296220	 0.000415
C	 1.705091	 0.115954	 0.001797
C	 0.381791	 -0.609817	 0.001258
O	 2.721346	 -0.737485	 -0.000216
C	 -0.823008	 0.326187	 0.001381
H	 0.371250	 -1.265087	 -0.865474
H	 0.370908	 -1.265746	 0.867490
C	 -2.149452	 -0.435131	 -0.000098
H	 -0.770201	 0.977095	 -0.865636
H	 -0.771220	 0.975655	 0.869608
C	 -3.368779	 0.488503	 -0.000883
H	 -2.193746	 -1.087250	 -0.871175
H	 -2.195311	 -1.087803	 0.870418
C	 -4.215192	 0.360182	 1.264965
H	 -3.984210	 0.270227	 -0.870792
H	 -3.038701	 1.518960	 -0.111995
H	 -4.589293	 -0.652561	 1.385851
H	 -5.071196	 1.027103	 1.234577
H	 -3.636079	 0.605675	 2.150782
C	 4.024888	 -0.184556	 -0.001949
H	 4.179030	 0.422472	 -0.882452
H	 4.701782	 -1.024608	 -0.003642
H	 4.181981	 0.421185	 0.878906

	symmetry c1
}
set optking {
	frozen_dihedral = ("
		15 11 8 12
	")
}

ee = optimize('scf')
oeprop('DIPOLE', 'QUADRUPOLE', 'MULLIKEN_CHARGES')
f=open( 'psi4out.xyz', 'w' )
f.write( "23  " )
f.write( str(ee) + "\n" )
f.write( MOL.save_string_xyz() )
f.close()
--------------------------------------------------------------------------

    Molecular point group: c1
  Charge       = 0
  Multiplicity = 1
  Basis Set: 6-31G*
  Basis Set:
  @DF-RHF Final Energy:  -422.97046417851686
    Total Energy =                       -422.9704641785176591
    Molecular point group: c1
  Basis Set: 6-31G*
  Basis Set:
  Basis Set: 6-31G*
  Basis Set:
  @DF-RHF Final Energy:  -422.97066385558452
    Total Energy =                       -422.9706638555851441
  Basis Set: 6-31G*
  Basis Set:
  Basis Set: 6-31G*
  Basis Set:
  @DF-RHF Final Energy:  -422.97052566452550
    Total Energy =                       -422.9705256645256668
  Basis Set: 6-31G*
  Basis Set:
  Basis Set: 6-31G*
  Basis Set:
  @DF-RHF Final Energy:  -422.97078204864516
    Total Energy =                       -422.9707820486449918
  Basis Set: 6-31G*
  Basis Set:
  Basis Set: 6-31G*
  Basis Set:
  @DF-RHF Final Energy:  -422.97078195027211
    Total Energy =                       -422.9707819502714301
  Basis Set: 6-31G*
  Basis Set:
  Basis Set: 6-31G*
  Basis Set:
  @DF-RHF Final Energy:  -422.97078713866227
    Total Energy =                       -422.9707871386622173
  Basis Set: 6-31G*
  Basis Set:
  Charge       = 0
  Multiplicity = 1
  Basis Set: 6-31G*
  Basis Set:

    Orbital Energies (a.u.)
    -----------------------

    Doubly Occupied:

       1A    -20.603642     2A    -20.545443     3A    -11.372318
       4A    -11.280856     5A    -11.235350     6A    -11.219721
       7A    -11.217554     8A    -11.216080     9A    -11.209698
      10A     -1.469338    11A     -1.362785    12A     -1.091791
      13A     -1.041838    14A     -0.986644    15A     -0.931509
      16A     -0.846178    17A     -0.793704    18A     -0.767611
      19A     -0.696719    20A     -0.683452    21A     -0.671952
      22A     -0.643656    23A     -0.612913    24A     -0.598176
      25A     -0.580315    26A     -0.564938    27A     -0.541319
      28A     -0.526818    29A     -0.521822    30A     -0.502737
      31A     -0.494397    32A     -0.468791    33A     -0.460447
      34A     -0.458975    35A     -0.454136    36A     -0.435315

  @DF-RHF Final Energy:  -422.97078770497188

   => Energetics <=

    Nuclear Repulsion Energy =            453.6264888303346083
    One-Electron Energy =               -1474.9766746639306803
    Two-Electron Energy =                 598.3793981286239614
    DFT Exchange-Correlation Energy =       0.0000000000000000
    Empirical Dispersion Energy =           0.0000000000000000
    PCM Polarization Energy =               0.0000000000000000
    EFP Energy =                            0.0000000000000000
    Total Energy =                       -422.9707877049720537
    Molecular point group: c1
  Basis Set: 6-31G*
  Basis Set:

  -Total Gradient:
     Atom            X                  Y                   Z
    ------   -----------------  -----------------  -----------------
       1        0.000005080971    -0.000004075667    -0.000011510186
       2       -0.000002354148    -0.000003715471     0.000023795285
       3       -0.000003375534    -0.000001846824    -0.000002903050
       4        0.000009522866     0.000006526629    -0.000010879580
       5       -0.000003879302     0.000000343141     0.000005565018
       6       -0.000000569181     0.000001740326     0.000001180029
       7        0.000002398533    -0.000000096192    -0.000001594348
       8        0.000677031918     0.000939334629    -0.000743286837
       9       -0.000005586290    -0.000001299224     0.000001269523
      10       -0.000003291022    -0.000001174539    -0.000002882968
      11       -0.000678199156    -0.000940065431     0.000739393538
      12       -0.000464848440    -0.000631745073     0.000491484343
      13       -0.000000174428     0.000002870630     0.000000739050
      14       -0.000006151595     0.000001454743     0.000000465519
      15        0.000463400297     0.000632391785    -0.000491568166
      16        0.000002994800    -0.000001002793     0.000004718855
      17        0.000009577766    -0.000000154436     0.000000602235
      18       -0.000006173011    -0.000001291783    -0.000002376010
      19        0.000000323910     0.000003841300    -0.000006258154
      20        0.000001728823    -0.000003108741     0.000008435513
      21       -0.000001454798    -0.000000016097    -0.000001479612
      22        0.000001831704     0.000000912628    -0.000001480029
      23        0.000002165302     0.000000176463    -0.000001429970

  **** Optimization is complete! (in 7 steps) ****
    Final optimized geometry and variables:
    Molecular point group: c1

    Geometry (in Angstrom), charge = 0, multiplicity = 1:

    O            1.792263085255     1.223088359731    -0.151042412509
    C            1.651918403406     0.042677676004    -0.146272778180
    C            0.329352903691    -0.684490810380    -0.148390800600
    O            2.669123336105    -0.809581207568    -0.138209063059
    C           -0.876220576123     0.249803643613    -0.159345822198
    H            0.323151743275    -1.344907276883    -1.011341226891
    H            0.315302452729    -1.335495402245     0.721563334768
    C           -2.203017693962    -0.512380477302    -0.164572699469
    H           -0.820483915553     0.897153144253    -1.028808041707
    H           -0.831664202245     0.903625145451     0.706444578466
    C           -3.439728025826     0.414357871321    -0.143683825558
    H           -2.240753877175    -1.163685467347    -1.034351903526
    H           -2.233055818341    -1.175722507344     0.697618921264
    C           -4.270546401481     0.292522088599     1.133864106992
    H           -4.071510249082     0.208724164243    -1.002782226324
    H           -3.119775682153     1.447003502986    -0.256698144456
    H           -4.656249949199    -0.715680159190     1.255644405074
    H           -5.117076190403     0.972181712728     1.119514879586
    H           -3.673583410424     0.525396826871     2.011459021136
    C            3.972053578491    -0.255135986841    -0.135151388154
    H            4.130660652733     0.347588490854    -1.017807886109
    H            4.649914233749    -1.094439202433    -0.128722520726
    H            4.123343914063     0.355176765132     0.743566176266

  Mulliken Charges: (a.u.)
   Center  Symbol    Alpha    Beta     Spin     Total
       1     O     4.28610  4.28610  0.00000 -0.57221
       2     C     2.60518  2.60518  0.00000  0.78963
       3     C     3.20867  3.20867  0.00000 -0.41735
       4     O     4.30721  4.30721  0.00000 -0.61442
       5     C     3.15427  3.15427  0.00000 -0.30854
       6     H     0.40065  0.40065  0.00000  0.19871
       7     H     0.40058  0.40058  0.00000  0.19884
       8     C     3.15770  3.15770  0.00000 -0.31540
       9     H     0.41110  0.41110  0.00000  0.17780
      10     H     0.41174  0.41174  0.00000  0.17652
      11     C     3.15585  3.15585  0.00000 -0.31169
      12     H     0.42097  0.42097  0.00000  0.15806
      13     H     0.42139  0.42139  0.00000  0.15721
      14     C     3.23993  3.23993  0.00000 -0.47987
      15     H     0.41948  0.41948  0.00000  0.16104
      16     H     0.41731  0.41731  0.00000  0.16538
      17     H     0.42162  0.42162  0.00000  0.15675
      18     H     0.41963  0.41963  0.00000  0.16074
      19     H     0.42158  0.42158  0.00000  0.15683
      20     C     3.09243  3.09243  0.00000 -0.18487
      21     H     0.40907  0.40907  0.00000  0.18186
      22     H     0.40843  0.40843  0.00000  0.18314
      23     H     0.40908  0.40908  0.00000  0.18183

   Total alpha = 36.00000, Total beta = 36.00000, Total charge = -0.00000
