  ==> Input File <==

--------------------------------------------------------------------------
set {
	reference rhf
	basis 6-31G*
}

set_num_threads( 1 )
memory 2 gb

molecule MOL {
0 1

O	 2.862325	 1.357334	 0.000267
C	 2.843464	 0.164689	 -0.000222
C	 1.546494	 -0.624492	 -0.000609
C	 4.124123	 -0.644674	 -0.000428
C	 0.291004	 0.242674	 0.000989
H	 1.557904	 -1.283758	 -0.867573
H	 1.558622	 -1.285963	 0.864672
C	 -0.970181	 -0.552282	 0.343365
H	 0.180104	 0.709842	 -0.972451
H	 0.419964	 1.054068	 0.710325
C	 -2.235709	 0.306879	 0.346631
H	 -1.091511	 -1.366387	 -0.369769
H	 -0.851553	 -1.019418	 1.319980
C	 -3.501555	 -0.481185	 0.688105
H	 -2.355684	 0.773790	 -0.629391
H	 -2.115899	 1.120532	 1.059801
C	 -4.761509	 0.383800	 0.689145
H	 -3.623031	 -1.294079	 -0.024825
H	 -3.383425	 -0.947146	 1.664211
H	 -4.926363	 0.837354	 -0.284129
H	 -5.641694	 -0.202783	 0.933881
H	 -4.685564	 1.186054	 1.417681
H	 4.165367	 -1.288615	 -0.874074
H	 4.976217	 0.020734	 -0.001915
H	 4.166763	 -1.286207	 0.874930

	symmetry c1
}
set optking {
	frozen_dihedral = ("
		9 5 8 12,
		15 11 8 12,
		15 11 14 18,
		1 2 3 6
	")
}

ee = energy('scf')
oeprop('DIPOLE', 'QUADRUPOLE', 'MULLIKEN_CHARGES')
f=open( 'psi4out.xyz', 'w' )
f.write( "25  " )
f.write( str(ee) + "\n" )
f.write( MOL.save_string_xyz() )
f.close()
--------------------------------------------------------------------------

    Molecular point group: c1

    Geometry (in Angstrom), charge = 0, multiplicity = 1:

       Center              X                  Y                   Z               Mass
    ------------   -----------------  -----------------  -----------------  -----------------
           O          2.846127129270     1.334309207671    -0.231289644022    15.994914619560
           C          2.827266129270     0.141664207671    -0.231778644022    12.000000000000
           C          1.530296129270    -0.647516792329    -0.232165644022    12.000000000000
           C          4.107925129270    -0.667698792329    -0.231984644022    12.000000000000
           C          0.274806129270     0.219649207671    -0.230567644022    12.000000000000
           H          1.541706129270    -1.306782792329    -1.099129644022     1.007825032070
           H          1.542424129270    -1.308987792329     0.633115355978     1.007825032070
           C         -0.986378870730    -0.575306792329     0.111808355978    12.000000000000
           H          0.163906129270     0.686817207671    -1.204007644022     1.007825032070
           H          0.403766129270     1.031043207671     0.478768355978     1.007825032070
           C         -2.251906870730     0.283854207671     0.115074355978    12.000000000000
           H         -1.107708870730    -1.389411792329    -0.601325644022     1.007825032070
           H         -0.867750870730    -1.042442792329     1.088423355978     1.007825032070
           C         -3.517752870730    -0.504209792329     0.456548355978    12.000000000000
           H         -2.371881870730     0.750765207671    -0.860947644022     1.007825032070
           H         -2.132096870730     1.097507207671     0.828244355978     1.007825032070
           C         -4.777706870730     0.360775207671     0.457588355978    12.000000000000
           H         -3.639228870730    -1.317103792329    -0.256381644022     1.007825032070
           H         -3.399622870730    -0.970170792329     1.432654355978     1.007825032070
           H         -4.942560870730     0.814329207671    -0.515685644022     1.007825032070
           H         -5.657891870730    -0.225807792329     0.702324355978     1.007825032070
           H         -4.701761870730     1.163029207671     1.186124355978     1.007825032070
           H          4.149169129270    -1.311639792329    -1.105630644022     1.007825032070
           H          4.960019129270    -0.002290792329    -0.233471644022     1.007825032070
           H          4.150565129270    -1.309231792329     0.643373355978     1.007825032070

  Charge       = 0
  Multiplicity = 1
  Basis Set: 6-31G*
  Basis Set:

    Orbital Energies (a.u.)
    -----------------------

    Doubly Occupied:

       1A    -20.550555     2A    -11.326440     3A    -11.231682
       4A    -11.228434     5A    -11.216815     6A    -11.216029
       7A    -11.215237     8A    -11.213326     9A    -11.208215
      10A     -1.395942    11A     -1.093456    12A     -1.056225
      13A     -1.014505    14A     -0.969175    15A     -0.890575
      16A     -0.814065    17A     -0.790736    18A     -0.729917
      19A     -0.662322    20A     -0.651102    21A     -0.631876
      22A     -0.624077    23A     -0.595793    24A     -0.584154
      25A     -0.567101    26A     -0.559704    27A     -0.539613
      28A     -0.526067    29A     -0.512767    30A     -0.491077
      31A     -0.486496    32A     -0.472800    33A     -0.463795
      34A     -0.461915    35A     -0.450256    36A     -0.399685

  @DF-RHF Final Energy:  -387.13588669139966

   => Energetics <=

    Nuclear Repulsion Energy =            438.5315587072778385
    One-Electron Energy =               -1393.6510133790477539
    Two-Electron Energy =                 567.9835679803699122
    DFT Exchange-Correlation Energy =       0.0000000000000000
    Empirical Dispersion Energy =           0.0000000000000000
    PCM Polarization Energy =               0.0000000000000000
    EFP Energy =                            0.0000000000000000
    Total Energy =                       -387.1358866914000600

  Mulliken Charges: (a.u.)
   Center  Symbol    Alpha    Beta     Spin     Total
       1     O     4.26094  4.26094  0.00000 -0.52188
       2     C     2.73625  2.73625  0.00000  0.52751
       3     C     3.21136  3.21136  0.00000 -0.42272
       4     C     3.28666  3.28666  0.00000 -0.57331
       5     C     3.14912  3.14912  0.00000 -0.29824
       6     H     0.40923  0.40923  0.00000  0.18155
       7     H     0.41004  0.41004  0.00000  0.17991
       8     C     3.15429  3.15429  0.00000 -0.30858
       9     H     0.41552  0.41552  0.00000  0.16895
      10     H     0.40717  0.40717  0.00000  0.18567
      11     C     3.15083  3.15083  0.00000 -0.30165
      12     H     0.42520  0.42520  0.00000  0.14961
      13     H     0.42446  0.42446  0.00000  0.15108
      14     C     3.15149  3.15149  0.00000 -0.30298
      15     H     0.42287  0.42287  0.00000  0.15425
      16     H     0.42202  0.42202  0.00000  0.15596
      17     C     3.23933  3.23933  0.00000 -0.47865
      18     H     0.42362  0.42362  0.00000  0.15276
      19     H     0.42348  0.42348  0.00000  0.15304
      20     H     0.42151  0.42151  0.00000  0.15699
      21     H     0.41955  0.41955  0.00000  0.16089
      22     H     0.42126  0.42126  0.00000  0.15748
      23     H     0.40868  0.40868  0.00000  0.18263
      24     H     0.39645  0.39645  0.00000  0.20711
      25     H     0.40869  0.40869  0.00000  0.18263

   Total alpha = 36.00000, Total beta = 36.00000, Total charge =  0.00000
