  ==> Input File <==

--------------------------------------------------------------------------
set {
	reference rhf
	basis 6-31G*
}

set_num_threads( 4 )
memory 2 gb

molecule MOL {
0 1

O	 -2.439739	 -0.935931	 -0.423848
C	 -1.921153	 0.064240	 -0.045697
C	 -2.624470	 1.379923	 0.150949
O	 -0.632575	 0.154573	 0.251549
H	 -2.168117	 2.136577	 -0.476876
H	 -3.669540	 1.273223	 -0.098610
H	 -2.519365	 1.700893	 1.180846
C	 0.160891	 -1.019931	 0.106212
C	 1.589627	 -0.672828	 0.480843
H	 0.089836	 -1.367806	 -0.916050
H	 -0.238459	 -1.792301	 0.749618
C	 2.246377	 0.346236	 -0.452210
H	 2.163194	 -1.597435	 0.473358
H	 1.604769	 -0.303424	 1.502885
C	 1.475487	 1.664031	 -0.516600
H	 3.262945	 0.538046	 -0.114724
H	 2.325722	 -0.077713	 -1.447866
H	 1.960229	 2.368807	 -1.184693
H	 1.408210	 2.129422	 0.462769
H	 0.463084	 1.508513	 -0.878445

	symmetry c1
}
set optking {
	frozen_dihedral = ("
		16 12 9 8
	")
}

ee = optimize('scf')
oeprop('DIPOLE', 'QUADRUPOLE', 'MULLIKEN_CHARGES')
f=open( 'psi4out.xyz', 'w' )
f.write( "20  " )
f.write( str(ee) + "\n" )
f.write( MOL.save_string_xyz() )
f.close()
--------------------------------------------------------------------------

    Molecular point group: c1
  Charge       = 0
  Multiplicity = 1
  Basis Set: 6-31G*
  Basis Set:
  @DF-RHF Final Energy:  -383.93577154573643
    Total Energy =                       -383.9357715457365430
    Molecular point group: c1
  Basis Set: 6-31G*
  Basis Set:
  Basis Set: 6-31G*
  Basis Set:
  @DF-RHF Final Energy:  -383.94065441861386
    Total Energy =                       -383.9406544186141446
  Basis Set: 6-31G*
  Basis Set:
  Basis Set: 6-31G*
  Basis Set:
  @DF-RHF Final Energy:  -383.94175239573468
    Total Energy =                       -383.9417523957347385
  Basis Set: 6-31G*
  Basis Set:
  Basis Set: 6-31G*
  Basis Set:
  @DF-RHF Final Energy:  -383.94010908130042
    Total Energy =                       -383.9401090813004203
  Basis Set: 6-31G*
  Basis Set:
  Basis Set: 6-31G*
  Basis Set:
  @DF-RHF Final Energy:  -383.94228879302915
    Total Energy =                       -383.9422887930293200
  Basis Set: 6-31G*
  Basis Set:
  Basis Set: 6-31G*
  Basis Set:
  @DF-RHF Final Energy:  -383.94238072490782
    Total Energy =                       -383.9423807249077072
  Basis Set: 6-31G*
  Basis Set:
  Basis Set: 6-31G*
  Basis Set:
  @DF-RHF Final Energy:  -383.94239516481821
    Total Energy =                       -383.9423951648185493
  Basis Set: 6-31G*
  Basis Set:
  Charge       = 0
  Multiplicity = 1
  Basis Set: 6-31G*
  Basis Set:

    Orbital Energies (a.u.)
    -----------------------

    Doubly Occupied:

       1A    -20.601883     2A    -20.544317     3A    -11.374661
       4A    -11.282772     5A    -11.233473     6A    -11.226366
       7A    -11.222866     8A    -11.209125     9A     -1.468246
      10A     -1.362382    11A     -1.084374    12A     -1.026804
      13A     -0.979303    14A     -0.890102    15A     -0.798341
      16A     -0.778872    17A     -0.690634    18A     -0.686691
      19A     -0.666161    20A     -0.621274    21A     -0.606838
      22A     -0.588394    23A     -0.573132    24A     -0.555301
      25A     -0.545696    26A     -0.531160    27A     -0.512200
      28A     -0.481698    29A     -0.474687    30A     -0.469695
      31A     -0.446062    32A     -0.438184

  @DF-RHF Final Energy:  -383.94239983891066

   => Energetics <=

    Nuclear Repulsion Energy =            393.8330147987114742
    One-Electron Energy =               -1303.6074481873802142
    Two-Electron Energy =                 525.8320335497580800
    DFT Exchange-Correlation Energy =       0.0000000000000000
    Empirical Dispersion Energy =           0.0000000000000000
    PCM Polarization Energy =               0.0000000000000000
    EFP Energy =                            0.0000000000000000
    Total Energy =                       -383.9423998389106600
    Molecular point group: c1
  Basis Set: 6-31G*
  Basis Set:

  -Total Gradient:
     Atom            X                  Y                   Z
    ------   -----------------  -----------------  -----------------
       1       -0.000050507804    -0.000065894655    -0.000051703195
       2        0.000112247771     0.000038205550     0.000081614776
       3       -0.000027299530     0.000002234062    -0.000008647723
       4       -0.000059478214     0.000004538260    -0.000004606531
       5       -0.000001041951     0.000015079907    -0.000001974101
       6        0.000006399407     0.000003709834     0.000000618780
       7       -0.000001862159     0.000003426848    -0.000001522605
       8       -0.000489810316     0.001050562312     0.000650311071
       9        0.000582919583    -0.001260076297    -0.000773367476
      10        0.000006188057    -0.000020972858    -0.000024994980
      11        0.000012801761     0.000034839224    -0.000006965498
      12        0.000518778778    -0.001195485921    -0.000747966726
      13       -0.000009072313    -0.000030832497     0.000030082121
      14        0.000010367942     0.000018731549    -0.000026387756
      15       -0.000026879630     0.000000061292     0.000003828414
      16       -0.000643931484     0.001395747324     0.000821212588
      17       -0.000000734468    -0.000036381105     0.000029188861
      18        0.000000929158     0.000042394699    -0.000012907333
      19        0.000001338744     0.000019126744     0.000010244647
      20        0.000058646677    -0.000019014269     0.000033942664

  **** Optimization is complete! (in 8 steps) ****
    Final optimized geometry and variables:
    Molecular point group: c1

    Geometry (in Angstrom), charge = 0, multiplicity = 1:

    O           -2.170041003785    -1.074297025033    -0.447386839809
    C           -1.710051931949    -0.095647401884     0.045865709555
    C           -2.488425436492     1.146841206930     0.385142917364
    O           -0.430437025164     0.031626944883     0.366883974629
    H           -2.077579231211     1.994251257527    -0.151631957354
    H           -3.525710495513     1.008365532233     0.119223978011
    H           -2.400977736013     1.356084769951     1.445000042093
    C            0.426009098011    -1.077094398717     0.106915390276
    C            1.833363216577    -0.731624019677     0.568429189513
    H            0.393131021273    -1.309872101244    -0.949822391018
    H            0.045247672350    -1.934260565469     0.645215617722
    C            2.646045035231     0.182727231101    -0.357192657438
    H            2.373550721965    -1.668552961141     0.680851998275
    H            1.766574956022    -0.292775232704     1.560287811555
    C            2.031710456266     1.554779880437    -0.642610714430
    H            3.618151935376     0.335613267590     0.104558767027
    H            2.828406555908    -0.333181790112    -1.297400349868
    H            2.723377635589     2.162682118238    -1.217981866410
    H            1.807800424648     2.084202380323     0.278301887589
    H            1.110858393881     1.476890424854    -1.207635277453

  Mulliken Charges: (a.u.)
   Center  Symbol    Alpha    Beta     Spin     Total
       1     O     4.28341  4.28341  0.00000 -0.56682
       2     C     2.61966  2.61966  0.00000  0.76068
       3     C     3.28171  3.28171  0.00000 -0.56343
       4     O     4.30741  4.30741  0.00000 -0.61483
       5     H     0.40044  0.40044  0.00000  0.19912
       6     H     0.39690  0.39690  0.00000  0.20620
       7     H     0.40061  0.40061  0.00000  0.19878
       8     C     3.00411  3.00411  0.00000 -0.00822
       9     C     3.16620  3.16620  0.00000 -0.33239
      10     H     0.41060  0.41060  0.00000  0.17880
      11     H     0.40811  0.40811  0.00000  0.18379
      12     C     3.15514  3.15514  0.00000 -0.31029
      13     H     0.41611  0.41611  0.00000  0.16778
      14     H     0.41302  0.41302  0.00000  0.17396
      15     C     3.23565  3.23565  0.00000 -0.47130
      16     H     0.41907  0.41907  0.00000  0.16186
      17     H     0.42191  0.42191  0.00000  0.15619
      18     H     0.42158  0.42158  0.00000  0.15684
      19     H     0.41989  0.41989  0.00000  0.16022
      20     H     0.41847  0.41847  0.00000  0.16306

   Total alpha = 32.00000, Total beta = 32.00000, Total charge =  0.00000
